Title
81370
    1CHL1    C3    1   5.070   4.363   9.976  0.6991  0.1936  0.8832
    1CHL1    H3    2   5.173   4.322   9.987  0.7495  0.0404 -0.1196
    1CHL1    O3    3   5.016   4.410  10.099  0.2822 -0.2437 -0.2424
    1CHL1   H3'    4   4.969   4.335  10.134  2.4067 -0.2026  3.0952
    1CHL1    C4    5   5.071   4.492   9.894 -0.4554 -0.2335  0.3762
    1CHL1   H4A    6   4.974   4.546   9.899 -0.3713 -0.1833  1.9066
    1CHL1   H4B    7   5.144   4.554   9.949 -1.0035  0.5366  0.2509
    1CHL1    C5    8   5.116   4.463   9.751  0.3467 -0.1296 -0.4204
    1CHL1    C6    9   5.211   4.532   9.698  0.2746 -0.7105  0.9814
    1CHL1    H6   10   5.255   4.612   9.759 -1.1303  0.8030  0.0817
    1CHL1    C7   11   5.255   4.520   9.559  0.6604  0.3321  0.2511
    1CHL1   H7A   12   5.280   4.616   9.509 -0.5724  0.1172 -0.8230
    1CHL1   H7B   13   5.343   4.453   9.544  0.9907 -0.5145  4.5973
    1CHL1    C8   14   5.141   4.452   9.472 -0.0842  0.2216  0.4691
    1CHL1    H8   15   5.061   4.528   9.457 -0.0806  0.0308 -0.6295
    1CHL1   C14   16   5.184   4.412   9.335 -1.0069  0.3400 -0.2707
    1CHL1   H14   17   5.264   4.335   9.349  0.0726  1.6301  0.9949
    1CHL1   C15   18   5.257   4.521   9.250 -0.0175 -0.4203 -0.3299
    1CHL1  H15A   19   5.209   4.621   9.260 -0.3756 -0.5348 -0.8166
    1CHL1  H15B   20   5.363   4.527   9.282 -0.3370  2.0585  0.5488
    1CHL1   C16   21   5.249   4.467   9.105 -0.3077 -0.2179  0.2888
    1CHL1  H16A   22   5.192   4.537   9.039 -1.0528 -1.2857 -0.2288
    1CHL1  H16B   23   5.351   4.443   9.070 -0.5875 -0.5328 -0.3196
    1CHL1   C17   24   5.167   4.335   9.113  0.4962 -0.5522 -0.1879
    1CHL1   H17   25   5.241   4.253   9.122  0.4227 -0.6338 -0.3340
    1CHL1   C13   26   5.086   4.336   9.241 -0.7535 -0.3530 -0.9805
    1CHL1   C18   27   4.956   4.414   9.219  0.1179  0.5663  0.1591
    1CHL1  H18A   28   4.914   4.450   9.315  1.7079  0.2978  0.9811
    1CHL1  H18B   29   4.960   4.500   9.149 -1.3943 -0.1077 -0.8096
    1CHL1  H18C   30   4.890   4.343   9.165 -0.8265  0.9331  0.8030
    1CHL1   C12   31   5.060   4.198   9.312 -0.2552 -0.0907  0.2381
    1CHL1  H12A   32   4.986   4.127   9.269 -2.4674  1.5041  1.2283
    1CHL1  H12B   33   5.156   4.146   9.338 -0.1500 -1.0536 -1.8922
    1CHL1   C11   34   5.006   4.226   9.455 -0.1372 -0.7853  0.0557
    1CHL1  H11A   35   4.901   4.260   9.442  0.1562  0.2381  0.2503
    1CHL1  H11B   36   4.991   4.126   9.501  2.5486 -0.2359  2.4086
    1CHL1    C9   37   5.098   4.325   9.542  0.2272  0.0518  0.0227
    1CHL1    H9   38   5.191   4.268   9.564 -0.3550 -1.3425 -0.9295
    1CHL1   C10   39   5.035   4.356   9.686 -0.2674 -0.0670 -0.5846
    1CHL1   C19   40   4.891   4.424   9.667 -0.2480 -0.2313  0.7014
    1CHL1  H19A   41   4.826   4.347   9.619 -0.4114 -0.3249  1.0665
    1CHL1  H19B   42   4.826   4.440   9.756 -0.9169 -0.1652  0.2074
    1CHL1  H19C   43   4.889   4.515   9.604 -2.0284 -1.4059 -1.0490
    1CHL1    C1   44   5.022   4.224   9.766  0.3936  0.0750 -0.0137
    1CHL1   H1A   45   4.947   4.160   9.714 -0.8882  0.9644  0.6754
    1CHL1   H1B   46   5.120   4.172   9.769  0.9419  0.7607 -2.8971
    1CHL1    C2   47   4.982   4.256   9.914 -0.5234 -0.0990 -0.3318
    1CHL1   H2A   48   5.005   4.163   9.970 -1.5970 -0.3798 -0.3314
    1CHL1   H2B   49   4.877   4.292   9.908 -0.0734  0.9773 -2.5098
    1CHL1   C20   50   5.103   4.308   8.975 -0.1913  0.1544  0.5992
    1CHL1   H20   51   5.039   4.393   8.943  1.9133  0.9680 -1.8343
    1CHL1   C21   52   5.029   4.174   8.971  0.0968 -0.1839  0.1920
    1CHL1  H21A   53   5.088   4.084   8.999 -1.0759 -0.7341  0.9306
    1CHL1  H21B   54   4.994   4.160   8.867  5.0998 -0.2005 -1.8040
    1CHL1  H21C   55   4.942   4.170   9.039 -1.0855 -0.5712 -1.2890
    1CHL1   C22   56   5.205   4.307   8.858 -0.3523  0.3701 -0.5137
    1CHL1  H22A   57   5.282   4.386   8.876 -0.8583  0.8638 -0.4706
    1CHL1  H22B   58   5.264   4.213   8.861  0.5881  0.9416  2.3305
    1CHL1   C23   59   5.141   4.316   8.724 -0.4555 -0.2458 -0.3525
    1CHL1  H23A   60   5.064   4.237   8.714  0.4613 -1.2543  0.2799
    1CHL1  H23B   61   5.069   4.400   8.720 -0.1867 -0.0602 -1.9692
    1CHL1   C24   62   5.232   4.315   8.603 -0.3274 -0.2942 -0.2327
    1CHL1  H24A   63   5.316   4.387   8.614  0.3219 -1.2701  1.6551
    1CHL1  H24B   64   5.269   4.211   8.592  0.3418 -0.1292  0.3643
    1CHL1   C25   65   5.156   4.350   8.471 -0.0500 -0.4538  1.0424
    1CHL1   H25   66   5.078   4.274   8.449  0.0080  0.1607 -1.5566
    1CHL1   C26   67   5.079   4.489   8.471 -0.1974  0.6914 -0.0433
    1CHL1  H26A   68   5.136   4.576   8.510  0.8479  0.1123 -0.2455
    1CHL1  H26B   69   5.038   4.507   8.369 -0.5455 -1.8334 -0.4037
    1CHL1  H26C   70   4.986   4.482   8.532  0.7450  1.7924  1.6145
    1CHL1   C27   71   5.255   4.337   8.354  0.5319  0.2521  0.2849
    1CHL1  H27A   72   5.202   4.372   8.264  0.9848  1.1034  0.3387
    1CHL1  H27B   73   5.341   4.407   8.366  1.0392 -0.3533  0.2740
    1CHL1  H27C   74   5.301   4.239   8.328 -0.5886 -0.1142 -0.3350
    2CHL1    C3   75   6.458   0.099  10.561 -0.4482  0.6519  0.6862
    2CHL1    H3   76   6.447  -0.006  10.525  0.0309  1.1845 -1.1634
    2CHL1    O3   77   6.469   0.080  10.701 -0.0223 -0.2101  0.4503
    2CHL1   H3'   78   6.470   0.169  10.738  0.9568 -0.1794  0.3995
    2CHL1    C4   79   6.592   0.155  10.508  0.3853  0.7164 -0.1976
    2CHL1   H4A   80   6.624   0.241  10.569 -1.6305 -0.1080  2.1986
    2CHL1   H4B   81   6.668   0.079  10.534 -0.7009  0.5127  2.8021
    2CHL1    C5   82   6.581   0.187  10.362 -0.2416 -0.3602 -0.4758
    2CHL1    C6   83   6.659   0.134  10.266 -0.6092  0.4867  0.4787
    2CHL1    H6   84   6.744   0.071  10.296 -1.2389  0.0559  1.4319
    2CHL1    C7   85   6.657   0.172  10.117  1.0809  0.2576  0.4611
    2CHL1   H7A   86   6.762   0.190  10.085  1.0610 -1.5828 -0.7659
    2CHL1   H7B   87   6.626   0.087  10.053 -0.2372 -0.1012  1.5450
    2CHL1    C8   88   6.583   0.304  10.092 -0.8235  0.1683  0.3288
    2CHL1    H8   89   6.643   0.392  10.123 -1.5128  0.3126  1.2840
    2CHL1   C14   90   6.557   0.317   9.941  0.5220 -0.6286 -0.1482
    2CHL1   H14   91   6.490   0.230   9.924  1.7201 -1.6088  0.0259
    2CHL1   C15   92   6.673   0.308   9.846 -0.4850 -0.2040  1.1101
    2CHL1  H15A   93   6.762   0.366   9.880 -1.3020  1.6254  0.2625
    2CHL1  H15B   94   6.692   0.199   9.836 -0.9625 -0.2455  0.6022
    2CHL1   C16   95   6.616   0.356   9.719 -0.0178 -0.3225  0.0790
    2CHL1  H16A   96   6.676   0.440   9.677 -1.7899  0.0321 -1.9258
    2CHL1  H16B   97   6.610   0.281   9.637 -1.6967  1.7309 -1.8371
    2CHL1   C17   98   6.471   0.414   9.751 -1.6139  0.9218 -0.4033
    2CHL1   H17   99   6.399   0.331   9.737  0.2492 -0.6422 -1.2335
    2CHL1   C13  100   6.470   0.435   9.900 -0.5019 -0.5131  0.0007
    2CHL1   C18  101   6.551   0.565   9.936 -0.3507 -0.6918 -0.5472
    2CHL1  H18A  102   6.496   0.655   9.901 -0.1745 -0.6396 -0.6859
    2CHL1  H18B  103   6.566   0.572  10.046 -0.2661  0.3215 -0.6175
    2CHL1  H18C  104   6.654   0.567   9.896 -0.3017  2.0882 -0.4451
    2CHL1   C12  105   6.333   0.423   9.975  0.3976  0.0794  0.4464
    2CHL1  H12A  106   6.275   0.515   9.951  1.0194  0.3707  0.0242
    2CHL1  H12B  107   6.283   0.334   9.931  1.1897 -0.5337  0.7688
    2CHL1   C11  108   6.358   0.413  10.124  0.4878  0.1776  0.0187
    2CHL1  H11A  109   6.388   0.514  10.158 -2.1395  1.6828 -1.7552
    2CHL1  H11B  110   6.264   0.394  10.182  1.4130 -1.4025  1.0837
    2CHL1    C9  111   6.449   0.298  10.171 -0.6665  1.1883  0.2569
    2CHL1    H9  112   6.397   0.205  10.137 -0.9897  1.2882  0.4748
    2CHL1   C10  113   6.460   0.279  10.331  0.3262  0.2077  0.5808
    2CHL1   C19  114   6.497   0.419  10.386  0.5836  0.2788  0.3072
    2CHL1  H19A  115   6.424   0.489  10.340 -0.8593 -1.0946  0.3919
    2CHL1  H19B  116   6.495   0.429  10.497  4.7194  0.1446  0.5336
    2CHL1  H19C  117   6.599   0.452  10.360  1.0676  0.1302  1.9425
    2CHL1    C1  118   6.324   0.227  10.379  0.3418 -0.2762  0.0850
    2CHL1   H1A  119   6.228   0.282  10.365  0.8276 -0.0296 -2.9612
    2CHL1   H1B  120   6.301   0.127  10.337  0.2019 -0.2154  0.0151
    2CHL1    C2  121   6.334   0.190  10.526 -0.4258  0.7203  0.8657
    2CHL1   H2A  122   6.249   0.128  10.561  0.7289 -1.6723 -0.3493
    2CHL1   H2B  123   6.334   0.289  10.578 -0.8800  1.0790  0.1889
    2CHL1   C20  124   6.432   0.530   9.660 -0.2071 -0.4898 -0.2150
    2CHL1   H20  125   6.497   0.618   9.679  2.6811 -2.3767 -0.6194
    2CHL1   C21  126   6.293   0.575   9.677 -0.3250 -0.0835 -0.0808
    2CHL1  H21A  127   6.216   0.495   9.672  0.5664 -0.9957  0.5851
    2CHL1  H21B  128   6.270   0.647   9.594 -2.0890 -0.3493  0.1321
    2CHL1  H21C  129   6.273   0.629   9.772  1.3241 -0.6346  0.6067
    2CHL1   C22  130   6.463   0.486   9.514  0.0341  0.0133  0.3331
    2CHL1  H22A  131   6.568   0.450   9.517 -0.6793 -2.1804  0.8367
    2CHL1  H22B  132   6.413   0.389   9.494  0.9043 -0.3794 -0.0034
    2CHL1   C23  133   6.459   0.589   9.403 -0.3360  0.1164  0.2762
    2CHL1  H23A  134   6.355   0.623   9.386 -0.0387  0.2313 -1.4112
    2CHL1  H23B  135   6.521   0.678   9.429 -0.4708  0.1661  0.4342
    2CHL1   C24  136   6.506   0.533   9.271 -0.2026  0.0363  0.0466
    2CHL1  H24A  137   6.608   0.571   9.248 -0.2840 -0.0506 -0.4792
    2CHL1  H24B  138   6.518   0.425   9.294  0.8998  0.1181 -0.1098
    2CHL1   C25  139   6.410   0.560   9.156 -0.0465  0.8884  0.6927
    2CHL1   H25  140   6.305   0.543   9.187 -0.2677 -0.5350 -0.6833
    2CHL1   C26  141   6.423   0.706   9.099  0.2601  0.0903 -0.7119
    2CHL1  H26A  142   6.524   0.717   9.055  0.7544  0.4718  0.4812
    2CHL1  H26B  143   6.352   0.733   9.018 -0.0599 -1.3940 -0.9478
    2CHL1  H26C  144   6.422   0.775   9.186 -1.7947 -0.6899 -0.0618
    2CHL1   C27  145   6.442   0.455   9.042  0.2412 -0.6457  0.0342
    2CHL1  H27A  146   6.373   0.464   8.955  2.1574  0.4158 -1.4589
    2CHL1  H27B  147   6.540   0.467   8.991  0.5129 -0.6816  0.5355
    2CHL1  H27C  148   6.449   0.355   9.090  4.0644 -0.9808 -0.8958
    3CHL1    C3  149   6.359   5.236  10.287  0.3097  0.1703 -0.4705
    3CHL1    H3  150   6.329   5.130  10.275  1.0331 -0.1759  0.6144
    3CHL1    O3  151   6.387   5.261  10.429  0.0689 -0.3293  0.2615
    3CHL1   H3'  152   6.466   5.215  10.458  0.9444  1.9682  1.8260
    3CHL1    C4  153   6.490   5.278  10.219 -0.0675 -1.2197  0.0210
    3CHL1   H4A  154   6.526   5.374  10.260 -0.7288  0.9685 -4.0174
    3CHL1   H4B  155   6.564   5.196  10.229  0.9576 -0.3920 -0.6503
    3CHL1    C5  156   6.476   5.288  10.067 -0.5721 -0.0572  0.1776
    3CHL1    C6  157   6.555   5.224   9.983 -0.3847 -0.0482 -0.6546
    3CHL1    H6  158   6.639   5.164  10.021 -1.2036  0.4634  2.2196
    3CHL1    C7  159   6.545   5.242   9.836  0.1290  0.5500  0.6663
    3CHL1   H7A  160   6.643   5.261   9.789 -1.5273  0.1236 -3.3007
    3CHL1   H7B  161   6.513   5.142   9.798  0.9799 -0.0814  1.5433
    3CHL1    C8  162   6.453   5.360   9.791  0.3333  0.5756  0.5557
    3CHL1    H8  163   6.512   5.452   9.815  2.3005 -0.5396  0.2150
    3CHL1   C14  164   6.423   5.339   9.639  0.1032 -0.5676 -0.6544
    3CHL1   H14  165   6.369   5.243   9.652 -0.5597 -0.4280 -2.1922
    3CHL1   C15  166   6.522   5.286   9.537 -0.1092  0.2403  0.4074
    3CHL1  H15A  167   6.614   5.347   9.549  1.2196 -1.6602  0.3180
    3CHL1  H15B  168   6.545   5.178   9.547 -1.1208 -0.3081 -2.2706
    3CHL1   C16  169   6.457   5.306   9.396  0.4468  0.1346 -0.3179
    3CHL1  H16A  170   6.531   5.368   9.341  3.0589 -4.2447 -2.2397
    3CHL1  H16B  171   6.451   5.206   9.349 -1.8263 -0.1341  0.4348
    3CHL1   C17  172   6.314   5.370   9.434 -0.1041 -0.3132  0.4281
    3CHL1   H17  173   6.256   5.277   9.450 -0.0930 -0.1995  1.1629
    3CHL1   C13  174   6.331   5.439   9.573 -0.0463 -0.1353  1.0801
    3CHL1   C18  175   6.397   5.576   9.551  0.0954  0.2838 -0.1206
    3CHL1  H18A  176   6.448   5.600   9.647 -2.6813  1.0575  1.2715
    3CHL1  H18B  177   6.482   5.561   9.480 -1.0166 -0.5332 -1.3236
    3CHL1  H18C  178   6.316   5.643   9.517 -1.8837 -2.1269 -0.4652
    3CHL1   C12  179   6.210   5.448   9.664 -0.0611  0.4541  0.0413
    3CHL1  H12A  180   6.135   5.520   9.625 -1.6266  1.3052  4.0917
    3CHL1  H12B  181   6.158   5.351   9.655  1.1577 -0.3696  1.5058
    3CHL1   C11  182   6.247   5.478   9.808  1.1974  0.7529  0.5659
    3CHL1  H11A  183   6.318   5.564   9.812  2.1070  0.1047 -0.8398
    3CHL1  H11B  184   6.156   5.491   9.870  0.0929  1.7851 -1.1712
    3CHL1    C9  185   6.331   5.360   9.873 -0.2001 -0.5333 -0.3191
    3CHL1    H9  186   6.273   5.267   9.855 -1.9529  0.5820 -0.6786
    3CHL1   C10  187   6.360   5.374  10.023  0.3381  0.4004  0.0570
    3CHL1   C19  188   6.377   5.521  10.056 -0.4644  0.1559 -0.5887
    3CHL1  H19A  189   6.289   5.585  10.033 -0.6392  0.3272  0.4864
    3CHL1  H19B  190   6.407   5.540  10.162  1.6258  1.1871 -1.3278
    3CHL1  H19C  191   6.462   5.559   9.997  0.1905  1.4881  1.1168
    3CHL1    C1  192   6.234   5.329  10.096  0.1523 -0.0718  0.0093
    3CHL1   H1A  193   6.155   5.394  10.054  0.4002  1.1970  1.4295
    3CHL1   H1B  194   6.206   5.224  10.071 -3.7676  0.4645  1.4506
    3CHL1    C2  195   6.238   5.332  10.248 -0.4605  0.2288 -0.4396
    3CHL1   H2A  196   6.142   5.294  10.290  1.1371  0.3380  3.8288
    3CHL1   H2B  197   6.255   5.434  10.290  2.4497 -1.2001  2.2007
    3CHL1   C20  198   6.241   5.437   9.317 -0.0605 -0.7071 -0.5902
    3CHL1   H20  199   6.162   5.507   9.353  0.2725 -1.5998  2.0303
    3CHL1   C21  200   6.172   5.335   9.229 -0.5255  0.3416 -0.0470
    3CHL1  H21A  201   6.255   5.279   9.180  0.7194  1.9799  0.0742
    3CHL1  H21B  202   6.102   5.388   9.160 -4.2412 -1.5491  1.9947
    3CHL1  H21C  203   6.103   5.269   9.285 -0.9383 -0.5546 -1.5628
    3CHL1   C22  204   6.337   5.514   9.229  0.5075 -0.4504 -0.2240
    3CHL1  H22A  205   6.395   5.588   9.288 -0.1688  0.1586 -0.3145
    3CHL1  H22B  206   6.410   5.444   9.183  0.1326  0.1869 -1.8230
    3CHL1   C23  207   6.269   5.607   9.124  1.0369  0.6997  0.3180
    3CHL1  H23A  208   6.239   5.544   9.038 -2.6360  0.7403  1.3962
    3CHL1  H23B  209   6.182   5.662   9.167  0.3525 -0.5056  0.5170
    3CHL1   C24  210   6.368   5.712   9.077  0.0440  0.1133 -0.6030
    3CHL1  H24A  211   6.390   5.765   9.172 -2.2165 -0.0599  0.0857
    3CHL1  H24B  212   6.465   5.677   9.036  0.3695  1.2929 -0.8717
    3CHL1   C25  213   6.309   5.807   8.973  0.0126 -0.0194 -0.5562
    3CHL1   H25  214   6.220   5.862   9.010  1.5016  1.3122  1.2419
    3CHL1   C26  215   6.421   5.913   8.946 -0.5362  0.1172 -0.2325
    3CHL1  H26A  216   6.383   5.976   8.863  3.3604  1.0206 -1.5630
    3CHL1  H26B  217   6.430   5.977   9.036 -2.2185  0.5596 -0.3544
    3CHL1  H26C  218   6.518   5.865   8.920  0.7819  1.7513  1.3968
    3CHL1   C27  219   6.256   5.747   8.846 -0.2097 -0.2522  1.3846
    3CHL1  H27A  220   6.344   5.702   8.795  0.0603  0.9242  0.7975
    3CHL1  H27B  221   6.177   5.671   8.863  0.1915 -1.1175 -0.3588
    3CHL1  H27C  222   6.216   5.817   8.770  1.7599 -0.1520  0.3800
    4CHL1    C3  223   0.061   2.274  10.198 -0.1155  0.1958  0.3478
    4CHL1    H3  224   0.017   2.179  10.162  1.4797 -0.7300  0.7524
    4CHL1    O3  225   0.079   2.263  10.338 -0.4907  0.2083 -0.0391
    4CHL1   H3'  226   0.129   2.181  10.335 -1.1484 -0.1879 -1.3368
    4CHL1    C4  227   0.192   2.306  10.123 -0.3722 -0.5054  0.4685
    4CHL1   H4A  228   0.226   2.404  10.163  0.5679 -1.1764  1.3513
    4CHL1   H4B  229   0.266   2.230  10.156  1.8129  0.9268 -0.8324
    4CHL1    C5  230   0.186   2.318   9.975 -0.7520  0.0736  0.6343
    4CHL1    C6  231   0.248   2.230   9.897  0.8345 -0.1089  0.4336
    4CHL1    H6  232   0.319   2.159   9.944 -1.5594 -1.6273  2.0037
    4CHL1    C7  233   0.246   2.233   9.751  0.0797 -0.2857  0.7527
    4CHL1   H7A  234   0.346   2.212   9.707  0.3631  0.6673  0.9188
    4CHL1   H7B  235   0.176   2.156   9.714  2.5259 -2.5909  0.5789
    4CHL1    C8  236   0.195   2.370   9.699  0.4243 -0.2946 -0.4122
    4CHL1    H8  237   0.269   2.452   9.703 -0.4350  0.4750  2.9732
    4CHL1   C14  238   0.151   2.353   9.556 -0.8864  0.7866 -0.2935
    4CHL1   H14  239   0.080   2.269   9.544  1.3758 -1.1499 -0.9940
    4CHL1   C15  240   0.266   2.312   9.465 -0.0643 -0.1323  0.0907
    4CHL1  H15A  241   0.350   2.384   9.475  0.2105 -0.2789 -1.0609
    4CHL1  H15B  242   0.299   2.207   9.478 -1.2888 -1.0402 -3.1696
    4CHL1   C16  243   0.210   2.330   9.323  0.3714  0.1194  0.0997
    4CHL1  H16A  244   0.277   2.397   9.265  1.5245 -0.5527  0.6382
    4CHL1  H16B  245   0.187   2.232   9.278  0.1536 -1.1675  2.8044
    4CHL1   C17  246   0.074   2.410   9.343  0.0663  0.0619  0.2838
    4CHL1   H17  247  -0.013   2.340   9.338  0.2634 -0.1371 -0.6271
    4CHL1   C13  248   0.084   2.469   9.487 -0.7122  0.0367  0.6537
    4CHL1   C18  249   0.177   2.594   9.479 -0.1831 -0.0938 -0.0897
    4CHL1  H18A  250   0.123   2.670   9.419 -2.1536  0.4492  2.1908
    4CHL1  H18B  251   0.186   2.646   9.576  1.5123  1.3716 -0.9889
    4CHL1  H18C  252   0.281   2.574   9.445 -0.1522 -0.0921  0.0044
    4CHL1   C12  253  -0.048   2.489   9.564  0.1202 -0.3323 -0.6297
    4CHL1  H12A  254  -0.109   2.572   9.523  1.9454  0.4604 -1.9184
    4CHL1  H12B  255  -0.116   2.401   9.558  0.1584 -0.5032  1.0569
    4CHL1   C11  256  -0.015   2.528   9.714  0.0671  0.5385  0.0226
    4CHL1  H11A  257   0.043   2.623   9.713  1.2275 -0.1368 -1.7171
    4CHL1  H11B  258  -0.117   2.526   9.759  0.1898 -2.5652  0.3287
    4CHL1    C9  259   0.066   2.408   9.778 -0.0318  0.5383  0.1809
    4CHL1    H9  260  -0.003   2.320   9.770  1.6213 -0.6519 -2.2964
    4CHL1   C10  261   0.091   2.423   9.925  0.1230 -0.3139 -0.4320
    4CHL1   C19  262   0.143   2.566   9.965  0.9859 -0.0679  0.1464
    4CHL1  H19A  263   0.195   2.577  10.063 -1.1522  2.3633  1.1447
    4CHL1  H19B  264   0.197   2.610   9.879 -0.6642  1.5615 -0.1176
    4CHL1  H19C  265   0.051   2.627   9.975  0.6617 -0.5961  0.3803
    4CHL1    C1  266  -0.041   2.390  10.011 -0.4594  0.4349 -0.2297
    4CHL1   H1A  267  -0.130   2.454   9.991  1.1029  3.1103  0.8666
    4CHL1   H1B  268  -0.073   2.287   9.984 -3.6191  0.8968  1.2122
    4CHL1    C2  269  -0.034   2.390  10.168  0.3692  0.1941  0.1385
    4CHL1   H2A  270  -0.134   2.362  10.208 -0.0953 -0.5943 -1.4795
    4CHL1   H2B  271   0.009   2.485  10.204 -0.2429  0.6789 -0.3838
    4CHL1   C20  272   0.043   2.507   9.227 -0.4922  0.4397  0.4623
    4CHL1   H20  273   0.120   2.587   9.226 -0.7787  0.7235 -0.6551
    4CHL1   C21  274  -0.093   2.574   9.247  0.0156 -0.7132 -0.7835
    4CHL1  H21A  275  -0.087   2.639   9.337 -1.8343  0.2880 -1.3456
    4CHL1  H21B  276  -0.167   2.492   9.260  0.1750 -0.6589  0.6546
    4CHL1  H21C  277  -0.116   2.644   9.164  0.0690  0.1551 -0.0705
    4CHL1   C22  278   0.030   2.426   9.099 -0.4477 -0.0892  0.1311
    4CHL1  H22A  279   0.126   2.371   9.083 -0.1152  0.5024  0.0383
    4CHL1  H22B  280  -0.056   2.356   9.095 -1.7892  1.5222 -0.4287
    4CHL1   C23  281   0.018   2.507   8.969  0.0820  0.6011  0.3953
    4CHL1  H23A  282  -0.079   2.561   8.974 -0.6914 -0.8395  3.0775
    4CHL1  H23B  283   0.103   2.578   8.958  0.9525 -0.2387  1.5248
    4CHL1   C24  284   0.040   2.412   8.842  0.2150  0.2899  0.3968
    4CHL1  H24A  285   0.133   2.355   8.862 -1.3001 -2.1466  0.8404
    4CHL1  H24B  286  -0.044   2.340   8.843 -0.1393  0.7009  0.6507
    4CHL1   C25  287   0.052   2.490   8.709  0.8646  0.2879  0.3301
    4CHL1   H25  288   0.113   2.576   8.744  0.7680  0.1086  0.9565
    4CHL1   C26  289   0.118   2.413   8.598 -0.2779 -0.2231 -0.0390
    4CHL1  H26A  290   0.229   2.408   8.610 -0.1972 -0.4231 -0.8301
    4CHL1  H26B  291   0.084   2.307   8.596 -0.3819 -0.1840 -0.3950
    4CHL1  H26C  292   0.102   2.460   8.499  2.3859 -1.3262 -1.1064
    4CHL1   C27  293  -0.087   2.530   8.651 -0.5998  0.3716  0.9962
    4CHL1  H27A  294  -0.140   2.599   8.720  1.6324  3.3127 -0.0165
    4CHL1  H27B  295  -0.081   2.574   8.549 -2.4588 -1.1622  0.1521
    4CHL1  H27C  296  -0.148   2.438   8.634  1.0030 -0.3673 -1.3209
    5CHL1    C3  297   0.274   6.397  10.311  0.4900 -0.0967  0.6448
    5CHL1    H3  298   0.324   6.490  10.275 -0.6489 -0.2486 -1.5111
    5CHL1    O3  299   0.268   6.389  10.452 -0.5895  0.4402 -0.0300
    5CHL1   H3'  300   0.354   6.390  10.494 -1.0719 -1.7596  1.1799
    5CHL1    C4  301   0.127   6.400  10.261 -0.3521 -0.6640  0.0667
    5CHL1   H4A  302   0.072   6.320  10.314 -1.0188  0.5134  1.2056
    5CHL1   H4B  303   0.097   6.504  10.287  2.6853  0.5722 -0.8567
    5CHL1    C5  304   0.102   6.389  10.111  0.1292 -0.5777  0.1919
    5CHL1    C6  305   0.042   6.482  10.036  0.1468 -0.7778  0.6863
    5CHL1    H6  306  -0.013   6.567  10.079 -1.2694 -1.2154 -0.1658
    5CHL1    C7  307   0.036   6.483   9.881  0.7325  0.9056 -0.1541
    5CHL1   H7A  308  -0.052   6.534   9.836  1.2585  2.0029  0.0111
    5CHL1   H7B  309   0.129   6.532   9.845  0.6799  1.4071  0.3726
    5CHL1    C8  310   0.057   6.331   9.826 -0.3480 -0.6574 -0.1219
    5CHL1    H8  311  -0.037   6.282   9.857 -1.1874  1.4878  0.9868
    5CHL1   C14  312   0.074   6.329   9.675 -0.2375  0.1911 -0.8270
    5CHL1   H14  313   0.162   6.393   9.653  0.4518  0.2655  1.8306
    5CHL1   C15  314  -0.037   6.401   9.598  0.3718 -0.3086  0.1141
    5CHL1  H15A  315  -0.130   6.369   9.649  1.1160 -0.4484  1.4383
    5CHL1  H15B  316  -0.043   6.512   9.590 -1.4514 -0.4619 -1.0684
    5CHL1   C16  317  -0.031   6.336   9.459  0.1568  0.3020 -0.3883
    5CHL1  H16A  318  -0.128   6.283   9.446 -0.2724  0.3982  2.0707
    5CHL1  H16B  319  -0.012   6.408   9.376 -0.1650  1.2924  0.3772
    5CHL1   C17  320   0.086   6.223   9.462 -0.1235  0.6740  0.4975
    5CHL1   H17  321   0.181   6.278   9.446 -0.1000  0.5330  0.1267
    5CHL1   C13  322   0.092   6.188   9.613 -0.3205 -0.1767 -0.0507
    5CHL1   C18  323  -0.024   6.095   9.650  0.3061 -0.3184 -0.3466
    5CHL1  H18A  324  -0.108   6.118   9.582  2.1388  0.1792 -2.5793
    5CHL1  H18B  325   0.008   5.992   9.623 -0.6870 -0.7189 -0.0227
    5CHL1  H18C  326  -0.047   6.105   9.758 -1.4402 -1.4760 -0.5751
    5CHL1   C12  327   0.225   6.139   9.671 -1.1858  0.6767 -0.5408
    5CHL1  H12A  328   0.259   6.039   9.636 -1.1614  0.9105 -1.1902
    5CHL1  H12B  329   0.311   6.201   9.638  0.4308 -1.9060 -1.4893
    5CHL1   C11  330   0.224   6.133   9.827  0.4876  0.1852  0.0037
    5CHL1  H11A  331   0.140   6.063   9.848 -0.2037  0.4543 -1.7400
    5CHL1  H11B  332   0.313   6.087   9.874 -0.0454 -2.8249 -1.6332
    5CHL1    C9  333   0.182   6.268   9.890  0.4126  0.0825 -0.1193
    5CHL1    H9  334   0.260   6.339   9.857  0.4661 -0.6027 -1.5517
    5CHL1   C10  335   0.174   6.263  10.045  0.8406 -0.3380 -0.2797
    5CHL1   C19  336   0.097   6.142  10.102  0.4062 -0.6562 -0.0403
    5CHL1  H19A  337   0.110   6.128  10.212  2.0504 -0.4402 -0.1912
    5CHL1  H19B  338  -0.004   6.151  10.055  0.9832  1.3744 -1.0054
    5CHL1  H19C  339   0.147   6.049  10.068  1.3433 -0.0070 -0.5046
    5CHL1    C1  340   0.324   6.269  10.094 -0.1395  0.0038  0.4636
    5CHL1   H1A  341   0.377   6.189  10.039 -0.3991  1.0701 -1.4103
    5CHL1   H1B  342   0.365   6.360  10.045  1.8893 -2.0280 -1.8841
    5CHL1    C2  343   0.356   6.280  10.240  0.1372 -0.1743 -0.0213
    5CHL1   H2A  344   0.465   6.295  10.255 -0.2361  1.9346  0.9417
    5CHL1   H2B  345   0.314   6.196  10.300  0.2965  0.8362  1.5509
    5CHL1   C20  346   0.071   6.110   9.359  0.2060  0.4178 -0.0363
    5CHL1   H20  347  -0.018   6.048   9.381 -0.1051  1.3152  1.4302
    5CHL1   C21  348   0.205   6.029   9.374 -0.2155 -1.5431  0.3748
    5CHL1  H21A  349   0.230   5.990   9.272  0.1961  2.3362 -1.1758
    5CHL1  H21B  350   0.192   5.946   9.447 -3.6823 -2.2007 -0.7873
    5CHL1  H21C  351   0.290   6.097   9.395  0.7801 -1.1177 -4.0001
    5CHL1   C22  352   0.048   6.164   9.220 -0.1862  0.4923  0.2834
    5CHL1  H22A  353   0.010   6.083   9.153 -1.7547  0.5246  1.0809
    5CHL1  H22B  354  -0.027   6.246   9.223 -1.5204 -0.6799 -0.0750
    5CHL1   C23  355   0.176   6.218   9.154 -0.2024  0.4450  0.2930
    5CHL1  H23A  356   0.248   6.266   9.224  0.0445  1.3192 -0.5337
    5CHL1  H23B  357   0.243   6.134   9.124 -2.6938 -1.2699 -0.7604
    5CHL1   C24  358   0.159   6.310   9.029  0.1198 -0.0613 -0.1882
    5CHL1  H24A  359   0.088   6.267   8.956  0.9656 -0.8176 -0.5920
    5CHL1  H24B  360   0.108   6.398   9.074 -3.7966 -1.8148 -0.8075
    5CHL1   C25  361   0.286   6.350   8.955  0.4635  0.2504 -0.0846
    5CHL1   H25  362   0.369   6.370   9.027 -0.2779  0.5144  0.7267
    5CHL1   C26  363   0.324   6.239   8.863  0.0965 -0.0438  0.7200
    5CHL1  H26A  364   0.420   6.266   8.814 -1.0666  2.6180 -0.2774
    5CHL1  H26B  365   0.343   6.144   8.918  2.0882 -1.7329 -2.5563
    5CHL1  H26C  366   0.257   6.211   8.779  1.4421  2.4261 -1.3297
    5CHL1   C27  367   0.256   6.480   8.873  0.6381  0.3796  0.1730
    5CHL1  H27A  368   0.273   6.563   8.944  0.4538 -1.7306  2.8572
    5CHL1  H27B  369   0.330   6.478   8.791 -1.0385 -1.4972 -1.4229
    5CHL1  H27C  370   0.160   6.484   8.818  1.4574  2.2767 -1.2101
    6CHL1    C3  371   5.423   5.950  10.409 -0.5920 -0.0994 -0.3108
    6CHL1    H3  372   5.503   6.027  10.413  0.3833 -1.0696 -0.6718
    6CHL1    O3  373   5.384   5.910  10.544  0.0896 -0.3396  0.1723
    6CHL1   H3'  374   5.463   5.872  10.585  0.7945  0.4154 -0.4471
    6CHL1    C4  375   5.290   5.996  10.333 -0.7235 -1.0434  0.3380
    6CHL1   H4A  376   5.204   5.928  10.353 -0.7016 -1.3648 -0.6022
    6CHL1   H4B  377   5.272   6.095  10.379  0.0581 -2.1349  3.1772
    6CHL1    C5  378   5.309   5.988  10.186  0.3419 -0.0647 -0.4085
    6CHL1    C6  379   5.284   6.091  10.110  0.5992  0.1963 -0.0262
    6CHL1    H6  380   5.251   6.182  10.163  0.2244  0.1547 -0.1849
    6CHL1    C7  381   5.294   6.095   9.956  0.0318 -0.6890  0.2249
    6CHL1   H7A  382   5.202   6.139   9.912  1.4926  1.5179 -0.7954
    6CHL1   H7B  383   5.377   6.164   9.930  1.3740 -1.3445  2.5281
    6CHL1    C8  384   5.317   5.948   9.902  0.1865  0.3269 -0.8173
    6CHL1    H8  385   5.220   5.895   9.909  0.2525  0.4066  0.9780
    6CHL1   C14  386   5.352   5.969   9.759 -0.1889 -0.6981  0.3026
    6CHL1   H14  387   5.447   6.023   9.778 -0.0716 -1.5588  2.4536
    6CHL1   C15  388   5.268   6.057   9.666  0.1888 -0.3720 -0.7099
    6CHL1  H15A  389   5.159   6.075   9.678  0.5118  1.3154 -0.0044
    6CHL1  H15B  390   5.296   6.162   9.688  0.8458 -0.9697  1.5785
    6CHL1   C16  391   5.309   6.025   9.522  0.0340 -0.1811 -0.2965
    6CHL1  H16A  392   5.221   5.996   9.461  0.2022  1.7043 -1.5119
    6CHL1  H16B  393   5.358   6.112   9.476 -1.9747 -0.4139 -3.0948
    6CHL1   C17  394   5.407   5.903   9.538 -0.4509  0.4697  0.2496
    6CHL1   H17  395   5.505   5.955   9.550 -0.5074  0.7270 -0.3330
    6CHL1   C13  396   5.373   5.834   9.680 -0.1654  0.4843 -0.2077
    6CHL1   C18  397   5.243   5.743   9.668 -0.2314 -0.1494  0.6859
    6CHL1  H18A  398   5.163   5.797   9.613 -0.6542 -0.9504  0.5038
    6CHL1  H18B  399   5.267   5.644   9.624  2.1120 -0.2018  1.9275
    6CHL1  H18C  400   5.204   5.729   9.771  1.5932 -0.5354  1.3615
    6CHL1   C12  401   5.495   5.764   9.754  0.3690 -0.0623 -0.2613
    6CHL1  H12A  402   5.513   5.668   9.701  0.4985  0.8107 -1.8549
    6CHL1  H12B  403   5.580   5.833   9.739  0.6597  0.2505  2.2880
    6CHL1   C11  404   5.468   5.741   9.905 -0.1478 -0.0832 -0.1198
    6CHL1  H11A  405   5.391   5.661   9.905 -0.5908  0.3372 -0.0966
    6CHL1  H11B  406   5.558   5.702   9.956 -1.1077 -1.5491  0.5038
    6CHL1    C9  407   5.421   5.879   9.980 -0.4155  0.1771  0.6441
    6CHL1    H9  408   5.508   5.947   9.974 -1.3498  1.3142 -0.5953
    6CHL1   C10  409   5.378   5.855  10.129 -0.2406  0.4641  0.9228
    6CHL1   C19  410   5.271   5.741  10.130  0.7715 -0.5670  0.0469
    6CHL1  H19A  411   5.179   5.763  10.072  0.4625 -2.7478 -0.3620
    6CHL1  H19B  412   5.321   5.649  10.092  0.6646 -0.8760  0.6433
    6CHL1  H19C  413   5.239   5.730  10.236  0.0132 -0.4852 -0.1673
    6CHL1    C1  414   5.501   5.823  10.208  0.2165  0.5798 -0.1325
    6CHL1   H1A  415   5.531   5.719  10.182 -1.2977 -0.8468  3.2369
    6CHL1   H1B  416   5.577   5.901  10.186 -0.0918  0.8578 -0.2136
    6CHL1    C2  417   5.475   5.816  10.359  0.9255 -0.4148 -0.8431
    6CHL1   H2A  418   5.571   5.790  10.409  0.2636 -0.4583  0.4169
    6CHL1   H2B  419   5.401   5.735  10.373  1.0008 -0.3151  0.2192
    6CHL1   C20  420   5.419   5.828   9.411 -0.2974 -0.1761 -0.3386
    6CHL1   H20  421   5.317   5.799   9.379 -1.0468  2.1754 -0.2555
    6CHL1   C21  422   5.507   5.710   9.435  0.2486 -0.2691 -0.1959
    6CHL1  H21A  423   5.600   5.739   9.487  0.5771  1.8982 -1.8553
    6CHL1  H21B  424   5.524   5.654   9.341  1.5294 -1.2580  0.6082
    6CHL1  H21C  425   5.463   5.634   9.503  1.3743 -0.0766  0.7797
    6CHL1   C22  426   5.489   5.913   9.300  0.6553 -0.6201  0.3857
    6CHL1  H22A  427   5.454   6.019   9.306 -0.1446 -0.5176 -3.4787
    6CHL1  H22B  428   5.598   5.916   9.323  0.3107 -0.6714  2.1617
    6CHL1   C23  429   5.454   5.865   9.159 -0.1164  0.1599  0.7059
    6CHL1  H23A  430   5.501   5.768   9.134 -3.9773 -1.4137 -1.2723
    6CHL1  H23B  431   5.344   5.851   9.148 -0.0385  0.8250 -1.4834
    6CHL1   C24  432   5.504   5.976   9.058 -0.0566  0.1037 -0.6181
    6CHL1  H24A  433   5.455   6.070   9.091  1.6636  1.4705 -1.8059
    6CHL1  H24B  434   5.613   5.986   9.074 -0.2924  0.8768  0.6055
    6CHL1   C25  435   5.463   5.954   8.911 -0.2063 -0.0133 -0.2608
    6CHL1   H25  436   5.483   5.850   8.880  0.6365 -0.3614  1.3454
    6CHL1   C26  437   5.319   5.988   8.888 -0.6867  0.3207  0.4804
    6CHL1  H26A  438   5.256   5.917   8.947 -0.2064 -1.6038 -1.2221
    6CHL1  H26B  439   5.295   6.093   8.918 -1.5785  0.7835 -1.6926
    6CHL1  H26C  440   5.291   5.965   8.783 -1.1054  2.1190  0.1740
    6CHL1   C27  441   5.543   6.048   8.806 -0.2567  0.3769  0.3877
    6CHL1  H27A  442   5.526   6.004   8.705  0.5688 -0.3434  0.5583
    6CHL1  H27B  443   5.501   6.151   8.816 -0.2681  0.4760 -0.5690
    6CHL1  H27C  444   5.651   6.051   8.831 -0.5402 -0.4049  1.7926
    7CHL1    C3  445   1.678   0.874   9.957  0.5256  0.0957  0.8957
    7CHL1    H3  446   1.787   0.852   9.963  0.6436  0.0925 -0.7522
    7CHL1    O3  447   1.611   0.862  10.085  0.4749 -0.7014  0.1085
    7CHL1   H3'  448   1.521   0.890  10.066  1.0690  1.2288 -0.0251
    7CHL1    C4  449   1.658   1.021   9.900  0.4124 -0.0727 -0.1806
    7CHL1   H4A  450   1.548   1.034   9.899  0.0603 -2.6247 -0.6419
    7CHL1   H4B  451   1.712   1.098   9.959 -0.9117  1.4748 -0.9207
    7CHL1    C5  452   1.697   1.030   9.752  0.0043 -0.3491 -0.2498
    7CHL1    C6  453   1.784   1.122   9.716 -0.3843 -0.4283 -0.8102
    7CHL1    H6  454   1.824   1.188   9.794  0.6432  0.1968 -1.8433
    7CHL1    C7  455   1.842   1.128   9.580 -0.1429 -0.1957 -0.1499
    7CHL1   H7A  456   1.855   1.235   9.553 -1.0519 -0.1853 -0.5877
    7CHL1   H7B  457   1.938   1.072   9.580 -0.3089 -0.5021  0.7815
    7CHL1    C8  458   1.746   1.074   9.468 -0.6377  0.0445 -0.6880
    7CHL1    H8  459   1.651   1.129   9.455 -0.7410 -0.0795 -0.4641
    7CHL1   C14  460   1.812   1.066   9.331  0.1812  0.9590  0.0531
    7CHL1   H14  461   1.898   0.999   9.354 -1.0375 -0.6450  0.1251
    7CHL1   C15  462   1.880   1.192   9.272  0.3753 -0.4057 -0.6524
    7CHL1  H15A  463   1.812   1.279   9.280  1.9439  0.7477  0.8290
    7CHL1  H15B  464   1.980   1.218   9.313 -0.7005  0.2269  1.7146
    7CHL1   C16  465   1.898   1.139   9.123  0.2036 -0.7058 -0.1079
    7CHL1  H16A  466   1.853   1.220   9.062  2.4738 -0.0848 -1.0486
    7CHL1  H16B  467   2.006   1.150   9.099  0.8284  0.7100  2.8576
    7CHL1   C17  468   1.832   1.002   9.103  0.4083 -0.7085  0.2344
    7CHL1   H17  469   1.913   0.928   9.120  0.8575 -0.3494 -0.2985
    7CHL1   C13  470   1.735   0.993   9.222  0.2527  0.2690  1.2622
    7CHL1   C18  471   1.602   1.074   9.187 -0.8745  0.2290 -0.1029
    7CHL1  H18A  472   1.619   1.181   9.159  0.9717 -0.1976 -0.7557
    7CHL1  H18B  473   1.533   1.026   9.115  0.8718 -4.6130  1.1161
    7CHL1  H18C  474   1.547   1.066   9.283  0.1733  1.9378  0.7112
    7CHL1   C12  475   1.711   0.857   9.268 -0.7620  0.6463  0.1011
    7CHL1  H12A  476   1.651   0.794   9.199  1.5048 -2.4167  0.6816
    7CHL1  H12B  477   1.806   0.799   9.276  0.2704  1.9528 -1.9603
    7CHL1   C11  478   1.637   0.859   9.403  0.6203  0.0087  0.1414
    7CHL1  H11A  479   1.532   0.892   9.388  0.1566 -1.7888 -0.7660
    7CHL1  H11B  480   1.636   0.756   9.444 -1.5219  0.1352  0.5324
    7CHL1    C9  481   1.708   0.932   9.516 -0.3048 -0.4427 -0.2744
    7CHL1    H9  482   1.812   0.894   9.531  0.5975  1.6412 -0.8072
    7CHL1   C10  483   1.643   0.924   9.653 -0.3113  0.2086 -0.5008
    7CHL1   C19  484   1.494   0.961   9.632 -0.2004 -0.5467  0.1049
    7CHL1  H19A  485   1.437   0.887   9.572  2.0331 -1.6501 -0.7442
    7CHL1  H19B  486   1.437   0.952   9.727 -1.5832  0.4304 -0.5974
    7CHL1  H19C  487   1.480   1.060   9.584 -2.4374 -0.6589  0.4047
    7CHL1    C1  488   1.649   0.783   9.715 -0.0728  0.3671 -0.3996
    7CHL1   H1A  489   1.603   0.708   9.646 -0.2904  0.8942 -0.8367
    7CHL1   H1B  490   1.757   0.758   9.718  0.1785  1.4173  3.0808
    7CHL1    C2  491   1.604   0.771   9.863  0.0355  0.0003  0.1918
    7CHL1   H2A  492   1.613   0.667   9.900 -0.2673 -0.2583 -0.4404
    7CHL1   H2B  493   1.498   0.799   9.880  0.0216 -0.9647  1.9034
    7CHL1   C20  494   1.781   0.984   8.959  0.4091  0.4509  0.1563
    7CHL1   H20  495   1.700   1.060   8.945 -0.9503 -0.7174  1.3609
    7CHL1   C21  496   1.713   0.841   8.945 -0.1990 -0.8338  0.7749
    7CHL1  H21A  497   1.785   0.765   8.982  1.8696  0.5789 -0.1588
    7CHL1  H21B  498   1.679   0.816   8.843 -2.6910  2.2649  0.7069
    7CHL1  H21C  499   1.624   0.842   9.011  0.9703 -2.4046  2.4947
    7CHL1   C22  500   1.886   1.007   8.854  0.4042  0.4428  0.2298
    7CHL1  H22A  501   1.956   1.092   8.868  0.5945  0.3283 -0.0210
    7CHL1  H22B  502   1.956   0.921   8.852  0.9385  0.8651  0.5415
    7CHL1   C23  503   1.822   1.017   8.712 -0.4135 -0.1784 -0.6928
    7CHL1  H23A  504   1.848   0.919   8.667  1.5350  0.1248 -0.3033
    7CHL1  H23B  505   1.712   1.029   8.713 -0.3970  0.1463 -1.6432
    7CHL1   C24  506   1.880   1.124   8.616  1.2212  0.1691 -0.1259
    7CHL1  H24A  507   1.988   1.128   8.642  0.2627 -0.4034  4.7403
    7CHL1  H24B  508   1.863   1.110   8.507  0.8513 -0.4916  0.0106
    7CHL1   C25  509   1.812   1.259   8.641  0.0360  0.5137 -0.2296
    7CHL1   H25  510   1.806   1.278   8.751 -0.7652 -0.4830 -0.0847
    7CHL1   C26  511   1.903   1.371   8.595  0.3615 -0.6512 -0.0679
    7CHL1  H26A  512   1.913   1.354   8.486  1.8566 -0.6651  0.0499
    7CHL1  H26B  513   1.868   1.476   8.606  0.3442 -0.6088 -0.5238
    7CHL1  H26C  514   2.004   1.362   8.642 -0.5533 -2.1006  1.7478
    7CHL1   C27  515   1.668   1.285   8.587  1.0696  0.4580 -0.3989
    7CHL1  H27A  516   1.637   1.386   8.620 -2.0026 -0.7088  0.7026
    7CHL1  H27B  517   1.665   1.275   8.477 -1.3368 -0.0120 -0.3490
    7CHL1  H27C  518   1.592   1.214   8.626  2.0460 -0.0613  0.6090
    8CHL1    C3  519   0.805   3.003  10.234  0.2274  0.3669 -0.0310
    8CHL1    H3  520   0.898   2.950  10.205  1.8378  2.9843 -0.0478
    8CHL1    O3  521   0.800   3.006  10.379  0.2600 -0.1095  0.0772
    8CHL1   H3'  522   0.717   3.052  10.398 -0.6002 -1.5548 -0.0280
    8CHL1    C4  523   0.810   3.142  10.173  0.3167 -1.2763  1.0140
    8CHL1   H4A  524   0.725   3.204  10.208 -0.0122 -1.1186 -0.0232
    8CHL1   H4B  525   0.904   3.190  10.206 -1.2705  1.4908  1.8531
    8CHL1    C5  526   0.810   3.134  10.021  0.4188  0.5094 -0.2576
    8CHL1    C6  527   0.904   3.181   9.936  0.4475 -1.0754  0.1458
    8CHL1    H6  528   0.993   3.233   9.975  0.1336 -0.3011 -0.1545
    8CHL1    C7  529   0.900   3.175   9.785 -0.0375  0.8112  0.6669
    8CHL1   H7A  530   0.943   3.268   9.741 -1.4611  1.6713  1.0637
    8CHL1   H7B  531   0.955   3.083   9.753  0.2161 -0.4198  4.2494
    8CHL1    C8  532   0.756   3.148   9.729 -0.2261 -0.0169  0.3224
    8CHL1    H8  533   0.698   3.242   9.736  0.2338  0.2533  0.5212
    8CHL1   C14  534   0.768   3.111   9.579 -0.8176 -0.0243 -0.2897
    8CHL1   H14  535   0.823   3.015   9.588 -0.6538  0.1410  0.6257
    8CHL1   C15  536   0.846   3.199   9.479 -0.0032 -0.1343 -0.0719
    8CHL1  H15A  537   0.809   3.300   9.507 -0.3718 -0.3743  0.3279
    8CHL1  H15B  538   0.956   3.186   9.489  0.0111  0.6848  1.0624
    8CHL1   C16  539   0.793   3.156   9.348  0.0092 -0.1431 -0.5269
    8CHL1  H16A  540   0.755   3.245   9.294  0.5324 -0.0629 -0.7706
    8CHL1  H16B  541   0.876   3.113   9.287  1.1335 -1.5898  1.8716
    8CHL1   C17  542   0.682   3.051   9.363  0.2153 -0.0405 -0.0767
    8CHL1   H17  543   0.729   2.950   9.365 -1.3966 -0.8089  1.9552
    8CHL1   C13  544   0.633   3.079   9.510 -0.3146  0.3835  0.1427
    8CHL1   C18  545   0.540   3.195   9.510 -0.7139  0.3696 -0.7835
    8CHL1  H18A  546   0.548   3.242   9.610 -0.7909 -0.3253 -0.4497
    8CHL1  H18B  547   0.569   3.273   9.436 -2.3524  0.2427 -1.6133
    8CHL1  H18C  548   0.437   3.158   9.488 -0.8054 -1.3300  2.1019
    8CHL1   C12  549   0.576   2.959   9.589  0.5456 -0.2515  0.2780
    8CHL1  H12A  550   0.472   2.942   9.552 -0.1450 -2.1571  2.7634
    8CHL1  H12B  551   0.642   2.871   9.573  1.0467  0.1776 -0.0283
    8CHL1   C11  552   0.560   2.989   9.741  0.3699  0.1886  0.3242
    8CHL1  H11A  553   0.502   3.084   9.739 -1.5128 -0.9097 -1.0080
    8CHL1  H11B  554   0.503   2.908   9.793  2.3534 -0.9486  0.8128
    8CHL1    C9  555   0.695   3.030   9.804  0.1523 -0.3000 -0.2367
    8CHL1    H9  556   0.758   2.939   9.795 -2.2179 -2.0336 -0.2690
    8CHL1   C10  557   0.688   3.056   9.957  0.0026  0.5130  0.0607
    8CHL1   C19  558   0.555   3.139   9.982  0.1612 -0.5202  0.0046
    8CHL1  H19A  559   0.544   3.177  10.086  1.5999  0.0113 -0.0144
    8CHL1  H19B  560   0.538   3.229   9.921  1.0921 -0.5223 -0.2801
    8CHL1  H19C  561   0.473   3.066   9.961 -0.7868  0.0252  1.6276
    8CHL1    C1  562   0.668   2.918  10.033  0.9950 -0.4477 -0.5791
    8CHL1   H1A  563   0.569   2.881  10.000  0.5179  0.7548 -0.5596
    8CHL1   H1B  564   0.749   2.853   9.995 -0.7886 -1.7918 -2.2554
    8CHL1    C2  565   0.684   2.928  10.189  0.0014  0.0806 -0.0739
    8CHL1   H2A  566   0.690   2.824  10.229 -0.4974  0.7229  1.7418
    8CHL1   H2B  567   0.594   2.979  10.227  0.4620  0.8682 -0.0177
    8CHL1   C20  568   0.584   3.053   9.248 -0.2699  0.7022  0.0988
    8CHL1   H20  569   0.549   3.157   9.231  0.9260  1.5445  2.3662
    8CHL1   C21  570   0.466   2.965   9.280  0.1597 -0.3569 -0.2913
    8CHL1  H21A  571   0.402   2.971   9.190  0.3072  0.1534 -0.3659
    8CHL1  H21B  572   0.411   2.996   9.371 -1.5171  1.2789 -1.7919
    8CHL1  H21C  573   0.493   2.860   9.307 -0.4944 -0.3565  0.3961
    8CHL1   C22  574   0.653   3.002   9.111 -0.3874 -0.2945 -0.3169
    8CHL1  H22A  575   0.734   2.934   9.145  0.5051 -0.0231 -1.7937
    8CHL1  H22B  576   0.582   2.935   9.057  2.3198 -2.3550 -1.5412
    8CHL1   C23  577   0.711   3.118   9.027  0.6127  0.1815 -0.4406
    8CHL1  H23A  578   0.631   3.194   9.035  0.5630  0.1059 -0.2135
    8CHL1  H23B  579   0.803   3.162   9.072  1.3491  0.6863 -2.3311
    8CHL1   C24  580   0.760   3.080   8.890 -0.6869  0.0381  0.1508
    8CHL1  H24A  581   0.842   3.004   8.895 -1.7428 -1.1723 -0.2773
    8CHL1  H24B  582   0.670   3.036   8.841 -0.8379  0.1397  0.3398
    8CHL1   C25  583   0.807   3.205   8.805  0.3483  0.2441 -0.4303
    8CHL1   H25  584   0.884   3.252   8.870 -0.0616  1.2239 -0.6365
    8CHL1   C26  585   0.860   3.168   8.663  0.1029 -0.2058  0.0484
    8CHL1  H26A  586   0.790   3.120   8.591  0.3898 -1.9521  0.8818
    8CHL1  H26B  587   0.889   3.260   8.608 -1.4416  0.4614  0.3108
    8CHL1  H26C  588   0.950   3.103   8.667  0.1638 -0.1542 -0.4295
    8CHL1   C27  589   0.696   3.306   8.793  0.3627  0.3086 -0.0866
    8CHL1  H27A  590   0.599   3.257   8.768  1.1939 -1.5362  0.1821
    8CHL1  H27B  591   0.676   3.352   8.892 -1.4576 -1.3647  0.3694
    8CHL1  H27C  592   0.715   3.385   8.717 -1.4947  0.3992 -0.5172
    9CHL1    C3  593   4.249   6.341  10.495  0.3397  0.1074  0.8410
    9CHL1    H3  594   4.188   6.253  10.466  0.3575  0.2588  0.3139
    9CHL1    O3  595   4.253   6.320  10.634  0.6930  0.0888 -0.0287
    9CHL1   H3'  596   4.163   6.292  10.653 -0.0809  1.5219 -1.3869
    9CHL1    C4  597   4.395   6.329  10.441  0.2472 -0.4515 -0.4741
    9CHL1   H4A  598   4.455   6.417  10.472  2.3434 -1.7747 -0.5458
    9CHL1   H4B  599   4.443   6.243  10.493  0.5159  0.3903  0.7122
    9CHL1    C5  600   4.398   6.340  10.292  0.6134  0.1373 -0.1666
    9CHL1    C6  601   4.456   6.252  10.212  0.2618 -0.0891  0.5650
    9CHL1    H6  602   4.500   6.166  10.263 -0.5420 -0.3051  0.9127
    9CHL1    C7  603   4.463   6.256  10.058  0.2212 -0.6735 -0.7169
    9CHL1   H7A  604   4.563   6.237  10.014  0.2997 -2.0568 -0.0011
    9CHL1   H7B  605   4.397   6.177  10.017  0.8004 -2.1540  1.0654
    9CHL1    C8  606   4.425   6.402  10.007 -0.1485  0.3586 -0.2598
    9CHL1    H8  607   4.498   6.483  10.031  0.0681  0.0683  0.0667
    9CHL1   C14  608   4.406   6.403   9.861  0.3673  0.7839  0.6921
    9CHL1   H14  609   4.316   6.339   9.847  0.5857 -0.0799  2.8766
    9CHL1   C15  610   4.523   6.346   9.776  0.2102 -0.6602 -0.7286
    9CHL1  H15A  611   4.616   6.400   9.805 -0.5424  0.2862 -0.0023
    9CHL1  H15B  612   4.526   6.235   9.782 -0.7187 -0.6591 -0.0033
    9CHL1   C16  613   4.495   6.395   9.638 -0.2688  0.5412  0.0892
    9CHL1  H16A  614   4.574   6.446   9.579 -0.2712  1.0349  0.4967
    9CHL1  H16B  615   4.466   6.300   9.589 -0.7047  1.0979 -0.7547
    9CHL1   C17  616   4.370   6.491   9.644  0.9000  0.0769 -0.3475
    9CHL1   H17  617   4.275   6.433   9.636  1.0256 -0.0102 -1.3573
    9CHL1   C13  618   4.366   6.535   9.793  0.6455 -0.8493 -0.0252
    9CHL1   C18  619   4.473   6.643   9.819 -0.1213  0.1825 -0.0992
    9CHL1  H18A  620   4.447   6.739   9.768 -0.1085 -0.1318 -0.7134
    9CHL1  H18B  621   4.489   6.671   9.925 -1.0405 -0.1004  0.1226
    9CHL1  H18C  622   4.572   6.611   9.780  0.2474 -2.4912  2.7105
    9CHL1   C12  623   4.230   6.575   9.862  0.6198 -0.9580  0.2110
    9CHL1  H12A  624   4.181   6.666   9.821  0.1052 -0.0299  2.6978
    9CHL1  H12B  625   4.162   6.493   9.830 -0.1137 -0.7830  1.2870
    9CHL1   C11  626   4.243   6.583  10.012  0.1763  0.2679 -0.3327
    9CHL1  H11A  627   4.318   6.659  10.042  0.6188 -0.7883  1.3718
    9CHL1  H11B  628   4.147   6.609  10.061 -0.4190  0.3431 -1.4981
    9CHL1    C9  629   4.296   6.455  10.080 -0.0727  0.3511 -0.5338
    9CHL1    H9  630   4.222   6.375  10.055  1.5974 -0.9411 -1.5631
    9CHL1   C10  631   4.323   6.470  10.235 -0.1060  0.1885 -0.0821
    9CHL1   C19  632   4.416   6.597  10.267 -0.5568 -0.1010  1.0646
    9CHL1  H19A  633   4.440   6.598  10.375 -1.7079  1.7712  1.3488
    9CHL1  H19B  634   4.505   6.598  10.200 -0.1732  0.9571  1.5756
    9CHL1  H19C  635   4.353   6.686  10.249  0.6017  0.4703 -0.4003
    9CHL1    C1  636   4.187   6.496  10.304  0.8423 -0.1634 -0.3765
    9CHL1   H1A  637   4.141   6.595  10.279  0.4959  0.6183  2.8800
    9CHL1   H1B  638   4.115   6.419  10.270  1.9323 -0.3889 -2.3275
    9CHL1    C2  639   4.189   6.475  10.458 -0.2050 -0.4002 -0.0015
    9CHL1   H2A  640   4.094   6.494  10.512  1.0281  1.8746  1.5246
    9CHL1   H2B  641   4.251   6.557  10.502 -1.2644 -0.4704  1.6783
    9CHL1   C20  642   4.372   6.606   9.539  0.4348  0.7049 -0.3400
    9CHL1   H20  643   4.444   6.681   9.579 -0.7359  1.6202  0.1032
    9CHL1   C21  644   4.235   6.684   9.536  0.1180  0.1903  1.1905
    9CHL1  H21A  645   4.150   6.626   9.579 -1.3661  0.1299 -1.6029
    9CHL1  H21B  646   4.211   6.710   9.431  1.3811  1.0557  1.1035
    9CHL1  H21C  647   4.247   6.779   9.591  2.3100  0.3702  0.4903
    9CHL1   C22  648   4.415   6.549   9.398 -0.1854  0.0528 -0.3447
    9CHL1  H22A  649   4.434   6.637   9.333  1.4576 -0.2913 -0.3585
    9CHL1  H22B  650   4.504   6.483   9.388 -1.6754 -2.0663 -0.2774
    9CHL1   C23  651   4.298   6.463   9.335 -1.0621 -0.0495 -0.0398
    9CHL1  H23A  652   4.278   6.383   9.410  2.7106 -1.2498 -0.0754
    9CHL1  H23B  653   4.211   6.530   9.319 -0.1388  1.7466  1.9611
    9CHL1   C24  654   4.346   6.400   9.203  0.3011  0.0868  0.0458
    9CHL1  H24A  655   4.384   6.474   9.129 -0.3119 -0.9840 -1.3676
    9CHL1  H24B  656   4.425   6.323   9.217  1.5138  1.4812  1.2435
    9CHL1   C25  657   4.228   6.333   9.133 -0.3740  0.4616  0.4168
    9CHL1   H25  658   4.190   6.257   9.205 -0.0251 -2.1892 -2.0320
    9CHL1   C26  659   4.115   6.424   9.091  0.4091 -0.2217  0.8616
    9CHL1  H26A  660   4.142   6.474   8.995 -0.3853 -1.4278 -0.0142
    9CHL1  H26B  661   4.030   6.359   9.061  2.4082 -2.2814 -0.6939
    9CHL1  H26C  662   4.086   6.490   9.175  0.5385 -1.0987  1.6058
    9CHL1   C27  663   4.281   6.249   9.009 -0.3588  0.3317 -0.9138
    9CHL1  H27A  664   4.313   6.324   8.934  0.4842 -0.1553 -1.0557
    9CHL1  H27B  665   4.371   6.188   9.032 -0.7938  0.7116  2.3732
    9CHL1  H27C  666   4.208   6.182   8.959 -0.2842  1.1259 -2.1193
   10CHL1    C3  667   3.817   2.603  10.230 -0.4723 -0.2933 -0.1659
   10CHL1    H3  668   3.712   2.567  10.222 -1.2993  1.7077  0.8053
   10CHL1    O3  669   3.830   2.656  10.356 -0.5649  0.6567 -0.3726
   10CHL1   H3'  670   3.924   2.675  10.358 -0.6091  1.0299 -1.3142
   10CHL1    C4  671   3.925   2.498  10.207 -0.4775 -0.0905 -0.1229
   10CHL1   H4A  672   4.016   2.551  10.242  0.4583 -1.9548  0.3899
   10CHL1   H4B  673   3.924   2.416  10.281  0.5501  0.3494  0.3929
   10CHL1    C5  674   3.936   2.454  10.067 -0.3060 -0.4161 -0.0685
   10CHL1    C6  675   3.921   2.328  10.035 -0.2437  0.0043  0.4757
   10CHL1    H6  676   3.889   2.258  10.114 -1.3122  2.8003  2.6683
   10CHL1    C7  677   3.926   2.278   9.893 -0.3283  0.6827  0.3257
   10CHL1   H7A  678   3.985   2.184   9.891 -2.0802 -0.4718  0.5865
   10CHL1   H7B  679   3.823   2.259   9.857 -0.7635  1.4813  1.1000
   10CHL1    C8  680   3.993   2.376   9.788 -0.9965  0.4660  0.4819
   10CHL1    H8  681   4.100   2.372   9.819 -0.9006 -0.8522  0.0121
   10CHL1   C14  682   3.965   2.333   9.643 -0.6028 -0.2226 -0.3275
   10CHL1   H14  683   3.858   2.354   9.621  0.0108  4.1859 -0.0345
   10CHL1   C15  684   3.994   2.188   9.594 -0.7742  0.1120  0.1843
   10CHL1  H15A  685   4.100   2.168   9.623 -1.3127  0.4421  2.5968
   10CHL1  H15B  686   3.926   2.108   9.631  0.5866 -0.6557  1.1214
   10CHL1   C16  687   4.001   2.193   9.439 -0.2222 -0.5231 -0.2855
   10CHL1  H16A  688   4.098   2.146   9.411 -1.1109 -1.1007 -2.6360
   10CHL1  H16B  689   3.926   2.136   9.380  1.4289 -2.0972 -0.9693
   10CHL1   C17  690   4.012   2.346   9.401 -0.0420  0.0663 -0.0322
   10CHL1   H17  691   3.911   2.384   9.374  1.1320  2.4161 -1.4085
   10CHL1   C13  692   4.041   2.418   9.539 -0.2729  0.3898 -0.5920
   10CHL1   C18  693   4.193   2.417   9.554  0.1575  0.0471  0.6595
   10CHL1  H18A  694   4.235   2.458   9.648  1.5208  2.0384 -0.7337
   10CHL1  H18B  695   4.221   2.309   9.552 -0.3489 -0.0927 -1.3242
   10CHL1  H18C  696   4.255   2.465   9.475 -0.2265  1.7759  1.3676
   10CHL1   C12  697   3.989   2.563   9.556  0.2636  0.4254 -0.2033
   10CHL1  H12A  698   4.040   2.628   9.482  1.0157  0.2414  0.1406
   10CHL1  H12B  699   3.880   2.559   9.533 -0.1012  3.8760  0.3223
   10CHL1   C11  700   3.999   2.618   9.697 -1.2691 -0.2455 -0.2440
   10CHL1  H11A  701   4.105   2.647   9.714 -0.8072 -1.3794 -1.0402
   10CHL1  H11B  702   3.933   2.706   9.710 -1.2855 -0.1167 -1.1502
   10CHL1    C9  703   3.953   2.519   9.816 -0.0045 -0.0556 -0.1421
   10CHL1    H9  704   3.844   2.505   9.803  0.3459 -3.4357 -0.2059
   10CHL1   C10  705   3.966   2.571   9.966 -0.3405 -0.6532 -0.1359
   10CHL1   C19  706   4.111   2.628   9.991 -0.1585  0.6297 -0.6472
   10CHL1  H19A  707   4.128   2.720   9.932  3.4310 -0.2491 -1.1550
   10CHL1  H19B  708   4.121   2.652  10.099 -1.3025 -0.0155 -0.3821
   10CHL1  H19C  709   4.190   2.561   9.952 -0.1780 -0.2990  0.8216
   10CHL1    C1  710   3.853   2.669   9.988 -0.7973 -0.3856 -0.9667
   10CHL1   H1A  711   3.860   2.761   9.927  1.6563 -0.8921 -1.5524
   10CHL1   H1B  712   3.754   2.630   9.954 -0.8417  0.3760 -1.7485
   10CHL1    C2  713   3.842   2.724  10.134  0.2229 -0.2599 -0.7453
   10CHL1   H2A  714   3.760   2.799  10.134  0.8307  0.5659 -3.9896
   10CHL1   H2B  715   3.931   2.780  10.168  0.3625 -0.9624  0.0877
   10CHL1   C20  716   4.102   2.368   9.282 -0.8038 -0.0391 -0.1411
   10CHL1   H20  717   4.208   2.345   9.307 -0.6197 -1.4145 -2.0052
   10CHL1   C21  718   4.106   2.512   9.240 -0.1406 -0.0923  0.4392
   10CHL1  H21A  719   4.164   2.568   9.316 -0.8218 -2.3537  2.7526
   10CHL1  H21B  720   4.004   2.555   9.224 -0.1749 -0.8324 -1.6688
   10CHL1  H21C  721   4.165   2.536   9.149  0.2787  0.7950  0.9375
   10CHL1   C22  722   4.070   2.276   9.159  0.4503  0.4230 -0.0786
   10CHL1  H22A  723   4.057   2.171   9.194 -0.7662  0.7287  0.4235
   10CHL1  H22B  724   3.977   2.316   9.115 -0.0592 -0.5009  0.1317
   10CHL1   C23  725   4.166   2.287   9.039 -0.2960  0.1224  0.3919
   10CHL1  H23A  726   4.193   2.391   9.014 -1.6098  0.2132 -0.7531
   10CHL1  H23B  727   4.264   2.236   9.057 -0.3476  0.1937  0.9069
   10CHL1   C24  728   4.116   2.224   8.914  0.3396 -0.2648  0.8507
   10CHL1  H24A  729   4.068   2.126   8.936  1.1449 -1.4440 -2.2049
   10CHL1  H24B  730   4.034   2.287   8.874  0.7233 -0.3988 -0.1631
   10CHL1   C25  731   4.221   2.195   8.808 -0.5228 -0.1706  0.3539
   10CHL1   H25  732   4.289   2.281   8.790  0.5970 -0.9793  0.6160
   10CHL1   C26  733   4.303   2.067   8.840  0.0207 -0.3740  0.4769
   10CHL1  H26A  734   4.237   1.979   8.827  1.5404 -1.2321 -2.3926
   10CHL1  H26B  735   4.381   2.047   8.763 -0.1925  0.6026 -0.0053
   10CHL1  H26C  736   4.344   2.063   8.943 -1.8105 -2.2436  1.2005
   10CHL1   C27  737   4.149   2.163   8.676 -0.5971 -0.2684  0.3965
   10CHL1  H27A  738   4.214   2.166   8.586 -0.3509  0.2649  0.5869
   10CHL1  H27B  739   4.109   2.060   8.682 -0.5626 -0.2392  1.2596
   10CHL1  H27C  740   4.063   2.228   8.650 -1.5184 -1.4938  0.2829
   11CHL1    C3  741   5.770   6.296  10.111  0.1652  0.6155 -0.0644
   11CHL1    H3  742   5.661   6.311  10.121  0.4400  1.8168  1.5501
   11CHL1    O3  743   5.816   6.263  10.247 -0.1499 -0.0464  0.2533
   11CHL1   H3'  744   5.906   6.229  10.237 -0.9230 -1.6396 -2.1089
   11CHL1    C4  745   5.812   6.183  10.013  0.9271 -0.8831  0.6886
   11CHL1   H4A  746   5.922   6.173  10.025  1.2537  1.3211  0.0330
   11CHL1   H4B  747   5.764   6.090  10.049 -0.8405  0.2178  1.3197
   11CHL1    C5  748   5.791   6.219   9.869 -0.6671 -0.3505 -0.3058
   11CHL1    C6  749   5.722   6.137   9.788  0.6476  0.2863  0.1713
   11CHL1    H6  750   5.702   6.037   9.829  1.0167 -0.5505 -1.5901
   11CHL1    C7  751   5.696   6.159   9.639 -0.1174  0.5312 -0.0636
   11CHL1   H7A  752   5.732   6.071   9.582  0.6412 -0.3558  1.7157
   11CHL1   H7B  753   5.587   6.159   9.619 -0.1044 -0.9200 -0.2274
   11CHL1    C8  754   5.768   6.285   9.582 -0.2122  0.7526  0.0064
   11CHL1    H8  755   5.872   6.257   9.555 -0.1909  1.1588 -0.3523
   11CHL1   C14  756   5.711   6.327   9.451 -0.3827  0.0812  0.4982
   11CHL1   H14  757   5.607   6.360   9.471 -0.6295  0.5954 -1.4463
   11CHL1   C15  758   5.693   6.225   9.342 -0.9652 -0.1150 -0.0407
   11CHL1  H15A  759   5.785   6.167   9.318 -0.0819  0.9341  0.6958
   11CHL1  H15B  760   5.615   6.153   9.375 -1.0209 -1.0291 -2.0248
   11CHL1   C16  761   5.649   6.313   9.225  0.5887 -0.2328  0.4972
   11CHL1  H16A  762   5.700   6.266   9.138 -0.9849 -0.9081 -0.1065
   11CHL1  H16B  763   5.540   6.293   9.212  0.8735 -1.8297  0.3760
   11CHL1   C17  764   5.680   6.466   9.256  0.2001 -0.6741  0.9777
   11CHL1   H17  765   5.580   6.509   9.274  0.3180 -0.0753  0.2508
   11CHL1   C13  766   5.763   6.457   9.383 -0.3673  0.8791 -0.1409
   11CHL1   C18  767   5.912   6.431   9.345 -0.1211 -0.3036  0.1071
   11CHL1  H18A  768   5.987   6.411   9.424  1.9622  0.9945 -1.4322
   11CHL1  H18B  769   5.913   6.355   9.264 -2.0471 -0.1024 -0.1737
   11CHL1  H18C  770   5.953   6.529   9.312 -1.4525  0.3329  0.2816
   11CHL1   C12  771   5.746   6.568   9.492 -0.9372  0.1421  0.2807
   11CHL1  H12A  772   5.788   6.666   9.459  0.1713 -0.3117  0.3035
   11CHL1  H12B  773   5.636   6.581   9.507 -0.9538 -0.9837  1.2912
   11CHL1   C11  774   5.817   6.533   9.624  0.6024  0.3967 -0.1587
   11CHL1  H11A  775   5.925   6.520   9.603  1.1259  1.9735  1.3680
   11CHL1  H11B  776   5.810   6.618   9.695  1.5446  1.5417 -1.3936
   11CHL1    C9  777   5.767   6.400   9.681  0.3867  0.2285 -0.0276
   11CHL1    H9  778   5.657   6.412   9.690 -0.1529 -0.0963 -4.2431
   11CHL1   C10  779   5.829   6.362   9.821  0.3620 -0.4087  0.3560
   11CHL1   C19  780   5.983   6.367   9.803  0.7364 -0.1430 -0.0248
   11CHL1  H19A  781   6.027   6.469   9.795  2.6199 -1.0535 -2.6484
   11CHL1  H19B  782   6.033   6.309   9.884  0.9768 -0.2840 -0.2698
   11CHL1  H19C  783   6.010   6.324   9.705 -0.2531 -1.8609  0.4132
   11CHL1    C1  784   5.784   6.463   9.925  0.0394  0.9910  0.3042
   11CHL1   H1A  785   5.829   6.564   9.913  1.3267  0.5760  1.3591
   11CHL1   H1B  786   5.675   6.485   9.921  0.3681  2.6253 -2.2046
   11CHL1    C2  787   5.824   6.429  10.067  0.1138  0.0670 -0.2254
   11CHL1   H2A  788   5.782   6.498  10.144 -3.8925 -2.7288  0.4099
   11CHL1   H2B  789   5.936   6.429  10.068  0.1343  0.2104 -1.3593
   11CHL1   C20  790   5.733   6.526   9.129  0.2180 -0.3191 -0.6835
   11CHL1   H20  791   5.817   6.466   9.087 -0.4731 -0.9790 -1.1433
   11CHL1   C21  792   5.777   6.678   9.152  0.4626 -0.2990 -0.3520
   11CHL1  H21A  793   5.818   6.715   9.056  0.6181 -1.1845 -0.6358
   11CHL1  H21B  794   5.862   6.690   9.223 -0.4701  2.0560  0.4354
   11CHL1  H21C  795   5.698   6.745   9.192 -0.0192 -0.7220 -0.5798
   11CHL1   C22  796   5.624   6.530   9.022 -0.1934 -0.6877 -0.1899
   11CHL1  H22A  797   5.558   6.440   9.022 -1.1396 -0.0230  0.6358
   11CHL1  H22B  798   5.552   6.608   9.056  1.8402 -0.0302  2.9822
   11CHL1   C23  799   5.667   6.567   8.880 -0.8817  0.1365 -0.5766
   11CHL1  H23A  800   5.725   6.662   8.880 -0.5340 -0.0691 -1.3285
   11CHL1  H23B  801   5.728   6.487   8.832 -0.9136  0.5947 -1.4023
   11CHL1   C24  802   5.554   6.580   8.786 -0.5508 -0.0453  0.3230
   11CHL1  H24A  803   5.505   6.481   8.771 -0.1384 -0.0406 -1.2832
   11CHL1  H24B  804   5.482   6.650   8.834  0.2165  0.0761  1.3156
   11CHL1   C25  805   5.600   6.639   8.649 -0.1718  0.3278 -0.4745
   11CHL1   H25  806   5.641   6.738   8.678 -0.2581  0.0777  0.5613
   11CHL1   C26  807   5.705   6.561   8.578 -1.0532 -0.4379  0.6145
   11CHL1  H26A  808   5.786   6.518   8.640  0.5262  1.1027 -0.3053
   11CHL1  H26B  809   5.656   6.470   8.537 -0.4366 -0.8389  0.7592
   11CHL1  H26C  810   5.753   6.623   8.500 -1.3543 -1.5702 -0.5039
   11CHL1   C27  811   5.482   6.666   8.554  0.5038 -0.2820 -0.2402
   11CHL1  H27A  812   5.422   6.572   8.559  0.1342 -0.0176  0.5246
   11CHL1  H27B  813   5.418   6.751   8.586 -2.1694 -2.1348 -0.2945
   11CHL1  H27C  814   5.526   6.684   8.454 -1.5798  1.3697 -0.9107
   12CHL1    C3  815   2.864   4.538  10.099  0.3285  1.0484 -0.1543
   12CHL1    H3  816   2.783   4.464  10.081  0.5779  1.0485 -1.3612
   12CHL1    O3  817   2.858   4.597  10.231  0.1894  0.6108  0.4913
   12CHL1   H3'  818   2.851   4.519  10.286  0.3339  0.3501  0.1457
   12CHL1    C4  819   2.989   4.448  10.088 -0.0373 -0.2079 -0.0251
   12CHL1   H4A  820   3.071   4.513  10.126 -0.5265  0.6656 -0.4305
   12CHL1   H4B  821   2.984   4.362  10.159  2.9780  0.5977  1.3253
   12CHL1    C5  822   3.026   4.395   9.948  0.1449 -0.0907 -0.7203
   12CHL1    C6  823   3.042   4.262   9.932  0.3320  0.1002 -0.2987
   12CHL1    H6  824   3.034   4.201  10.023  2.0855  0.0761 -0.1305
   12CHL1    C7  825   3.065   4.197   9.800 -0.6064  0.3009  0.3949
   12CHL1   H7A  826   3.144   4.120   9.810  1.0559  1.7797 -0.7969
   12CHL1   H7B  827   2.973   4.140   9.772 -0.1582  0.6736 -2.0463
   12CHL1    C8  828   3.091   4.298   9.686  0.2267 -0.2483  0.7775
   12CHL1    H8  829   3.197   4.329   9.702  0.0732  1.1281 -0.5784
   12CHL1   C14  830   3.076   4.231   9.548 -0.6398 -0.3561 -0.4957
   12CHL1   H14  831   2.973   4.190   9.548 -0.2677 -1.3421  0.4568
   12CHL1   C15  832   3.161   4.105   9.523  0.5993  0.4031  0.0204
   12CHL1  H15A  833   3.266   4.127   9.553  1.5143 -0.4700 -2.3358
   12CHL1  H15B  834   3.128   4.019   9.585 -0.2310  1.6974  1.4738
   12CHL1   C16  835   3.144   4.089   9.370 -0.5260 -0.1085 -0.0338
   12CHL1  H16A  836   3.246   4.072   9.330 -1.3993 -1.9848 -1.6374
   12CHL1  H16B  837   3.085   3.996   9.359 -1.9675  0.3725  2.6564
   12CHL1   C17  838   3.080   4.216   9.310  0.4842 -0.6810 -0.0475
   12CHL1   H17  839   2.972   4.190   9.309 -0.4884  2.6858  1.5464
   12CHL1   C13  840   3.093   4.322   9.424  0.8919  0.4341 -0.2220
   12CHL1   C18  841   3.233   4.388   9.407 -0.9548 -0.1692  0.6090
   12CHL1  H18A  842   3.305   4.305   9.394 -1.6103 -0.5548 -0.7242
   12CHL1  H18B  843   3.238   4.447   9.313  0.3026 -2.3572 -0.7659
   12CHL1  H18C  844   3.268   4.440   9.499  0.5721 -1.9729  1.1087
   12CHL1   C12  845   2.988   4.437   9.443  0.1826 -0.7360 -0.1936
   12CHL1  H12A  846   2.998   4.515   9.366  0.6820  2.1543  2.5923
   12CHL1  H12B  847   2.888   4.389   9.435 -0.8580  1.1761  0.7446
   12CHL1   C11  848   3.006   4.514   9.580 -0.0866 -0.9107  0.1612
   12CHL1  H11A  849   3.099   4.573   9.565 -0.9437  0.5516  0.4706
   12CHL1  H11B  850   2.925   4.589   9.587  0.1731 -0.7455  1.5190
   12CHL1    C9  851   2.998   4.417   9.697  0.1095  0.2629  0.0618
   12CHL1    H9  852   2.898   4.370   9.693  1.0374 -1.8865  0.8233
   12CHL1   C10  853   3.009   4.493   9.835  0.2720 -0.6871  0.6831
   12CHL1   C19  854   3.135   4.589   9.830  0.2499  0.2136 -0.1369
   12CHL1  H19A  855   3.139   4.632   9.932  1.1182 -1.7991  0.7157
   12CHL1  H19B  856   3.226   4.527   9.819 -0.2380 -0.1942 -2.5228
   12CHL1  H19C  857   3.120   4.668   9.753  0.2199  0.3895  0.0482
   12CHL1    C1  858   2.879   4.578   9.855 -0.6799 -0.7622 -0.2141
   12CHL1   H1A  859   2.873   4.652   9.772 -1.3278 -0.1898  0.3353
   12CHL1   H1B  860   2.797   4.504   9.839  1.2003 -3.2543  0.8983
   12CHL1    C2  861   2.861   4.645   9.990  0.0130 -0.2687  0.1403
   12CHL1   H2A  862   2.765   4.699   9.987  0.3241  0.5242 -5.1458
   12CHL1   H2B  863   2.935   4.725  10.013  0.2341 -0.8637  1.6079
   12CHL1   C20  864   3.118   4.252   9.163  0.0950 -0.5916 -0.5526
   12CHL1   H20  865   3.229   4.262   9.158  0.0699  0.7437  1.0526
   12CHL1   C21  866   3.044   4.376   9.112 -0.0357  0.1879  0.1834
   12CHL1  H21A  867   3.083   4.411   9.014 -0.1273  0.7526  0.3438
   12CHL1  H21B  868   3.057   4.461   9.182  0.0902 -1.3938  2.1785
   12CHL1  H21C  869   2.940   4.345   9.088  0.1860  0.3862 -1.0852
   12CHL1   C22  870   3.104   4.125   9.067  0.7241  0.0554 -0.3010
   12CHL1  H22A  871   3.171   4.044   9.103 -0.3525 -1.4112 -1.4467
   12CHL1  H22B  872   3.001   4.082   9.068  0.5332  0.5112  0.4069
   12CHL1   C23  873   3.135   4.150   8.916 -0.9540 -0.2706 -0.1486
   12CHL1  H23A  874   3.089   4.072   8.851  0.4751  0.7173 -2.4791
   12CHL1  H23B  875   3.101   4.249   8.877 -0.7489 -0.6928 -1.4691
   12CHL1   C24  876   3.288   4.154   8.893 -0.2365  0.5142 -0.9615
   12CHL1  H24A  877   3.346   4.211   8.969  1.2926 -1.2810 -0.7060
   12CHL1  H24B  878   3.335   4.054   8.905 -0.5322  0.5877  1.4771
   12CHL1   C25  879   3.320   4.197   8.747  0.3737 -0.2168  0.3840
   12CHL1   H25  880   3.297   4.305   8.734 -0.2954 -0.2689  1.0481
   12CHL1   C26  881   3.468   4.172   8.735 -0.0833 -0.2680 -0.1292
   12CHL1  H26A  882   3.523   4.235   8.808 -3.0531  0.6631  1.4558
   12CHL1  H26B  883   3.490   4.067   8.764 -3.0148 -0.7914  0.5532
   12CHL1  H26C  884   3.508   4.180   8.631  0.1281 -1.1992 -0.1325
   12CHL1   C27  885   3.238   4.105   8.654  0.3545  0.4379  0.4748
   12CHL1  H27A  886   3.256   3.995   8.665  3.2766  0.6610 -1.0865
   12CHL1  H27B  887   3.131   4.130   8.660 -0.2622 -1.1852 -2.0866
   12CHL1  H27C  888   3.282   4.132   8.556  1.3992 -1.2242  0.4368
   13CHL1    C3  889   1.086   6.290  10.206 -0.1488 -0.7986  0.0170
   13CHL1    H3  890   0.977   6.271  10.199  0.0277 -1.5068 -1.0216
   13CHL1    O3  891   1.130   6.333  10.337 -0.0128 -0.1672 -0.0151
   13CHL1   H3'  892   1.052   6.336  10.393  0.2605 -2.2989  0.5763
   13CHL1    C4  893   1.159   6.159  10.162 -0.8072  0.3323  0.8908
   13CHL1   H4A  894   1.268   6.175  10.171 -0.5523  0.6060 -1.7777
   13CHL1   H4B  895   1.130   6.078  10.232 -2.8937 -1.7598 -2.1090
   13CHL1    C5  896   1.134   6.118  10.017 -0.2224 -0.0070 -0.4310
   13CHL1    C6  897   1.075   6.003   9.982  0.9239  0.3205 -0.0422
   13CHL1    H6  898   1.047   5.931  10.061 -0.7067  1.5686  0.5685
   13CHL1    C7  899   1.037   5.970   9.841 -1.0911 -0.5394  1.4920
   13CHL1   H7A  900   1.068   5.863   9.831 -0.5739 -0.1935 -1.2980
   13CHL1   H7B  901   0.929   5.966   9.815 -0.4333  0.4213 -1.8462
   13CHL1    C8  902   1.112   6.057   9.736  0.0187 -0.0302  0.9875
   13CHL1    H8  903   1.216   6.017   9.742 -0.4785 -1.5952 -0.3022
   13CHL1   C14  904   1.057   6.040   9.594 -0.2325  0.2935  0.3367
   13CHL1   H14  905   0.949   6.067   9.599 -0.5860 -1.1743  3.6707
   13CHL1   C15  906   1.052   5.898   9.546  0.4800 -0.0469 -0.5750
   13CHL1  H15A  907   1.140   5.841   9.582 -0.0992  0.0619  1.0839
   13CHL1  H15B  908   0.978   5.837   9.601  1.7394 -0.4708  0.7269
   13CHL1   C16  909   1.049   5.904   9.394 -0.0649 -0.6825 -0.2834
   13CHL1  H16A  910   1.133   5.841   9.357  1.4825  0.5111  1.0589
   13CHL1  H16B  911   0.954   5.859   9.358  0.6393 -0.0884 -3.0679
   13CHL1   C17  912   1.056   6.053   9.360  0.4760  0.3528 -0.0654
   13CHL1   H17  913   0.953   6.095   9.361 -0.1244 -1.0653  1.2227
   13CHL1   C13  914   1.124   6.123   9.486 -0.7903 -0.9625  0.6951
   13CHL1   C18  915   1.271   6.095   9.474 -0.7099  0.1226  0.4997
   13CHL1  H18A  916   1.319   6.108   9.573 -1.9949  1.5691  0.9712
   13CHL1  H18B  917   1.293   5.993   9.435 -2.0782  0.5985 -1.7161
   13CHL1  H18C  918   1.332   6.156   9.404 -0.7801  0.1692  0.4783
   13CHL1   C12  919   1.094   6.266   9.519  0.3165 -0.2351 -0.3186
   13CHL1  H12A  920   1.140   6.332   9.442  0.5392  0.6853  0.5754
   13CHL1  H12B  921   0.984   6.282   9.523  0.4372  0.6906 -0.4249
   13CHL1   C11  922   1.155   6.305   9.654 -0.3429 -0.4404  0.0249
   13CHL1  H11A  923   1.266   6.306   9.651 -0.2926  1.3851  0.8810
   13CHL1  H11B  924   1.120   6.408   9.678 -1.1647 -1.2404  2.6193
   13CHL1    C9  925   1.104   6.209   9.772  0.4040  0.2802  0.0005
   13CHL1    H9  926   0.994   6.219   9.779  0.2998  0.0979 -1.1667
   13CHL1   C10  927   1.163   6.233   9.914 -0.2500  0.0033 -0.5400
   13CHL1   C19  928   1.319   6.251   9.899  0.0781  0.9242 -0.1102
   13CHL1  H19A  929   1.359   6.167   9.839 -1.3326 -0.8852  1.3685
   13CHL1  H19B  930   1.352   6.340   9.841  0.9556  0.5884 -0.1336
   13CHL1  H19C  931   1.365   6.258   9.999  0.1152  0.0061 -0.0543
   13CHL1    C1  932   1.093   6.364   9.964  0.6009  0.2594  0.1649
   13CHL1   H1A  933   1.138   6.449   9.909  1.4223 -0.2735 -0.0088
   13CHL1   H1B  934   0.984   6.365   9.941  0.6360  0.3167 -0.0070
   13CHL1    C2  935   1.116   6.404  10.113 -0.2741  0.1040 -0.0853
   13CHL1   H2A  936   1.059   6.499  10.127  0.0376  0.4784 -1.1769
   13CHL1   H2B  937   1.223   6.432  10.125 -0.3432  2.0918 -2.8748
   13CHL1   C20  938   1.115   6.082   9.220  0.5971  0.2712 -0.4320
   13CHL1   H20  939   1.226   6.083   9.226  0.5629  2.3438  1.4575
   13CHL1   C21  940   1.076   6.223   9.175 -0.3687 -0.1915  0.3848
   13CHL1  H21A  941   1.122   6.237   9.075 -0.3773 -5.0384 -0.5450
   13CHL1  H21B  942   1.123   6.292   9.248  1.0061 -1.8767  1.1867
   13CHL1  H21C  943   0.966   6.236   9.168 -0.4196 -0.7721  0.0213
   13CHL1   C22  944   1.074   5.983   9.106  0.3938  0.6983  0.1759
   13CHL1  H22A  945   1.117   5.884   9.130 -0.5950 -0.5066 -2.5299
   13CHL1  H22B  946   0.965   5.960   9.104  0.5352 -0.1052 -2.4527
   13CHL1   C23  947   1.113   6.021   8.962 -0.0042 -0.2438  0.4128
   13CHL1  H23A  948   1.053   5.948   8.904 -3.2094  1.0466  1.8265
   13CHL1  H23B  949   1.073   6.122   8.936  1.9288  0.9429  1.7845
   13CHL1   C24  950   1.265   6.013   8.942  0.3341 -0.0640 -0.1764
   13CHL1  H24A  951   1.309   6.097   9.001 -2.3682  1.1161  0.2852
   13CHL1  H24B  952   1.310   5.921   8.986 -2.4603 -1.9116 -0.9932
   13CHL1   C25  953   1.311   6.017   8.796 -0.2275  0.0116  0.1304
   13CHL1   H25  954   1.255   5.928   8.759  2.1507 -1.3977 -0.2623
   13CHL1   C26  955   1.285   6.147   8.720  0.1545  0.1870 -0.3497
   13CHL1  H26A  956   1.324   6.143   8.616  3.0063 -1.0988  0.6423
   13CHL1  H26B  957   1.177   6.172   8.721 -0.6599 -2.8008 -1.8302
   13CHL1  H26C  958   1.338   6.224   8.780 -3.6886  2.5343  0.3950
   13CHL1   C27  959   1.465   5.987   8.793  0.6472 -0.0445 -0.7924
   13CHL1  H27A  960   1.479   5.879   8.817 -0.5421  0.0331  0.3948
   13CHL1  H27B  961   1.507   6.012   8.694 -0.4108  4.5617 -0.3401
   13CHL1  H27C  962   1.522   6.040   8.872 -0.5829 -2.6044  2.0429
   14CHL1    C3  963   0.820   1.412  10.008 -0.2379 -0.0360 -0.0113
   14CHL1    H3  964   0.915   1.356  10.002 -1.5097 -2.1336 -3.9758
   14CHL1    O3  965   0.775   1.396  10.140  0.7009  0.1736  0.2175
   14CHL1   H3'  966   0.781   1.475  10.194  0.4940 -0.3601  1.0515
   14CHL1    C4  967   0.828   1.561   9.966  0.5571 -0.6314  0.6772
   14CHL1   H4A  968   0.726   1.607   9.966  0.7131 -0.2742  0.2629
   14CHL1   H4B  969   0.890   1.619  10.038  1.9897 -2.0110  0.6019
   14CHL1    C5  970   0.875   1.578   9.822 -0.1463  0.0720 -0.0150
   14CHL1    C6  971   0.982   1.649   9.791  0.2564 -0.8175 -0.2517
   14CHL1    H6  972   1.033   1.704   9.872  0.2608  2.3166 -2.2074
   14CHL1    C7  973   1.035   1.682   9.652  0.4662 -0.5442 -0.2837
   14CHL1   H7A  974   1.056   1.790   9.641 -0.2900 -0.4029 -0.3920
   14CHL1   H7B  975   1.138   1.642   9.641  0.3351 -1.5230  1.6566
   14CHL1    C8  976   0.933   1.634   9.544 -0.3200 -0.3847 -0.3346
   14CHL1    H8  977   0.844   1.702   9.546 -2.7514 -3.2776 -1.5826
   14CHL1   C14  978   0.994   1.625   9.405 -0.4205  0.7480 -0.0960
   14CHL1   H14  979   1.081   1.560   9.426 -1.8685 -1.0290  0.7301
   14CHL1   C15  980   1.048   1.755   9.349 -0.7228 -0.0204 -0.1222
   14CHL1  H15A  981   0.971   1.833   9.333 -1.5461 -0.7657  0.1727
   14CHL1  H15B  982   1.131   1.802   9.406 -1.7393  0.8469  0.6925
   14CHL1   C16  983   1.083   1.712   9.210  0.9197 -0.1276  0.1612
   14CHL1  H16A  984   1.038   1.787   9.141  1.0286 -1.6816 -1.6915
   14CHL1  H16B  985   1.190   1.700   9.185  1.2390  0.6221  1.1365
   14CHL1   C17  986   1.002   1.582   9.178  0.1197 -0.0123 -0.6229
   14CHL1   H17  987   1.070   1.494   9.186 -1.3464 -1.1985 -0.7266
   14CHL1   C13  988   0.901   1.563   9.302 -0.0643  0.5132  0.5336
   14CHL1   C18  989   0.777   1.660   9.288  0.3468  0.0257  0.2589
   14CHL1  H18A  990   0.702   1.612   9.221 -0.2132 -0.0959  0.9736
   14CHL1  H18B  991   0.726   1.666   9.386 -0.7489 -0.3936 -0.2759
   14CHL1  H18C  992   0.806   1.763   9.259  1.1724 -0.3035 -0.1389
   14CHL1   C12  993   0.860   1.417   9.342 -0.3650  0.4301 -0.0975
   14CHL1  H12A  994   0.791   1.377   9.265  0.3379 -0.9922 -0.0057
   14CHL1  H12B  995   0.946   1.348   9.350 -1.5867 -1.3890 -1.7268
   14CHL1   C11  996   0.783   1.420   9.477  0.1477 -0.0083 -0.2059
   14CHL1  H11A  997   0.680   1.461   9.470  0.3668  0.5221 -0.3293
   14CHL1  H11B  998   0.793   1.315   9.512 -0.2526 -0.0892 -0.3257
   14CHL1    C9  999   0.864   1.497   9.585  0.3438 -0.4307  0.0645
   14CHL1    H9 1000   0.950   1.427   9.598  0.9008  0.5753  2.2771
   14CHL1   C10 1001   0.798   1.505   9.716  0.0889 -0.8057 -0.1847
   14CHL1   C19 1002   0.664   1.575   9.705 -0.6789  0.4400 -0.6173
   14CHL1  H19A 1003   0.592   1.502   9.661 -2.1324  1.4473  0.0155
   14CHL1  H19B 1004   0.615   1.600   9.801 -0.0027 -1.5319  0.2995
   14CHL1  H19C 1005   0.678   1.665   9.641 -0.4579  0.8025 -0.0635
   14CHL1    C1 1006   0.776   1.359   9.766  0.7369 -0.2285  0.5704
   14CHL1   H1A 1007   0.700   1.307   9.704  0.2532  1.6300 -0.4648
   14CHL1   H1B 1008   0.871   1.302   9.761  1.2382  0.6941 -1.6453
   14CHL1    C2 1009   0.727   1.352   9.909  0.0950 -0.3749  0.0904
   14CHL1   H2A 1010   0.704   1.247   9.936 -0.2212 -0.7036 -1.3388
   14CHL1   H2B 1011   0.631   1.403   9.929  0.9479  1.2727  0.1629
   14CHL1   C20 1012   0.948   1.586   9.030 -0.4625 -0.1316 -0.6032
   14CHL1   H20 1013   0.901   1.685   9.018  0.9014  0.5186 -0.7441
   14CHL1   C21 1014   0.847   1.472   9.002  0.4567  0.4998 -0.0929
   14CHL1  H21A 1015   0.804   1.485   8.900  0.9113  0.0248 -0.3496
   14CHL1  H21B 1016   0.762   1.466   9.073  0.9485 -0.9587  0.3884
   14CHL1  H21C 1017   0.897   1.374   9.010 -2.6455 -1.0448  2.7455
   14CHL1   C22 1018   1.057   1.577   8.918  0.0552 -0.1123  0.5132
   14CHL1  H22A 1019   1.141   1.632   8.964 -0.7916  1.4917  0.2067
   14CHL1  H22B 1020   1.087   1.471   8.904 -2.2150 -0.7975  0.5508
   14CHL1   C23 1021   1.010   1.645   8.784  0.3796  0.1558  0.5109
   14CHL1  H23A 1022   1.083   1.625   8.703 -0.3317 -1.4787  0.2318
   14CHL1  H23B 1023   0.912   1.599   8.757 -0.4731  0.8223  2.3140
   14CHL1   C24 1024   1.010   1.802   8.788  0.2413  0.2070 -0.1552
   14CHL1  H24A 1025   0.944   1.825   8.874  0.3529  0.8041 -0.2237
   14CHL1  H24B 1026   1.108   1.846   8.816 -0.6398  2.2162 -0.0735
   14CHL1   C25 1027   0.954   1.873   8.660  0.5800  0.4831  0.8626
   14CHL1   H25 1028   1.008   1.839   8.569 -1.0514  1.7735 -0.6813
   14CHL1   C26 1029   0.809   1.832   8.631 -0.3811 -0.2342 -0.1287
   14CHL1  H26A 1030   0.741   1.853   8.717  2.2159  1.5266  1.6599
   14CHL1  H26B 1031   0.771   1.886   8.542  0.1320  0.5907  0.1353
   14CHL1  H26C 1032   0.800   1.727   8.598 -1.1543  0.2550 -1.5352
   14CHL1   C27 1033   0.972   2.019   8.684  0.0333  0.3776 -0.0614
   14CHL1  H27A 1034   0.889   2.057   8.747 -0.7416 -0.5175 -0.5170
   14CHL1  H27B 1035   1.064   2.038   8.743  0.6260 -0.7682 -0.5923
   14CHL1  H27C 1036   0.981   2.068   8.584 -0.1060 -2.9505 -1.8312
   15CHL1    C3 1037   0.739   5.618   9.989  0.2357  0.5680 -0.2243
   15CHL1    H3 1038   0.818   5.696   9.983  0.1945  0.5364 -1.3936
   15CHL1    O3 1039   0.734   5.574  10.126  0.0183  0.0018  0.5502
   15CHL1   H3' 1040   0.670   5.503  10.132 -2.1700  1.7835 -0.4523
   15CHL1    C4 1041   0.611   5.686   9.953  0.2124  0.3191  1.1311
   15CHL1   H4A 1042   0.522   5.622   9.972  1.3617 -1.8106 -0.2593
   15CHL1   H4B 1043   0.588   5.772  10.019 -1.8259  1.5918 -1.0542
   15CHL1    C5 1044   0.606   5.744   9.809  0.2571  0.1543  0.9366
   15CHL1    C6 1045   0.591   5.873   9.780 -0.1404 -0.1319  0.0172
   15CHL1    H6 1046   0.568   5.947   9.858 -0.0162 -1.2854  1.1691
   15CHL1    C7 1047   0.594   5.935   9.640  0.2779 -0.2288  0.9010
   15CHL1   H7A 1048   0.499   5.987   9.616  0.3557  0.0541  1.1860
   15CHL1   H7B 1049   0.677   6.007   9.623  0.5260 -1.3263 -3.9385
   15CHL1    C8 1050   0.595   5.827   9.530 -0.4174 -0.0585 -0.2415
   15CHL1    H8 1051   0.488   5.797   9.524 -0.5227  0.0713  0.7924
   15CHL1   C14 1052   0.638   5.886   9.392 -0.6163 -0.0329  0.0787
   15CHL1   H14 1053   0.744   5.913   9.411 -0.9447  0.8569  0.7203
   15CHL1   C15 1054   0.577   6.012   9.347 -0.6177 -0.4144 -0.3018
   15CHL1  H15A 1055   0.473   6.034   9.380 -0.7308  1.4395 -1.7260
   15CHL1  H15B 1056   0.633   6.099   9.387  1.0903 -1.8148  0.4463
   15CHL1   C16 1057   0.601   6.010   9.196  0.7658  0.5408 -0.0166
   15CHL1  H16A 1058   0.503   6.015   9.145  0.3445 -4.1930 -0.0365
   15CHL1  H16B 1059   0.655   6.102   9.163  1.1159 -0.0960 -1.3072
   15CHL1   C17 1060   0.668   5.873   9.158 -0.2519 -0.0581 -0.8014
   15CHL1   H17 1061   0.778   5.884   9.170 -0.6061  0.6018  3.2769
   15CHL1   C13 1062   0.634   5.786   9.281  0.2462  0.4629  0.4762
   15CHL1   C18 1063   0.491   5.736   9.264 -0.4834 -0.3454  0.5437
   15CHL1  H18A 1064   0.413   5.813   9.244  0.6652  1.2054  1.7336
   15CHL1  H18B 1065   0.483   5.666   9.179 -2.3336 -1.9967  1.9833
   15CHL1  H18C 1066   0.459   5.688   9.359 -2.0379  2.5649  1.6157
   15CHL1   C12 1067   0.729   5.669   9.318  0.2525 -0.4338  0.3394
   15CHL1  H12A 1068   0.727   5.585   9.246  1.4660 -0.6939  0.5775
   15CHL1  H12B 1069   0.834   5.706   9.322 -0.1738  0.9410 -0.4996
   15CHL1   C11 1070   0.688   5.608   9.446  0.4705 -0.2073 -0.5269
   15CHL1  H11A 1071   0.596   5.548   9.432  1.4442 -2.1238  0.8563
   15CHL1  H11B 1072   0.757   5.526   9.475  2.1721  1.9275  1.9501
   15CHL1    C9 1073   0.680   5.706   9.567  0.0533 -0.5730 -1.1561
   15CHL1    H9 1074   0.783   5.744   9.587 -0.4317 -0.9740  2.8958
   15CHL1   C10 1075   0.635   5.644   9.702  0.6527 -0.2475 -0.1687
   15CHL1   C19 1076   0.506   5.557   9.695 -0.0106  0.0727 -0.8139
   15CHL1  H19A 1077   0.516   5.476   9.620 -0.7964  0.9351 -1.8801
   15CHL1  H19B 1078   0.491   5.501   9.789  0.9248  0.0092 -0.6859
   15CHL1  H19C 1079   0.421   5.626   9.681  0.8206  2.2260  3.1070
   15CHL1    C1 1080   0.751   5.549   9.752  0.2398  0.7106  0.5329
   15CHL1   H1A 1081   0.758   5.454   9.694 -0.2793  0.9053  0.1383
   15CHL1   H1B 1082   0.844   5.599   9.717 -1.5182  3.2988 -0.7917
   15CHL1    C2 1083   0.767   5.502   9.891  0.0882 -0.1127 -0.3617
   15CHL1   H2A 1084   0.859   5.449   9.923  0.2762  1.3697  1.7895
   15CHL1   H2B 1085   0.687   5.426   9.906  0.7451 -1.5507 -3.3098
   15CHL1   C20 1086   0.639   5.822   9.015  0.0588 -0.3828 -0.1453
   15CHL1   H20 1087   0.537   5.780   9.014 -0.8020  1.5934  0.1621
   15CHL1   C21 1088   0.741   5.708   8.990 -0.0529 -0.3405  0.0662
   15CHL1  H21A 1089   0.747   5.688   8.881  0.7538 -0.1364  0.0667
   15CHL1  H21B 1090   0.714   5.611   9.037 -0.9286 -0.5173 -0.7739
   15CHL1  H21C 1091   0.839   5.748   9.025 -0.8868  1.9267 -0.0672
   15CHL1   C22 1092   0.633   5.925   8.896  0.1198  0.0047  0.0201
   15CHL1  H22A 1093   0.589   5.889   8.801 -0.5220  2.6864 -0.7832
   15CHL1  H22B 1094   0.557   6.001   8.927  1.1238  0.6439  0.9945
   15CHL1   C23 1095   0.760   6.018   8.882  0.1515  0.1434  0.3469
   15CHL1  H23A 1096   0.805   6.045   8.980  1.3782 -0.2931 -0.0787
   15CHL1  H23B 1097   0.836   5.954   8.833  0.4093  0.7023  0.0101
   15CHL1   C24 1098   0.745   6.146   8.804  0.2217  0.1313 -0.5039
   15CHL1  H24A 1099   0.690   6.230   8.853  4.0892  1.4220  2.1960
   15CHL1  H24B 1100   0.851   6.177   8.794  0.7711 -2.0233 -2.0881
   15CHL1   C25 1101   0.704   6.134   8.649 -0.0645 -0.8704 -0.4301
   15CHL1   H25 1102   0.594   6.118   8.648 -0.3107  0.6668 -0.4609
   15CHL1   C26 1103   0.717   6.275   8.583  0.4232  0.2564  0.3697
   15CHL1  H26A 1104   0.825   6.301   8.577  0.8565 -0.8206  2.5455
   15CHL1  H26B 1105   0.671   6.282   8.482  0.2256 -0.0118  0.4404
   15CHL1  H26C 1106   0.662   6.348   8.647 -1.4747 -0.1250 -0.7373
   15CHL1   C27 1107   0.761   6.025   8.565 -0.2053 -0.0226 -0.0455
   15CHL1  H27A 1108   0.710   5.929   8.589 -0.3534  0.0931  0.1001
   15CHL1  H27B 1109   0.735   6.034   8.457 -1.3377 -0.5238  0.1650
   15CHL1  H27C 1110   0.871   6.019   8.579 -0.1192  1.5380  0.0909
   16CHL1    C3 1111   1.874   0.529  10.033  0.3762  0.5823  0.2638
   16CHL1    H3 1112   1.806   0.617  10.028 -3.4269 -1.9481  2.4318
   16CHL1    O3 1113   1.860   0.502  10.175  0.0544  0.1005 -0.2440
   16CHL1   H3' 1114   1.883   0.409  10.175  2.4869  0.5948 -2.4382
   16CHL1    C4 1115   1.805   0.419   9.953 -0.3033 -0.3510  0.9150
   16CHL1   H4A 1116   1.843   0.317   9.977 -0.7452 -0.8344 -0.3427
   16CHL1   H4B 1117   1.698   0.433   9.980  0.2672  0.5181  2.8997
   16CHL1    C5 1118   1.826   0.437   9.801  0.1052  0.3761  0.1042
   16CHL1    C6 1119   1.720   0.429   9.714 -1.2184 -0.5330 -0.7514
   16CHL1    H6 1120   1.620   0.413   9.756 -2.2220  2.8067 -1.6379
   16CHL1    C7 1121   1.737   0.466   9.568  0.6880  0.0465 -0.2182
   16CHL1   H7A 1122   1.663   0.399   9.519  0.9064 -1.3380  1.2313
   16CHL1   H7B 1123   1.709   0.572   9.551  0.3758 -0.1680 -1.0934
   16CHL1    C8 1124   1.881   0.442   9.516  0.4473  0.2660  0.0831
   16CHL1    H8 1125   1.895   0.332   9.518 -0.7597  0.0199 -1.9406
   16CHL1   C14 1126   1.897   0.493   9.375  0.6061  0.2332  0.7473
   16CHL1   H14 1127   1.874   0.602   9.374  3.9843  1.0833  2.0690
   16CHL1   C15 1128   1.794   0.442   9.270 -0.2256  0.3552  0.7505
   16CHL1  H15A 1129   1.780   0.333   9.290 -3.8883  0.2974 -1.3275
   16CHL1  H15B 1130   1.696   0.491   9.285 -0.4784  0.0900  0.0081
   16CHL1   C16 1131   1.852   0.469   9.131 -0.2165 -0.1039 -0.3124
   16CHL1  H16A 1132   1.858   0.378   9.067  0.0696  0.4881 -1.1542
   16CHL1  H16B 1133   1.780   0.528   9.070 -0.4160 -1.7973 -1.8140
   16CHL1   C17 1134   1.991   0.530   9.158  0.2069  0.4900 -0.3973
   16CHL1   H17 1135   1.971   0.638   9.177 -0.6100  0.0990  1.0314
   16CHL1   C13 1136   2.031   0.478   9.304  0.1040 -0.1272 -0.3335
   16CHL1   C18 1137   2.077   0.335   9.280  0.1790  0.3165  0.0051
   16CHL1  H18A 1138   2.053   0.289   9.378 -1.2454  0.4273 -0.2689
   16CHL1  H18B 1139   2.018   0.272   9.211 -0.3110 -0.6838  1.2971
   16CHL1  H18C 1140   2.188   0.331   9.266 -0.1143 -0.9406 -2.6618
   16CHL1   C12 1141   2.133   0.555   9.395 -0.3134  0.5368  0.1655
   16CHL1  H12A 1142   2.236   0.539   9.356 -0.3218  2.3343 -0.7212
   16CHL1  H12B 1143   2.102   0.662   9.392 -2.7516  0.0140  2.6383
   16CHL1   C11 1144   2.121   0.518   9.546  0.5346  0.3953 -0.5128
   16CHL1  H11A 1145   2.155   0.412   9.546  1.4171  0.6619  0.5738
   16CHL1  H11B 1146   2.190   0.572   9.614 -1.8334 -0.1215  2.5090
   16CHL1    C9 1147   1.978   0.517   9.604  0.2232 -0.4420 -0.7492
   16CHL1    H9 1148   1.940   0.622   9.598 -3.8129 -1.7439 -0.7402
   16CHL1   C10 1149   1.972   0.470   9.755  0.8586 -0.0444 -0.3013
   16CHL1   C19 1150   2.052   0.336   9.774 -0.0818  0.3853  0.4428
   16CHL1  H19A 1151   2.051   0.292   9.876 -0.9853  1.6513  1.0133
   16CHL1  H19B 1152   2.011   0.257   9.708 -0.1901  0.4138  0.4751
   16CHL1  H19C 1153   2.156   0.352   9.739 -0.4958  1.8137 -0.2499
   16CHL1    C1 1154   2.028   0.586   9.847 -0.2427  0.1039  0.7707
   16CHL1   H1A 1155   2.135   0.611   9.830 -0.8263  2.6904  0.4375
   16CHL1   H1B 1156   1.958   0.670   9.827  1.2272  1.5332  1.4300
   16CHL1    C2 1157   2.022   0.549   9.997 -0.5259  0.0718  0.3289
   16CHL1   H2A 1158   2.053   0.643  10.048  6.2730 -1.7085  0.4037
   16CHL1   H2B 1159   2.086   0.462  10.020 -1.5646 -0.8262 -0.0993
   16CHL1   C20 1160   2.103   0.525   9.048  0.4449  0.4310  1.2094
   16CHL1   H20 1161   2.202   0.538   9.097  2.0962 -3.4417 -0.7299
   16CHL1   C21 1162   2.072   0.637   8.949  0.7127 -1.1728 -0.1223
   16CHL1  H21A 1163   2.061   0.727   9.014 -0.7690 -0.6550 -1.0521
   16CHL1  H21B 1164   1.984   0.607   8.888 -0.1134  0.3641  0.2726
   16CHL1  H21C 1165   2.159   0.641   8.880  0.3886  1.5132 -0.4684
   16CHL1   C22 1166   2.109   0.399   8.962  0.3204 -0.0996 -0.5551
   16CHL1  H22A 1167   2.078   0.305   9.014  1.1982  0.3296  0.7874
   16CHL1  H22B 1168   2.040   0.402   8.875 -0.0220 -2.5147 -0.4285
   16CHL1   C23 1169   2.249   0.373   8.900 -0.3394 -0.1027 -0.0211
   16CHL1  H23A 1170   2.283   0.465   8.849  1.1416 -0.5681  0.0813
   16CHL1  H23B 1171   2.315   0.353   8.987 -1.0028 -0.1400  0.4787
   16CHL1   C24 1172   2.259   0.262   8.790 -0.5483 -0.1969  0.9291
   16CHL1  H24A 1173   2.244   0.164   8.840  0.9009  0.7886  3.4477
   16CHL1  H24B 1174   2.172   0.270   8.721 -0.4103 -1.0275  0.6424
   16CHL1   C25 1175   2.389   0.268   8.697 -0.2650 -0.5220  0.0174
   16CHL1   H25 1176   2.476   0.231   8.756  0.7168 -0.5679 -1.4113
   16CHL1   C26 1177   2.375   0.170   8.580 -0.6341  0.4375 -0.1802
   16CHL1  H26A 1178   2.361   0.066   8.616  0.9959  0.3964  0.4178
   16CHL1  H26B 1179   2.285   0.193   8.518 -0.2925  2.2742 -0.0738
   16CHL1  H26C 1180   2.461   0.180   8.510 -0.8037  2.9840 -0.1190
   16CHL1   C27 1181   2.407   0.410   8.633  0.5292  0.2264  0.4965
   16CHL1  H27A 1182   2.485   0.404   8.553  3.0095 -0.7897  2.8153
   16CHL1  H27B 1183   2.308   0.442   8.596 -1.5718 -3.2450  2.5657
   16CHL1  H27C 1184   2.454   0.480   8.705  3.1654  0.7914 -1.6022
   17CHL1    C3 1185   3.951   4.506  10.175 -0.1230 -0.6240  0.1023
   17CHL1    H3 1186   3.925   4.400  10.197 -2.0485 -0.0010  1.0910
   17CHL1    O3 1187   3.956   4.554  10.312  0.0713  0.3482  0.1296
   17CHL1   H3' 1188   3.928   4.645  10.316  0.3409  0.5042 -1.2533
   17CHL1    C4 1189   4.090   4.518  10.108 -0.3134 -0.1338 -0.1466
   17CHL1   H4A 1190   4.138   4.615  10.133 -1.2549  0.4504 -0.5409
   17CHL1   H4B 1191   4.153   4.441  10.157  2.2731  1.0342 -1.4137
   17CHL1    C5 1192   4.087   4.493   9.958 -0.6251 -0.3111 -0.3412
   17CHL1    C6 1193   4.168   4.410   9.892 -0.7766 -0.3799  0.7806
   17CHL1    H6 1194   4.246   4.355   9.947 -1.3563 -2.6162 -0.5047
   17CHL1    C7 1195   4.159   4.381   9.747 -0.1435 -0.2276 -0.7288
   17CHL1   H7A 1196   4.261   4.384   9.702 -0.0815 -0.3356 -0.5977
   17CHL1   H7B 1197   4.105   4.286   9.727 -1.6844  0.5043 -0.1186
   17CHL1    C8 1198   4.088   4.485   9.661  0.5801  0.4744  0.4382
   17CHL1    H8 1199   4.155   4.573   9.668  0.8570  0.2014  1.4479
   17CHL1   C14 1200   4.068   4.441   9.516  0.9034  1.0578  0.3358
   17CHL1   H14 1201   4.013   4.345   9.516  0.4673  1.2801 -1.2034
   17CHL1   C15 1202   4.182   4.406   9.427  0.1035 -0.5601  0.3074
   17CHL1  H15A 1203   4.259   4.484   9.446 -2.0323  1.5310  0.7890
   17CHL1  H15B 1204   4.218   4.305   9.458 -0.2507 -0.5581  0.7292
   17CHL1   C16 1205   4.137   4.410   9.280 -0.8033  0.1833  0.0573
   17CHL1  H16A 1206   4.208   4.473   9.221  1.0349 -1.3466  0.5151
   17CHL1  H16B 1207   4.139   4.307   9.237  0.4664  0.2988 -0.1936
   17CHL1   C17 1208   3.994   4.466   9.284 -0.6768  0.0755 -0.3695
   17CHL1   H17 1209   3.917   4.386   9.290 -1.7085  1.1155  1.2229
   17CHL1   C13 1210   3.981   4.537   9.425  0.0347 -0.7701  0.5961
   17CHL1   C18 1211   4.046   4.680   9.413 -0.2361 -0.3488  0.4489
   17CHL1  H18A 1212   4.140   4.658   9.358 -0.3388 -0.8006  0.4485
   17CHL1  H18B 1213   3.979   4.751   9.359  0.5376  0.2676  0.2845
   17CHL1  H18C 1214   4.072   4.717   9.515 -0.3309 -1.0416  0.7289
   17CHL1   C12 1215   3.840   4.545   9.492 -0.7856  0.0631  0.4014
   17CHL1  H12A 1216   3.783   4.614   9.426  0.1134 -0.5497 -1.0691
   17CHL1  H12B 1217   3.785   4.450   9.510 -1.7303  0.6858  0.8529
   17CHL1   C11 1218   3.857   4.600   9.641  0.6469  0.2711  0.3441
   17CHL1  H11A 1219   3.887   4.707   9.648  1.8388 -0.1081  1.3198
   17CHL1  H11B 1220   3.757   4.594   9.689  1.3915 -1.7293  1.7915
   17CHL1    C9 1221   3.958   4.522   9.730 -0.4778  0.0998 -0.3494
   17CHL1    H9 1222   3.906   4.425   9.743  0.2897 -0.5113 -1.5379
   17CHL1   C10 1223   3.972   4.570   9.883 -0.1221  0.5416 -0.2578
   17CHL1   C19 1224   4.000   4.724   9.885  0.4513  0.0879 -0.0834
   17CHL1  H19A 1225   4.018   4.761   9.988  1.4635  1.6724 -0.7953
   17CHL1  H19B 1226   4.081   4.756   9.817 -0.6795  1.3398 -0.9034
   17CHL1  H19C 1227   3.907   4.778   9.856  0.3075 -0.3236 -0.4076
   17CHL1    C1 1228   3.833   4.544   9.953 -0.5894 -0.0854  0.4228
   17CHL1   H1A 1229   3.747   4.596   9.905  0.6233  0.8870 -0.7651
   17CHL1   H1B 1230   3.826   4.433   9.960  0.4527 -0.1072  1.2297
   17CHL1    C2 1231   3.834   4.583  10.099 -0.0773  0.5486  0.4675
   17CHL1   H2A 1232   3.732   4.561  10.135  0.6556 -4.2876  0.3014
   17CHL1   H2B 1233   3.846   4.692  10.116 -1.2322  1.5628 -3.9239
   17CHL1   C20 1234   3.965   4.553   9.159  0.0053 -0.0747  0.4804
   17CHL1   H20 1235   4.038   4.636   9.166  0.3682 -0.3696  0.2278
   17CHL1   C21 1236   3.820   4.613   9.153 -0.4409 -0.0006  0.0353
   17CHL1  H21A 1237   3.752   4.526   9.167 -0.2502 -0.7343 -2.9110
   17CHL1  H21B 1238   3.779   4.657   9.060 -1.0957  1.3347  0.9346
   17CHL1  H21C 1239   3.809   4.678   9.242 -1.1502 -3.1298  2.4441
   17CHL1   C22 1240   4.008   4.482   9.028 -0.3641 -0.1027  0.4697
   17CHL1  H22A 1241   4.115   4.451   9.036  0.2311  1.3873 -1.1461
   17CHL1  H22B 1242   3.966   4.379   9.028 -0.3262 -0.1244  1.2081
   17CHL1   C23 1243   3.971   4.564   8.903  1.2535 -0.1870 -0.1439
   17CHL1  H23A 1244   3.862   4.549   8.892  1.1483  0.0072  0.5946
   17CHL1  H23B 1245   3.993   4.672   8.912  2.2073 -0.4630  1.3305
   17CHL1   C24 1246   4.039   4.513   8.774  0.9377 -0.2682 -0.2767
   17CHL1  H24A 1247   4.147   4.536   8.766  1.2648 -1.2018  0.9923
   17CHL1  H24B 1248   4.010   4.406   8.769 -3.0163  0.4311  2.4753
   17CHL1   C25 1249   3.976   4.580   8.647 -0.2071 -0.2833 -0.1935
   17CHL1   H25 1250   4.031   4.539   8.559  1.2695  0.6339  0.2470
   17CHL1   C26 1251   3.829   4.537   8.626  0.0784 -0.2346  0.3366
   17CHL1  H26A 1252   3.814   4.428   8.638 -2.3791 -0.2822 -2.1869
   17CHL1  H26B 1253   3.764   4.593   8.697 -0.2079 -0.2406  0.0824
   17CHL1  H26C 1254   3.806   4.570   8.523  0.6594 -0.2189  0.2119
   17CHL1   C27 1255   3.996   4.740   8.628  0.6170 -0.4814  0.3896
   17CHL1  H27A 1256   4.099   4.766   8.660  0.6006 -1.1646  1.0423
   17CHL1  H27B 1257   3.986   4.770   8.522  0.7887  0.3144  0.5951
   17CHL1  H27C 1258   3.930   4.807   8.687  0.1292  1.2584 -1.9850
   18CHL1    C3 1259   3.118   2.401  10.600  0.9262 -0.2498  0.1984
   18CHL1    H3 1260   3.177   2.495  10.587  0.7950 -0.1415  0.3868
   18CHL1    O3 1261   3.130   2.379  10.737  0.5929  0.2860  0.2724
   18CHL1   H3' 1262   3.056   2.320  10.750  2.3105 -2.2004 -0.5401
   18CHL1    C4 1263   2.972   2.436  10.563 -0.3558 -0.2350 -0.1437
   18CHL1   H4A 1264   2.902   2.353  10.590  0.3692 -1.7225 -2.5125
   18CHL1   H4B 1265   2.933   2.523  10.619  0.2898  0.2672 -0.4710
   18CHL1    C5 1266   2.957   2.450  10.410 -0.1585 -0.2342  0.0275
   18CHL1    C6 1267   2.911   2.569  10.363 -0.5315  0.2058  0.3896
   18CHL1    H6 1268   2.878   2.644  10.437 -2.0099 -0.4939  0.4843
   18CHL1    C7 1269   2.898   2.607  10.217 -0.5215 -0.3152 -0.0727
   18CHL1   H7A 1270   2.806   2.666  10.198 -1.2404 -0.3772  2.7202
   18CHL1   H7B 1271   2.988   2.671  10.203  0.5092 -1.3908  1.3187
   18CHL1    C8 1272   2.919   2.483  10.122  0.1519 -0.3883 -1.1849
   18CHL1    H8 1273   2.824   2.426  10.120 -0.1802  0.0896  0.0599
   18CHL1   C14 1274   2.953   2.532   9.980  0.0397 -0.5526  0.5967
   18CHL1   H14 1275   3.052   2.581   9.990  0.3902 -1.3235  1.0253
   18CHL1   C15 1276   2.851   2.637   9.915 -0.1715  0.3848  0.2511
   18CHL1  H15A 1277   2.747   2.602   9.932  0.4524 -2.2033 -0.8858
   18CHL1  H15B 1278   2.862   2.740   9.956 -0.7310  0.1912  0.9171
   18CHL1   C16 1279   2.883   2.632   9.763 -0.1386  0.2305 -0.0257
   18CHL1  H16A 1280   2.791   2.607   9.707  0.8478  0.0135 -1.6103
   18CHL1  H16B 1281   2.933   2.724   9.724  1.4006 -1.4411 -2.2444
   18CHL1   C17 1282   2.975   2.513   9.737 -0.4106 -0.0645 -0.8155
   18CHL1   H17 1283   3.075   2.559   9.749 -0.0904 -1.1248  1.1970
   18CHL1   C13 1284   2.969   2.423   9.872  0.7042 -0.8322 -0.0661
   18CHL1   C18 1285   2.835   2.342   9.857  0.0480 -0.5032 -0.4588
   18CHL1  H18A 1286   2.862   2.249   9.803  0.8987 -1.3375  1.3176
   18CHL1  H18B 1287   2.796   2.324   9.960  2.4365 -0.3851  0.5413
   18CHL1  H18C 1288   2.765   2.398   9.791 -0.0349 -2.9392 -2.5803
   18CHL1   C12 1289   3.083   2.335   9.915 -0.1786  0.1063  0.4980
   18CHL1  H12A 1290   3.096   2.254   9.841  0.8625  1.5651 -1.0102
   18CHL1  H12B 1291   3.177   2.394   9.904  0.0280 -0.3744 -0.4381
   18CHL1   C11 1292   3.072   2.287  10.063  0.5245 -0.1274  0.0977
   18CHL1  H11A 1293   2.990   2.211  10.059  2.1239 -1.9010 -1.2541
   18CHL1  H11B 1294   3.167   2.238  10.092  0.5449  0.4066  0.9469
   18CHL1    C9 1295   3.029   2.393  10.171 -0.2090  0.1429  0.3686
   18CHL1    H9 1296   3.111   2.468  10.179 -1.8474  1.9019  1.6664
   18CHL1   C10 1297   3.012   2.344  10.314  0.0864 -0.3605 -0.0501
   18CHL1   C19 1298   2.927   2.218  10.320 -0.5448 -0.4026  0.5904
   18CHL1  H19A 1299   2.822   2.241  10.293 -0.9138 -0.3637  1.9801
   18CHL1  H19B 1300   2.964   2.133  10.260 -0.1509  0.2827 -0.1596
   18CHL1  H19C 1301   2.912   2.178  10.422 -1.2070 -1.7942 -0.0282
   18CHL1    C1 1302   3.152   2.315  10.372 -0.3912  0.1641  0.9760
   18CHL1   H1A 1303   3.199   2.225  10.326 -0.3069  0.2900  0.8134
   18CHL1   H1B 1304   3.218   2.404  10.368 -0.2546  0.0685  1.0947
   18CHL1    C2 1305   3.163   2.280  10.522  0.5937 -0.0452  0.4326
   18CHL1   H2A 1306   3.266   2.246  10.545  0.0354 -2.4356 -0.3019
   18CHL1   H2B 1307   3.092   2.197  10.544  0.7676  0.0375  1.3671
   18CHL1   C20 1308   2.957   2.457   9.596  0.1115 -0.0895 -0.5786
   18CHL1   H20 1309   2.859   2.404   9.590 -0.9619  1.4602  1.7290
   18CHL1   C21 1310   3.067   2.353   9.569  0.6262 -0.2153 -0.4825
   18CHL1  H21A 1311   3.037   2.265   9.629 -1.5133 -0.9515 -2.5030
   18CHL1  H21B 1312   3.159   2.404   9.604 -0.2901  0.4352  1.1304
   18CHL1  H21C 1313   3.070   2.333   9.460 -0.1155  2.3734 -1.0459
   18CHL1   C22 1314   2.963   2.574   9.490  0.2842  0.0317 -0.6759
   18CHL1  H22A 1315   2.884   2.647   9.518  2.3399  1.9457  0.4528
   18CHL1  H22B 1316   3.058   2.630   9.502  0.1759 -0.1871  1.7291
   18CHL1   C23 1317   2.946   2.527   9.348  0.4617  0.2374  0.5956
   18CHL1  H23A 1318   3.031   2.468   9.307  0.7020  1.2634 -0.4545
   18CHL1  H23B 1319   2.850   2.472   9.342 -1.3011  2.9102  2.1631
   18CHL1   C24 1320   2.928   2.645   9.245 -0.2570  0.1430 -0.2841
   18CHL1  H24A 1321   2.842   2.711   9.266  0.4953  0.2585  2.9948
   18CHL1  H24B 1322   3.011   2.719   9.249 -1.2534  1.2565  0.5626
   18CHL1   C25 1323   2.912   2.600   9.101 -0.6947  0.5021 -0.0107
   18CHL1   H25 1324   2.976   2.509   9.093 -1.5293 -0.3688  2.2429
   18CHL1   C26 1325   2.763   2.584   9.066  0.5666  0.5053  0.1433
   18CHL1  H26A 1326   2.708   2.680   9.075 -1.5399 -0.3092 -2.4604
   18CHL1  H26B 1327   2.749   2.545   8.963 -1.2988  2.7248 -0.5344
   18CHL1  H26C 1328   2.715   2.517   9.141  0.0652  0.4443 -0.2285
   18CHL1   C27 1329   2.972   2.711   9.006  0.8553  0.0628  0.2043
   18CHL1  H27A 1330   2.905   2.799   9.010 -0.3379 -0.5623 -3.0235
   18CHL1  H27B 1331   3.077   2.725   9.039  0.9958 -0.5877  0.0553
   18CHL1  H27C 1332   2.981   2.670   8.903  3.2309  0.4400  0.2129
   19CHL1    C3 1333   5.897   5.040  10.438  0.3925  0.2686  0.4444
   19CHL1    H3 1334   5.983   5.110  10.441  0.6884  0.0206 -1.1204
   19CHL1    O3 1335   5.878   4.962  10.554  0.2431  0.0265 -0.7225
   19CHL1   H3' 1336   5.940   4.892  10.535 -1.0376 -1.2648 -0.3792
   19CHL1    C4 1337   5.771   5.130  10.399  0.3403 -0.5456  0.0854
   19CHL1   H4A 1338   5.683   5.064  10.417 -0.0251  0.3914  2.0061
   19CHL1   H4B 1339   5.758   5.215  10.469 -2.7354  0.8733 -1.9734
   19CHL1    C5 1340   5.777   5.189  10.252  0.4935  0.8806  0.4385
   19CHL1    C6 1341   5.759   5.319  10.224 -0.2709  0.4328  0.5014
   19CHL1    H6 1342   5.735   5.396  10.299 -0.2232 -0.2989  1.2827
   19CHL1    C7 1343   5.764   5.386  10.090 -0.2987  0.1510 -0.2251
   19CHL1   H7A 1344   5.676   5.454  10.090 -2.2279 -2.0992 -3.0515
   19CHL1   H7B 1345   5.863   5.432  10.069 -1.4817  1.3482 -4.1810
   19CHL1    C8 1346   5.759   5.274   9.987 -0.5721 -0.0799  0.5719
   19CHL1    H8 1347   5.654   5.240   9.974 -0.8252  1.3851 -1.7293
   19CHL1   C14 1348   5.792   5.332   9.849  0.0059 -0.1230 -0.3653
   19CHL1   H14 1349   5.890   5.383   9.863 -0.6879  0.5590  2.6534
   19CHL1   C15 1350   5.698   5.451   9.817  0.1910 -0.8361 -0.1546
   19CHL1  H15A 1351   5.597   5.433   9.859 -0.0301  1.3630  0.3521
   19CHL1  H15B 1352   5.702   5.549   9.869 -0.2473 -0.5782 -0.5974
   19CHL1   C16 1353   5.715   5.460   9.665  0.6988 -1.1947 -0.1979
   19CHL1  H16A 1354   5.612   5.450   9.624  1.0391  1.3380 -1.8852
   19CHL1  H16B 1355   5.754   5.557   9.628 -0.2167 -1.4985 -2.0711
   19CHL1   C17 1356   5.794   5.345   9.613 -0.7382  1.5691 -0.4725
   19CHL1   H17 1357   5.898   5.385   9.609  1.5207 -3.3846  0.6986
   19CHL1   C13 1358   5.785   5.237   9.727  0.2311 -0.6242 -0.2133
   19CHL1   C18 1359   5.644   5.172   9.701 -0.3674  0.0731 -0.2046
   19CHL1  H18A 1360   5.613   5.102   9.782  0.3832  0.2388  0.2392
   19CHL1  H18B 1361   5.565   5.250   9.697 -0.4275  0.1356  1.3259
   19CHL1  H18C 1362   5.651   5.116   9.606 -1.3262 -0.3897 -0.0126
   19CHL1   C12 1363   5.903   5.143   9.752  0.5336 -0.0917 -0.0047
   19CHL1  H12A 1364   5.916   5.070   9.669  1.2650  1.6416 -1.4763
   19CHL1  H12B 1365   5.987   5.214   9.769 -0.7463  0.8897  2.6394
   19CHL1   C11 1366   5.875   5.071   9.887 -0.2462 -0.3482  0.6823
   19CHL1  H11A 1367   5.782   5.015   9.864 -1.6684  2.3867 -0.7655
   19CHL1  H11B 1368   5.953   4.994   9.905 -0.1379 -0.0062  1.7584
   19CHL1    C9 1369   5.853   5.161  10.015  0.3697  0.5477  0.2401
   19CHL1    H9 1370   5.954   5.205  10.030 -0.1186  0.9937  2.6005
   19CHL1   C10 1371   5.822   5.089  10.147  0.6483  0.4503  0.3482
   19CHL1   C19 1372   5.701   4.990  10.123 -0.2114 -0.4906 -0.2121
   19CHL1  H19A 1373   5.674   4.950  10.224  2.9586 -0.9192  0.5632
   19CHL1  H19B 1374   5.616   5.039  10.071  0.5443  0.7528 -0.2970
   19CHL1  H19C 1375   5.722   4.908  10.051 -0.0964  0.9044 -1.8127
   19CHL1    C1 1376   5.943   5.013  10.190  0.4423  0.7275 -0.0140
   19CHL1   H1A 1377   5.962   4.933  10.115 -2.6009 -0.7355  0.6208
   19CHL1   H1B 1378   6.022   5.091  10.200  0.5556  0.6958 -0.6036
   19CHL1    C2 1379   5.923   4.936  10.326 -1.5082 -0.7775  0.0227
   19CHL1   H2A 1380   6.022   4.885  10.335 -0.1279  1.9273  1.4777
   19CHL1   H2B 1381   5.840   4.863  10.315 -2.6957  0.6424 -0.7011
   19CHL1   C20 1382   5.774   5.305   9.466 -0.3759  0.6856 -0.3468
   19CHL1   H20 1383   5.672   5.267   9.443 -0.1344 -1.9897  2.4072
   19CHL1   C21 1384   5.867   5.189   9.431  0.0668  0.6198  1.1323
   19CHL1  H21A 1385   5.851   5.091   9.481  1.3902  0.5159  1.4039
   19CHL1  H21B 1386   5.973   5.220   9.449  0.5610 -0.1579 -0.2778
   19CHL1  H21C 1387   5.859   5.159   9.324 -0.7528 -0.8174  1.5659
   19CHL1   C22 1388   5.803   5.423   9.371 -0.0691 -0.7435  0.2504
   19CHL1  H22A 1389   5.742   5.510   9.404  0.6601 -1.0260  2.5348
   19CHL1  H22B 1390   5.907   5.461   9.376 -0.7395  1.9676 -2.8258
   19CHL1   C23 1391   5.765   5.397   9.224 -0.1499 -0.7293  0.3400
   19CHL1  H23A 1392   5.828   5.315   9.182  1.2970  0.9312 -0.8873
   19CHL1  H23B 1393   5.660   5.365   9.210 -0.9830  1.9457 -0.0738
   19CHL1   C24 1394   5.797   5.526   9.148 -0.5345 -0.4441  0.1589
   19CHL1  H24A 1395   5.714   5.598   9.166 -1.1363 -1.1510  0.2739
   19CHL1  H24B 1396   5.898   5.566   9.171 -1.2433  0.2089  2.4207
   19CHL1   C25 1397   5.789   5.506   8.991  0.0820 -0.6531  0.0522
   19CHL1   H25 1398   5.706   5.433   8.976 -1.1044  0.2320  2.0175
   19CHL1   C26 1399   5.768   5.633   8.905  0.0893  0.7409  0.7043
   19CHL1  H26A 1400   5.672   5.684   8.929  0.0980  0.6286  0.9860
   19CHL1  H26B 1401   5.844   5.710   8.928  1.8656 -0.3519 -1.1500
   19CHL1  H26C 1402   5.774   5.609   8.797  0.7904  1.3943  0.5884
   19CHL1   C27 1403   5.927   5.446   8.948 -0.4718 -0.5000  0.0000
   19CHL1  H27A 1404   5.930   5.390   8.852 -0.2342 -1.4979  0.5818
   19CHL1  H27B 1405   6.003   5.528   8.946 -0.6230 -0.3496  0.3674
   19CHL1  H27C 1406   5.967   5.379   9.027 -0.2753 -0.2178  0.1424
   20CHL1    C3 1407   2.569   0.242   9.913  0.6545  0.3849  0.2695
   20CHL1    H3 1408   2.626   0.327   9.871  2.2253 -0.0446  1.4228
   20CHL1    O3 1409   2.540   0.264  10.048  0.8625  0.2508  0.0884
   20CHL1   H3' 1410   2.489   0.190  10.080  0.5512  0.0775 -0.7748
   20CHL1    C4 1411   2.438   0.222   9.830 -0.3357 -0.4122  0.6291
   20CHL1   H4A 1412   2.380   0.138   9.874 -2.4578  1.3588  1.3288
   20CHL1   H4B 1413   2.374   0.311   9.842  0.8340  0.5447  0.0066
   20CHL1    C5 1414   2.464   0.188   9.690 -0.0115 -0.2453 -0.0249
   20CHL1    C6 1415   2.414   0.266   9.590  0.2643  0.1788  0.6053
   20CHL1    H6 1416   2.350   0.352   9.611  1.9404  0.8075  3.7349
   20CHL1    C7 1417   2.413   0.221   9.443  0.1208  0.1812  0.3484
   20CHL1   H7A 1418   2.308   0.215   9.407  0.7907  0.3403 -1.7483
   20CHL1   H7B 1419   2.465   0.296   9.379 -0.7368 -0.2040 -0.8222
   20CHL1    C8 1420   2.475   0.082   9.416  0.9420 -0.5285  1.0795
   20CHL1    H8 1421   2.396   0.006   9.438 -0.3241  0.7660  1.1324
   20CHL1   C14 1422   2.525   0.072   9.272 -0.6048  0.4342  0.0250
   20CHL1   H14 1423   2.604   0.150   9.276 -1.4325  1.4815 -2.1906
   20CHL1   C15 1424   2.423   0.114   9.159 -0.0912 -0.6327  0.5251
   20CHL1  H15A 1425   2.335   0.050   9.181 -1.2266  2.0276  5.3516
   20CHL1  H15B 1426   2.399   0.223   9.156  4.4653  0.5276 -0.4177
   20CHL1   C16 1427   2.492   0.048   9.042 -0.6002 -0.2158  0.6979
   20CHL1  H16A 1428   2.425  -0.026   8.995 -0.5954  0.0571  0.2621
   20CHL1  H16B 1429   2.521   0.133   8.976 -1.3698 -1.6528 -1.5867
   20CHL1   C17 1430   2.618  -0.039   9.089 -1.0428  1.0538  0.1986
   20CHL1   H17 1431   2.708   0.026   9.090 -0.4250  0.2166  0.5414
   20CHL1   C13 1432   2.594  -0.060   9.238  1.0793 -0.1392 -0.1262
   20CHL1   C18 1433   2.502  -0.185   9.257 -0.0051  0.2011 -0.0895
   20CHL1  H18A 1434   2.459  -0.203   9.358 -1.8157 -0.1732 -0.8932
   20CHL1  H18B 1435   2.410  -0.173   9.196  0.5571  1.6420 -0.6869
   20CHL1  H18C 1436   2.557  -0.276   9.224  1.2170  0.8942 -0.0326
   20CHL1   C12 1437   2.717  -0.067   9.327 -0.0250  0.0671  0.0728
   20CHL1  H12A 1438   2.779  -0.155   9.300  0.0002  0.6544 -1.9462
   20CHL1  H12B 1439   2.788   0.018   9.318  1.2977 -0.7351  2.2101
   20CHL1   C11 1440   2.670  -0.071   9.467 -0.0713  0.2429 -0.2449
   20CHL1  H11A 1441   2.619  -0.165   9.496 -1.4747  0.9368 -0.3647
   20CHL1  H11B 1442   2.761  -0.071   9.531 -0.0562 -0.8072 -0.2529
   20CHL1    C9 1443   2.593   0.054   9.512 -0.6457  0.6552  0.6861
   20CHL1    H9 1444   2.663   0.139   9.498 -0.8472  1.1197  2.2825
   20CHL1   C10 1445   2.550   0.066   9.665 -1.0283 -0.2273  1.0998
   20CHL1   C19 1446   2.486  -0.067   9.707 -0.2321  1.4636 -0.6056
   20CHL1  H19A 1447   2.559  -0.150   9.710 -2.1040 -0.2380 -0.4154
   20CHL1  H19B 1448   2.450  -0.069   9.812  0.3219 -0.3634 -0.4165
   20CHL1  H19C 1449   2.410  -0.083   9.628  0.3459 -1.8006 -0.6386
   20CHL1    C1 1450   2.691   0.083   9.750  0.0694  0.1914  0.4555
   20CHL1   H1A 1451   2.746  -0.014   9.747 -0.3657 -0.0389 -1.1305
   20CHL1   H1B 1452   2.754   0.165   9.709  0.9268 -0.9207 -0.5494
   20CHL1    C2 1453   2.659   0.121   9.899 -0.0891 -0.6451  0.0642
   20CHL1   H2A 1454   2.761   0.135   9.941 -0.1064  0.2645 -0.1795
   20CHL1   H2B 1455   2.607   0.037   9.950 -2.6010  1.6016  1.4525
   20CHL1   C20 1456   2.643  -0.156   8.983 -0.8289 -0.5618  0.2877
   20CHL1   H20 1457   2.551  -0.218   8.985 -1.5558  0.4391 -0.6881
   20CHL1   C21 1458   2.757  -0.257   9.021 -0.2653  0.2189 -0.0600
   20CHL1  H21A 1459   2.842  -0.215   9.080  0.5003 -1.1113 -0.1916
   20CHL1  H21B 1460   2.788  -0.295   8.921 -1.6124 -0.3081 -0.2891
   20CHL1  H21C 1461   2.728  -0.347   9.079  1.9812 -1.3826 -1.2565
   20CHL1   C22 1462   2.682  -0.099   8.841  0.3847 -0.0321  0.3213
   20CHL1  H22A 1463   2.613  -0.018   8.809  0.8407 -0.5553 -2.2679
   20CHL1  H22B 1464   2.783  -0.054   8.850 -0.2046  1.2013  1.0013
   20CHL1   C23 1465   2.664  -0.193   8.727  0.1100  0.0739  0.0516
   20CHL1  H23A 1466   2.755  -0.257   8.725 -0.0473 -0.2980  2.3208
   20CHL1  H23B 1467   2.575  -0.252   8.755  0.9145 -0.7561  0.9517
   20CHL1   C24 1468   2.657  -0.111   8.594 -0.1947 -0.2229 -0.3395
   20CHL1  H24A 1469   2.565  -0.050   8.603  1.0352  1.4683  1.7536
   20CHL1  H24B 1470   2.746  -0.045   8.591 -0.4631  0.1178 -0.8344
   20CHL1   C25 1471   2.645  -0.198   8.472  0.3360 -0.4680  1.2361
   20CHL1   H25 1472   2.562  -0.272   8.476 -0.9797  0.6140 -2.2806
   20CHL1   C26 1473   2.589  -0.105   8.361  0.1304  0.1591 -0.1673
   20CHL1  H26A 1474   2.665  -0.029   8.334  1.6651 -1.1949  0.1707
   20CHL1  H26B 1475   2.577  -0.164   8.268 -0.2185  1.0220 -0.6756
   20CHL1  H26C 1476   2.494  -0.069   8.405 -0.6819 -1.6772 -0.3027
   20CHL1   C27 1477   2.773  -0.263   8.422 -0.2032  0.1005  0.3051
   20CHL1  H27A 1478   2.846  -0.196   8.372  1.2039 -1.2752  0.4436
   20CHL1  H27B 1479   2.826  -0.317   8.503  1.8816  1.9468  0.2716
   20CHL1  H27C 1480   2.739  -0.340   8.349 -0.1254 -0.0893  0.4708
   21CHL1    C3 1481   3.221   3.163  10.446 -0.7878 -0.0984  0.0776
   21CHL1    H3 1482   3.330   3.182  10.435 -0.9443 -0.4078 -2.4293
   21CHL1    O3 1483   3.191   3.178  10.581  0.0309 -1.2200 -0.6389
   21CHL1   H3' 1484   3.102   3.215  10.581  0.7150  0.4760 -0.4159
   21CHL1    C4 1485   3.149   3.278  10.378 -0.1374  0.0223 -0.1355
   21CHL1   H4A 1486   3.043   3.280  10.412  0.4279 -1.1804  1.8690
   21CHL1   H4B 1487   3.194   3.374  10.412 -1.6687  0.4523  0.7860
   21CHL1    C5 1488   3.157   3.261  10.226 -0.1594  0.0534  0.3854
   21CHL1    C6 1489   3.202   3.367  10.158 -0.6663 -0.7714  0.9279
   21CHL1    H6 1490   3.231   3.458  10.213 -1.7163 -0.5993  1.2223
   21CHL1    C7 1491   3.214   3.366  10.009 -0.3830 -0.1699  0.3576
   21CHL1   H7A 1492   3.173   3.463   9.975 -1.8804 -0.6008  0.8538
   21CHL1   H7B 1493   3.318   3.360   9.968 -0.4324  0.5080  0.1238
   21CHL1    C8 1494   3.128   3.247   9.950 -1.0119  0.2525  0.7444
   21CHL1    H8 1495   3.019   3.257   9.972 -0.6789  1.7137  1.8912
   21CHL1   C14 1496   3.150   3.235   9.798  0.1396  0.5535 -0.1224
   21CHL1   H14 1497   3.259   3.219   9.781  0.2720 -1.1643  1.8770
   21CHL1   C15 1498   3.122   3.357   9.710 -0.0577 -0.4370  0.0070
   21CHL1  H15A 1499   3.027   3.402   9.745 -0.0690  0.3324 -0.9875
   21CHL1  H15B 1500   3.201   3.435   9.717 -0.5452 -0.0752  2.7494
   21CHL1   C16 1501   3.096   3.307   9.572  0.1790 -0.0846 -0.2687
   21CHL1  H16A 1502   2.994   3.337   9.540  0.2345  0.2046 -0.1739
   21CHL1  H16B 1503   3.164   3.340   9.490 -0.7993  1.7220 -0.3960
   21CHL1   C17 1504   3.109   3.151   9.579  0.5927 -0.2849 -0.0967
   21CHL1   H17 1505   3.213   3.117   9.557 -0.0288 -1.8139 -0.8057
   21CHL1   C13 1506   3.083   3.116   9.725 -0.7109 -0.3884  0.3527
   21CHL1   C18 1507   2.929   3.127   9.744 -0.0220 -0.2065  0.2817
   21CHL1  H18A 1508   2.895   3.125   9.850  0.1305  1.1634  0.3683
   21CHL1  H18B 1509   2.868   3.208   9.699 -3.0998 -2.5468 -0.1486
   21CHL1  H18C 1510   2.885   3.036   9.697  0.6901 -1.0583  1.2301
   21CHL1   C12 1511   3.146   2.993   9.786 -0.0292  0.1184  0.1141
   21CHL1  H12A 1512   3.095   2.898   9.756  1.4700 -0.6445 -0.1221
   21CHL1  H12B 1513   3.251   2.977   9.753 -0.1303  0.7207 -0.5250
   21CHL1   C11 1514   3.116   2.985   9.940 -0.6772 -0.3176  0.2078
   21CHL1  H11A 1515   3.006   2.978   9.937 -0.8337  1.5268 -2.9971
   21CHL1  H11B 1516   3.156   2.892   9.985 -2.0936 -0.9039  0.2801
   21CHL1    C9 1517   3.164   3.107  10.016  0.1276 -0.2761 -0.6127
   21CHL1    H9 1518   3.275   3.112  10.023  0.0519  0.4718  0.2399
   21CHL1   C10 1519   3.118   3.122  10.163 -0.2699  0.0607 -0.3675
   21CHL1   C19 1520   2.962   3.104  10.188  0.7394 -0.5686  0.0686
   21CHL1  H19A 1521   2.899   3.166  10.120 -0.7885 -3.0737 -0.9802
   21CHL1  H19B 1522   2.938   2.997  10.168 -1.3842 -0.5674  2.1489
   21CHL1  H19C 1523   2.932   3.114  10.294  4.0239 -0.3978  1.0897
   21CHL1    C1 1524   3.181   3.008  10.245 -0.0176 -0.0872 -0.2619
   21CHL1   H1A 1525   3.151   2.906  10.216  1.2365 -0.5158 -0.1087
   21CHL1   H1B 1526   3.287   3.026  10.216 -0.5042  2.1215 -0.8925
   21CHL1    C2 1527   3.176   3.019  10.402 -0.3359  0.2090  0.0649
   21CHL1   H2A 1528   3.239   2.942  10.451 -2.1470 -1.6117 -0.2969
   21CHL1   H2B 1529   3.072   3.001  10.436 -0.5053  2.0115  0.6160
   21CHL1   C20 1530   3.024   3.079   9.468  0.1777 -0.1331 -0.0028
   21CHL1   H20 1531   2.916   3.099   9.489  0.2005 -1.2234  1.3059
   21CHL1   C21 1532   3.042   2.933   9.487  0.1520 -0.1651  0.4185
   21CHL1  H21A 1533   3.006   2.882   9.394 -1.3316  2.7659 -0.7319
   21CHL1  H21B 1534   2.975   2.889   9.564 -2.9362  2.3326 -0.6055
   21CHL1  H21C 1535   3.146   2.898   9.503  0.7781  1.4308 -0.0297
   21CHL1   C22 1536   3.065   3.119   9.324 -0.3791 -0.8389 -0.5861
   21CHL1  H22A 1537   3.071   3.229   9.307 -0.0977 -0.9854 -1.4946
   21CHL1  H22B 1538   3.171   3.084   9.318 -0.4266 -1.0792 -0.0927
   21CHL1   C23 1539   2.975   3.076   9.210  0.9134  0.1994 -0.6392
   21CHL1  H23A 1540   2.960   2.966   9.223  0.1652  0.4974  1.3782
   21CHL1  H23B 1541   2.879   3.130   9.226  0.4569 -0.3641 -1.4256
   21CHL1   C24 1542   3.016   3.103   9.066 -0.2860 -0.5660 -0.3907
   21CHL1  H24A 1543   3.111   3.054   9.035  0.6405  0.9419 -0.0796
   21CHL1  H24B 1544   2.932   3.063   9.006 -2.5196  0.3130  2.0140
   21CHL1   C25 1545   3.023   3.253   9.020 -0.7453 -0.8576  0.3117
   21CHL1   H25 1546   3.094   3.304   9.089 -0.8648 -1.5264  0.9499
   21CHL1   C26 1547   3.075   3.267   8.873  0.0095 -0.7691 -0.1294
   21CHL1  H26A 1548   3.018   3.205   8.801  1.1900  0.3023 -2.0832
   21CHL1  H26B 1549   3.072   3.374   8.842  0.9455 -0.3685  1.0865
   21CHL1  H26C 1550   3.178   3.226   8.870 -0.4125 -1.9823  1.0227
   21CHL1   C27 1551   2.890   3.330   9.043  0.4600 -0.1993  0.6045
   21CHL1  H27A 1552   2.899   3.437   9.018 -1.7850  0.1357  0.9912
   21CHL1  H27B 1553   2.804   3.295   8.980 -0.8060 -0.2296  2.2885
   21CHL1  H27C 1554   2.852   3.323   9.147 -0.7523  0.4504  0.2244
   22CHL1    C3 1555   1.458   4.681  10.098  0.1021 -0.0807 -0.2636
   22CHL1    H3 1556   1.354   4.643  10.101  0.1455 -0.1608  0.2719
   22CHL1    O3 1557   1.519   4.654  10.225  0.1542  0.2525 -0.1909
   22CHL1   H3' 1558   1.476   4.571  10.248  1.1063 -0.5612 -1.2617
   22CHL1    C4 1559   1.529   4.604   9.989 -0.0954  0.4255  0.0818
   22CHL1   H4A 1560   1.639   4.622   9.998  0.2593 -1.6192  0.3316
   22CHL1   H4B 1561   1.526   4.496  10.013  1.3068  0.1066 -1.0436
   22CHL1    C5 1562   1.483   4.638   9.854 -0.1329  0.6661  0.9275
   22CHL1    C6 1563   1.430   4.548   9.769  0.4072 -1.0425 -0.0604
   22CHL1    H6 1564   1.416   4.441   9.787  2.2411 -2.0419 -3.6339
   22CHL1    C7 1565   1.411   4.580   9.625 -0.2931 -0.2814  0.1936
   22CHL1   H7A 1566   1.454   4.495   9.567 -2.7795 -2.2289  1.0073
   22CHL1   H7B 1567   1.303   4.570   9.603  0.1317 -1.0428 -1.7744
   22CHL1    C8 1568   1.473   4.704   9.577 -0.3194 -0.3213 -0.7122
   22CHL1    H8 1569   1.582   4.680   9.569 -0.3328 -0.4350 -0.5737
   22CHL1   C14 1570   1.431   4.745   9.435  0.4425  0.2901  0.3940
   22CHL1   H14 1571   1.322   4.765   9.446  0.5491  1.1338  0.0062
   22CHL1   C15 1572   1.439   4.640   9.321  0.1681  0.2827  0.0914
   22CHL1  H15A 1573   1.535   4.585   9.319 -0.7680 -1.3966 -1.6460
   22CHL1  H15B 1574   1.351   4.576   9.343 -0.1989  0.0916 -1.8103
   22CHL1   C16 1575   1.412   4.726   9.193 -0.1398 -0.1459 -0.4994
   22CHL1  H16A 1576   1.487   4.698   9.115  1.2706  1.6274  0.1625
   22CHL1  H16B 1577   1.314   4.709   9.143 -0.3520  0.1040 -0.1655
   22CHL1   C17 1578   1.433   4.877   9.242 -0.0485  0.2969  0.0161
   22CHL1   H17 1579   1.328   4.914   9.252 -0.0832  0.3306 -0.4567
   22CHL1   C13 1580   1.486   4.875   9.390  0.7311 -0.3062  0.2063
   22CHL1   C18 1581   1.639   4.865   9.393  0.0617 -0.3949 -0.2243
   22CHL1  H18A 1582   1.671   4.829   9.493  0.8214  0.3105 -0.2036
   22CHL1  H18B 1583   1.673   4.793   9.316  3.2492  1.9318 -1.1932
   22CHL1  H18C 1584   1.688   4.964   9.384 -1.7887  0.6865  0.9452
   22CHL1   C12 1585   1.427   4.980   9.482 -0.9676 -0.7044  0.3061
   22CHL1  H12A 1586   1.474   5.077   9.457  1.8774 -1.8846  0.7152
   22CHL1  H12B 1587   1.319   4.982   9.457 -0.9801 -1.4193  0.2841
   22CHL1   C11 1588   1.472   4.960   9.630 -0.1060 -0.1572  0.3774
   22CHL1  H11A 1589   1.580   4.986   9.628  0.0221 -0.7247 -0.4481
   22CHL1  H11B 1590   1.425   5.030   9.703  0.2356  0.9298 -0.4114
   22CHL1    C9 1591   1.441   4.816   9.679  0.4620 -0.9163 -0.2840
   22CHL1    H9 1592   1.330   4.818   9.686  0.4616  0.1419 -0.5547
   22CHL1   C10 1593   1.491   4.786   9.821  0.7563 -0.0086  0.5774
   22CHL1   C19 1594   1.637   4.834   9.829 -0.1973  0.3892  0.1653
   22CHL1  H19A 1595   1.692   4.791   9.915  1.0732  0.2203 -0.7098
   22CHL1  H19B 1596   1.697   4.803   9.740  0.2254 -1.6548  1.1078
   22CHL1  H19C 1597   1.638   4.944   9.842 -0.2227  0.3550  0.4491
   22CHL1    C1 1598   1.401   4.853   9.931  0.1867 -0.7620 -0.0340
   22CHL1   H1A 1599   1.419   4.962   9.918  2.2564 -1.1189 -0.5725
   22CHL1   H1B 1600   1.290   4.846   9.934  0.0718  0.3964 -0.8930
   22CHL1    C2 1601   1.455   4.830  10.073  0.4433 -0.1436 -0.0108
   22CHL1   H2A 1602   1.376   4.875  10.136 -1.3602 -0.9842 -1.5863
   22CHL1   H2B 1603   1.557   4.874  10.075  0.0539  0.8943 -1.5335
   22CHL1   C20 1604   1.510   4.961   9.134  0.3381  0.4528  0.4415
   22CHL1   H20 1605   1.618   4.934   9.138  0.6259  1.6709  3.1438
   22CHL1   C21 1606   1.498   5.104   9.181 -0.9014 -0.6981  0.3096
   22CHL1  H21A 1607   1.543   5.110   9.282  0.3949  0.7242 -0.3134
   22CHL1  H21B 1608   1.397   5.147   9.165 -0.9637 -1.0070 -0.1746
   22CHL1  H21C 1609   1.568   5.152   9.109  0.4040 -1.6637  0.8836
   22CHL1   C22 1610   1.458   4.930   8.994  0.0160  0.3972 -0.1342
   22CHL1  H22A 1611   1.483   4.830   8.953  0.0278  0.7683 -1.0457
   22CHL1  H22B 1612   1.348   4.938   8.996  0.1042  1.9401 -0.3326
   22CHL1   C23 1613   1.507   5.024   8.884 -0.7533 -0.2059  0.2505
   22CHL1  H23A 1614   1.493   5.132   8.907  0.4926 -0.4476  2.4584
   22CHL1  H23B 1615   1.617   5.008   8.877 -0.9167 -0.8742 -1.2609
   22CHL1   C24 1616   1.453   4.988   8.742  1.2221  0.2808  0.0990
   22CHL1  H24A 1617   1.452   4.880   8.717 -1.1392  0.4043 -0.5739
   22CHL1  H24B 1618   1.345   5.013   8.743  0.9333 -0.9263 -0.2247
   22CHL1   C25 1619   1.513   5.056   8.614  0.5019 -0.2584  0.7597
   22CHL1   H25 1620   1.467   5.006   8.526 -1.7954  0.5298  1.4284
   22CHL1   C26 1621   1.457   5.204   8.611 -0.5640 -0.2427  1.0470
   22CHL1  H26A 1622   1.505   5.255   8.524 -2.3376 -1.1452 -0.5456
   22CHL1  H26B 1623   1.346   5.211   8.606 -0.5661 -0.6979  0.2424
   22CHL1  H26C 1624   1.495   5.247   8.706 -0.4506 -1.6640  1.6665
   22CHL1   C27 1625   1.663   5.044   8.602  0.3103  0.5496 -0.0447
   22CHL1  H27A 1626   1.693   4.937   8.613  0.5376  0.6545  0.3647
   22CHL1  H27B 1627   1.689   5.077   8.499 -1.7018 -1.4861 -1.3117
   22CHL1  H27C 1628   1.718   5.101   8.680 -0.1062 -1.5100  1.8353
   23CHL1    C3 1629   4.433   5.180  10.066 -0.5059  0.0367 -0.0698
   23CHL1    H3 1630   4.496   5.271  10.077 -0.4676  0.2776 -2.0060
   23CHL1    O3 1631   4.386   5.143  10.196  0.2407 -0.5254 -0.5633
   23CHL1   H3' 1632   4.341   5.061  10.175 -1.1780  0.0512  0.0668
   23CHL1    C4 1633   4.309   5.225   9.977  0.2781  0.3634 -0.0190
   23CHL1   H4A 1634   4.223   5.154   9.981 -0.4952  1.2858  0.0259
   23CHL1   H4B 1635   4.272   5.316  10.028  2.6353  1.1018  0.4919
   23CHL1    C5 1636   4.339   5.255   9.840 -0.8883  0.2939  0.2116
   23CHL1    C6 1637   4.299   5.365   9.775  0.4267 -0.3258 -0.1907
   23CHL1    H6 1638   4.246   5.444   9.831 -0.2165 -0.2375 -0.9006
   23CHL1    C7 1639   4.319   5.400   9.627 -0.3034 -0.4756 -0.4765
   23CHL1   H7A 1640   4.223   5.442   9.593 -1.5220 -1.3145  1.7491
   23CHL1   H7B 1641   4.400   5.476   9.619  1.5953 -1.9357  2.6553
   23CHL1    C8 1642   4.368   5.287   9.548  0.3661 -0.2894 -0.3333
   23CHL1    H8 1643   4.280   5.232   9.510 -0.6454  1.5185 -0.7156
   23CHL1   C14 1644   4.442   5.343   9.420  0.2856  0.8831 -0.2764
   23CHL1   H14 1645   4.538   5.389   9.453  1.8912 -1.3499 -1.5483
   23CHL1   C15 1646   4.370   5.450   9.331  0.0807  0.2633 -0.2542
   23CHL1  H15A 1647   4.272   5.400   9.312  1.9821 -3.6680 -0.8436
   23CHL1  H15B 1648   4.366   5.547   9.385 -2.9243 -0.1145  0.3754
   23CHL1   C16 1649   4.462   5.455   9.208  0.2110  0.4347  0.2974
   23CHL1  H16A 1650   4.404   5.470   9.114 -2.6765  1.6930  2.1195
   23CHL1  H16B 1651   4.525   5.546   9.218 -0.6297  1.0039  0.6109
   23CHL1   C17 1652   4.562   5.336   9.215 -0.4658  0.2092 -0.0403
   23CHL1   H17 1653   4.652   5.382   9.260  1.2577 -0.4443 -2.5796
   23CHL1   C13 1654   4.498   5.240   9.321  0.8041 -0.2240 -0.2830
   23CHL1   C18 1655   4.386   5.159   9.238 -0.5548 -0.0787 -0.6818
   23CHL1  H18A 1656   4.336   5.223   9.162 -0.7416  4.0675  2.5427
   23CHL1  H18B 1657   4.428   5.065   9.197  0.3585 -1.5354  3.1689
   23CHL1  H18C 1658   4.313   5.127   9.315 -0.8460  0.3654 -0.7673
   23CHL1   C12 1659   4.596   5.146   9.397 -0.8549  0.4637 -0.6359
   23CHL1  H12A 1660   4.640   5.064   9.337 -0.9600 -1.0100  1.1950
   23CHL1  H12B 1661   4.677   5.205   9.446 -1.1778 -1.5592  2.6740
   23CHL1   C11 1662   4.525   5.088   9.521 -0.2947 -0.8524 -0.9389
   23CHL1  H11A 1663   4.445   5.022   9.479 -2.3584 -0.5741  2.1624
   23CHL1  H11B 1664   4.602   5.023   9.569 -0.6743 -0.2507  0.5347
   23CHL1    C9 1665   4.473   5.199   9.618  0.1067 -0.8129  0.4366
   23CHL1    H9 1666   4.559   5.266   9.640 -2.0166  2.2435  0.0347
   23CHL1   C10 1667   4.430   5.150   9.761 -0.0544 -0.3668 -0.0745
   23CHL1   C19 1668   4.335   5.027   9.739  0.0124  0.1550 -0.1843
   23CHL1  H19A 1669   4.263   5.048   9.657  2.1728  0.0696 -2.2225
   23CHL1  H19B 1670   4.391   4.941   9.696 -1.2322 -1.1819  0.7845
   23CHL1  H19C 1671   4.287   4.986   9.830  0.8751  1.3443  0.8489
   23CHL1    C1 1672   4.549   5.110   9.851  0.6035 -0.7510  0.2164
   23CHL1   H1A 1673   4.601   5.025   9.803  0.6669  0.6696 -2.3916
   23CHL1   H1B 1674   4.611   5.202   9.844 -1.0871  0.3487 -1.2385
   23CHL1    C2 1675   4.516   5.069   9.991  0.4357  0.1119 -0.5411
   23CHL1   H2A 1676   4.611   5.051  10.045 -0.9500  0.9465  2.3843
   23CHL1   H2B 1677   4.456   4.975   9.994 -0.5799  0.7629  0.7215
   23CHL1   C20 1678   4.605   5.284   9.072 -0.0514  0.1792 -0.0381
   23CHL1   H20 1679   4.522   5.235   9.017  0.9052 -2.0786  0.4438
   23CHL1   C21 1680   4.715   5.178   9.091  0.5053 -0.3244  0.7044
   23CHL1  H21A 1681   4.746   5.146   8.989 -0.8878  0.0400  0.1450
   23CHL1  H21B 1682   4.683   5.088   9.149 -2.0787  2.0507  3.2650
   23CHL1  H21C 1683   4.793   5.225   9.154 -1.2850  1.1216  1.9583
   23CHL1   C22 1684   4.653   5.399   8.969 -0.6248  0.7975 -0.2229
   23CHL1  H22A 1685   4.590   5.491   8.975  0.8404  1.7667  1.2164
   23CHL1  H22B 1686   4.747   5.426   9.021 -1.0332 -0.6600  1.3600
   23CHL1   C23 1687   4.675   5.360   8.827  0.1719 -1.3091  0.7095
   23CHL1  H23A 1688   4.722   5.259   8.831 -1.3864 -2.0291  2.4623
   23CHL1  H23B 1689   4.578   5.352   8.774  1.3658  0.2747 -1.9146
   23CHL1   C24 1690   4.763   5.463   8.751 -0.3594 -0.1083  0.0040
   23CHL1  H24A 1691   4.718   5.564   8.758  1.3713  0.8467 -1.5965
   23CHL1  H24B 1692   4.861   5.477   8.803  0.6044  0.9749 -1.9932
   23CHL1   C25 1693   4.791   5.429   8.608  0.3014 -0.5243 -0.1457
   23CHL1   H25 1694   4.844   5.521   8.574 -1.2777  1.0068  1.3375
   23CHL1   C26 1695   4.882   5.310   8.574  0.1944 -0.2651 -0.2243
   23CHL1  H26A 1696   4.978   5.323   8.628  0.2471 -0.9517 -0.1406
   23CHL1  H26B 1697   4.830   5.219   8.612  0.7500 -0.4853  0.0251
   23CHL1  H26C 1698   4.898   5.301   8.465  0.7073  1.0899 -0.2763
   23CHL1   C27 1699   4.671   5.438   8.513 -0.1645 -0.0373  0.8731
   23CHL1  H27A 1700   4.611   5.522   8.556  1.1980  1.3863  0.1236
   23CHL1  H27B 1701   4.697   5.468   8.409 -0.0288 -2.0524  0.2863
   23CHL1  H27C 1702   4.604   5.351   8.518 -1.4388  0.9080  0.6814
   24CHL1    C3 1703   6.317   4.796  10.300  0.0776  1.0240  0.2881
   24CHL1    H3 1704   6.258   4.889  10.312  0.4997  1.4850 -1.0065
   24CHL1    O3 1705   6.359   4.763  10.430 -0.4975  0.4648 -0.2348
   24CHL1   H3' 1706   6.425   4.696  10.414  0.2216  1.1194 -0.0983
   24CHL1    C4 1707   6.244   4.685  10.235 -0.2378 -0.6946 -0.7526
   24CHL1   H4A 1708   6.306   4.593  10.243 -0.4567 -0.8587 -0.9378
   24CHL1   H4B 1709   6.154   4.661  10.296 -0.4980  1.4080 -0.2279
   24CHL1    C5 1710   6.217   4.714  10.093 -0.3194  0.1977  0.0357
   24CHL1    C6 1711   6.095   4.690  10.049 -0.0673  0.0726 -0.1448
   24CHL1    H6 1712   6.029   4.644  10.123  1.2905 -0.0650  1.0243
   24CHL1    C7 1713   6.044   4.702   9.905 -0.5647 -0.3269 -0.1917
   24CHL1   H7A 1714   5.995   4.609   9.869  2.4998 -0.5840 -4.3550
   24CHL1   H7B 1715   5.975   4.789   9.900  1.7007  1.5365 -0.3986
   24CHL1    C8 1716   6.160   4.731   9.809 -0.3487 -0.8023 -0.6779
   24CHL1    H8 1717   6.214   4.636   9.786 -0.8308 -1.4989  0.9483
   24CHL1   C14 1718   6.101   4.799   9.677  0.0673  0.4726 -0.5380
   24CHL1   H14 1719   6.058   4.895   9.713  0.4727  0.3750  0.2305
   24CHL1   C15 1720   5.973   4.736   9.607 -0.0964 -0.0022  0.0895
   24CHL1  H15A 1721   5.967   4.625   9.617 -1.2271  0.0849  0.4909
   24CHL1  H15B 1722   5.884   4.771   9.663 -0.8249 -0.5809 -0.6741
   24CHL1   C16 1723   5.981   4.798   9.469  0.3446  0.5633 -0.5838
   24CHL1  H16A 1724   5.976   4.704   9.409 -3.2239  0.5833 -0.5145
   24CHL1  H16B 1725   5.897   4.862   9.436  1.0494  1.1712 -1.2405
   24CHL1   C17 1726   6.115   4.874   9.457  0.3771 -0.0156  0.1962
   24CHL1   H17 1727   6.090   4.982   9.473 -1.9785 -0.5093  0.2538
   24CHL1   C13 1728   6.203   4.824   9.572  0.4538  0.4012 -0.2979
   24CHL1   C18 1729   6.264   4.693   9.538  0.0235  0.8023 -0.1209
   24CHL1  H18A 1730   6.330   4.656   9.619 -1.2387 -0.9533  0.1602
   24CHL1  H18B 1731   6.195   4.612   9.503  1.2996  0.6031 -2.3693
   24CHL1  H18C 1732   6.330   4.702   9.449 -2.4747  0.5220 -2.1481
   24CHL1   C12 1733   6.309   4.923   9.634 -0.2164 -0.3086 -0.2841
   24CHL1  H12A 1734   6.391   4.954   9.566 -0.0175  0.2112  0.1901
   24CHL1  H12B 1735   6.241   5.005   9.668  0.2862 -0.5068  1.2630
   24CHL1   C11 1736   6.371   4.867   9.763  0.0159  0.2796 -0.0848
   24CHL1  H11A 1737   6.438   4.780   9.742 -0.5588 -0.4229  0.9387
   24CHL1  H11B 1738   6.441   4.946   9.798  1.4021 -0.5185 -0.9539
   24CHL1    C9 1739   6.267   4.825   9.877  0.1644  0.0811  0.0507
   24CHL1    H9 1740   6.218   4.920   9.906  0.8090  0.0078  1.4631
   24CHL1   C10 1741   6.333   4.768  10.003  0.4685 -0.6088  0.1326
   24CHL1   C19 1742   6.433   4.657   9.969  0.4075 -0.5636 -0.4687
   24CHL1  H19A 1743   6.396   4.578   9.901  0.9338 -1.5402  0.3540
   24CHL1  H19B 1744   6.517   4.707   9.916 -0.9356  2.1990 -0.1698
   24CHL1  H19C 1745   6.466   4.605  10.062  3.8633  1.0731 -0.6425
   24CHL1    C1 1746   6.399   4.884  10.080 -0.1587 -0.2270 -0.3628
   24CHL1   H1A 1747   6.491   4.917  10.027  1.2167 -1.1321  1.3894
   24CHL1   H1B 1748   6.338   4.976  10.062 -1.1267 -1.0343 -1.3657
   24CHL1    C2 1749   6.442   4.852  10.226  0.4295 -0.3620  0.5088
   24CHL1   H2A 1750   6.484   4.940  10.278 -0.0016  0.5746 -0.6643
   24CHL1   H2B 1751   6.510   4.764  10.225  1.3011  0.2723 -1.3072
   24CHL1   C20 1752   6.172   4.869   9.310 -0.7801  0.9336  0.0854
   24CHL1   H20 1753   6.186   4.764   9.276 -0.7935  1.2528 -0.9054
   24CHL1   C21 1754   6.303   4.946   9.306 -0.4527 -1.0980  0.2812
   24CHL1  H21A 1755   6.343   4.943   9.202  0.7271  0.1644  0.6657
   24CHL1  H21B 1756   6.384   4.895   9.362  1.3742  1.1010 -0.1923
   24CHL1  H21C 1757   6.303   5.052   9.341  1.5533 -0.7724 -0.5678
   24CHL1   C22 1758   6.064   4.936   9.223 -0.6684  0.5080 -0.7551
   24CHL1  H22A 1759   5.973   4.873   9.236  1.4856 -3.1230 -1.8635
   24CHL1  H22B 1760   6.047   5.036   9.270 -1.4607 -0.8487  2.0426
   24CHL1   C23 1761   6.093   4.956   9.072 -0.2127 -0.2464  0.0563
   24CHL1  H23A 1762   6.170   5.035   9.065 -0.5898  0.3425  1.9121
   24CHL1  H23B 1763   6.136   4.863   9.028  1.9293  0.6970  0.0416
   24CHL1   C24 1764   5.962   4.984   8.996  0.4516 -0.1254 -0.5144
   24CHL1  H24A 1765   5.880   4.914   9.022 -0.6645  1.1918 -0.3867
   24CHL1  H24B 1766   5.929   5.086   9.027 -0.7569 -0.4669 -0.6446
   24CHL1   C25 1767   5.982   4.970   8.835  0.8010  0.2796 -0.1636
   24CHL1   H25 1768   6.031   4.871   8.819  0.4227  0.1094 -0.2652
   24CHL1   C26 1769   5.833   4.972   8.781 -0.0653  0.0720  0.3998
   24CHL1  H26A 1770   5.825   4.983   8.671  0.0342  1.5229  0.5066
   24CHL1  H26B 1771   5.784   4.879   8.815 -0.7740  0.3242  0.0882
   24CHL1  H26C 1772   5.774   5.060   8.816  0.1218  0.7301 -0.8644
   24CHL1   C27 1773   6.053   5.096   8.768 -0.1844  0.3475  0.1916
   24CHL1  H27A 1774   6.003   5.193   8.789  0.6895  1.1944 -1.4398
   24CHL1  H27B 1775   6.152   5.118   8.813  0.7433  0.7596 -1.9132
   24CHL1  H27C 1776   6.064   5.081   8.658 -0.2844  1.3576  0.0389
   25CHL1    C3 1777   1.527   0.019  10.153  0.5478  0.2191 -0.1242
   25CHL1    H3 1778   1.594  -0.069  10.154  0.7749  0.3869 -0.5986
   25CHL1    O3 1779   1.522   0.069  10.288 -0.8011 -0.2223  0.0450
   25CHL1   H3' 1780   1.466   0.146  10.274  1.3498  1.4555  0.1673
   25CHL1    C4 1781   1.584   0.124  10.056  0.7008 -0.8649  0.0179
   25CHL1   H4A 1782   1.524   0.217  10.052  1.9781  0.0095  0.5579
   25CHL1   H4B 1783   1.684   0.160  10.090  0.2785 -0.0910  0.4876
   25CHL1    C5 1784   1.595   0.070   9.920 -0.0128 -0.1777 -0.1265
   25CHL1    C6 1785   1.706   0.081   9.845 -0.6611 -0.3013  0.2270
   25CHL1    H6 1786   1.798   0.120   9.890 -0.8617  1.1599 -0.5776
   25CHL1    C7 1787   1.712   0.038   9.701  0.4808 -0.2701 -0.1717
   25CHL1   H7A 1788   1.785   0.102   9.646 -2.0440  0.7373 -2.5729
   25CHL1   H7B 1789   1.755  -0.064   9.691 -0.7869 -1.0226  1.5746
   25CHL1    C8 1790   1.568   0.037   9.639 -0.0539  0.5256  0.3881
   25CHL1    H8 1791   1.532   0.142   9.631 -3.1595 -0.5270 -1.3872
   25CHL1   C14 1792   1.577  -0.021   9.495  0.2347  0.5498 -0.1164
   25CHL1   H14 1793   1.610  -0.126   9.510 -3.2425 -0.7892 -0.8852
   25CHL1   C15 1794   1.668   0.049   9.397  0.0321  0.6335  0.0506
   25CHL1  H15A 1795   1.669   0.160   9.406 -2.0403  0.7208 -0.2852
   25CHL1  H15B 1796   1.768   0.003   9.414 -0.1606  0.5518  1.0340
   25CHL1   C16 1797   1.612   0.022   9.259 -0.1392 -0.2098 -0.5823
   25CHL1  H16A 1798   1.584   0.121   9.217 -0.7566  0.0931  0.4886
   25CHL1  H16B 1799   1.689  -0.024   9.194  1.0974  1.9694 -0.7673
   25CHL1   C17 1800   1.479  -0.053   9.285  0.7424  0.3904  1.0692
   25CHL1   H17 1801   1.493  -0.163   9.285 -0.4946  0.1778  3.0177
   25CHL1   C13 1802   1.439  -0.024   9.432  0.3512 -0.4423 -0.7905
   25CHL1   C18 1803   1.374   0.110   9.431  0.0138 -0.1463  0.0064
   25CHL1  H18A 1804   1.344   0.142   9.533 -0.6982 -0.7553 -0.0010
   25CHL1  H18B 1805   1.450   0.182   9.395  1.1975 -0.7462  1.2044
   25CHL1  H18C 1806   1.282   0.104   9.370  0.9038  0.0361 -1.3954
   25CHL1   C12 1807   1.350  -0.128   9.507  0.0271 -0.0029  0.8140
   25CHL1  H12A 1808   1.252  -0.111   9.458  1.1464  0.9009 -1.2435
   25CHL1  H12B 1809   1.378  -0.235   9.491  1.8263  0.7508 -1.7426
   25CHL1   C11 1810   1.342  -0.092   9.657  0.5578  0.5107  0.1842
   25CHL1  H11A 1811   1.269  -0.009   9.667  1.3498  1.3149 -0.4687
   25CHL1  H11B 1812   1.298  -0.182   9.705 -0.1053 -1.0045 -2.9405
   25CHL1    C9 1813   1.479  -0.044   9.724  0.1384  0.9976  0.0274
   25CHL1    H9 1814   1.534  -0.140   9.733  2.4301  1.8870 -3.1146
   25CHL1   C10 1815   1.464   0.015   9.865 -0.1373  0.0251 -0.7644
   25CHL1   C19 1816   1.369   0.137   9.847  0.1342 -0.4494 -0.3380
   25CHL1  H19A 1817   1.360   0.197   9.940 -1.8995  1.3589 -1.6115
   25CHL1  H19B 1818   1.408   0.206   9.769  1.5688  0.7267  1.3416
   25CHL1  H19C 1819   1.268   0.100   9.818  0.4735 -1.0882 -0.7336
   25CHL1    C1 1820   1.398  -0.080   9.961 -0.3966 -0.8010 -0.4889
   25CHL1   H1A 1821   1.297  -0.111   9.926  0.1452 -1.9065 -1.0888
   25CHL1   H1B 1822   1.449  -0.177   9.974  0.2139 -0.3068  1.0618
   25CHL1    C2 1823   1.386  -0.022  10.105  0.2184  0.3418  0.1166
   25CHL1   H2A 1824   1.340  -0.099  10.171  1.8899  0.3799  1.4091
   25CHL1   H2B 1825   1.315   0.062  10.103  0.8169  0.9593  2.0903
   25CHL1   C20 1826   1.383  -0.027   9.165 -0.4606 -0.6644 -0.0622
   25CHL1   H20 1827   1.359   0.081   9.155  2.7326  0.1342 -0.0875
   25CHL1   C21 1828   1.255  -0.112   9.183  0.6272  0.7667  0.1398
   25CHL1  H21A 1829   1.196  -0.082   9.272  1.1966 -2.4803  1.7674
   25CHL1  H21B 1830   1.282  -0.220   9.178  0.4718  0.5789  2.2507
   25CHL1  H21C 1831   1.186  -0.093   9.099  0.0905 -0.5154  0.2599
   25CHL1   C22 1832   1.450  -0.072   9.033 -0.1009  0.2674 -0.1756
   25CHL1  H22A 1833   1.552  -0.033   9.015  0.8804 -0.3934  3.2839
   25CHL1  H22B 1834   1.457  -0.182   9.022 -0.1822  0.4486 -2.9762
   25CHL1   C23 1835   1.376  -0.040   8.902  0.6473 -0.2859  0.4493
   25CHL1  H23A 1836   1.272  -0.079   8.908 -0.2481  2.0794  1.7159
   25CHL1  H23B 1837   1.361   0.070   8.889  2.0053 -0.2995 -1.8356
   25CHL1   C24 1838   1.451  -0.100   8.775  0.3561 -0.0743  0.5350
   25CHL1  H24A 1839   1.549  -0.050   8.762  1.0362 -0.7479  2.5836
   25CHL1  H24B 1840   1.468  -0.209   8.786  0.1307 -0.0156  1.6324
   25CHL1   C25 1841   1.385  -0.076   8.634  0.5529 -0.3280  0.2240
   25CHL1   H25 1842   1.366   0.033   8.624  2.8397  0.0576 -0.4459
   25CHL1   C26 1843   1.491  -0.104   8.517 -0.4158 -0.4798  0.3712
   25CHL1  H26A 1844   1.572  -0.028   8.524  0.4343 -1.5068  3.1067
   25CHL1  H26B 1845   1.531  -0.207   8.530  0.6664 -0.1197  0.0081
   25CHL1  H26C 1846   1.446  -0.087   8.417 -0.1405 -2.7673 -0.2001
   25CHL1   C27 1847   1.258  -0.153   8.621  0.5136 -0.0625  0.5842
   25CHL1  H27A 1848   1.178  -0.107   8.683 -1.6295 -1.5159 -0.9533
   25CHL1  H27B 1849   1.214  -0.131   8.521  0.9010 -1.8229 -0.0077
   25CHL1  H27C 1850   1.279  -0.259   8.647 -1.8528 -0.3545  1.6101
   26CHL1    C3 1851   1.907   4.195   9.844 -0.3019  0.2444  0.7426
   26CHL1    H3 1852   1.925   4.090   9.811  0.3690  0.7464 -0.5868
   26CHL1    O3 1853   1.936   4.221   9.983  0.4551  0.3421  0.1484
   26CHL1   H3' 1854   1.904   4.311   9.994  1.5282  0.6481  0.8251
   26CHL1    C4 1855   1.999   4.283   9.758  0.2988  0.1083  0.0723
   26CHL1   H4A 1856   1.977   4.387   9.790 -2.2056 -0.6595  1.1438
   26CHL1   H4B 1857   2.102   4.247   9.780 -0.1320 -1.1888  0.0693
   26CHL1    C5 1858   1.969   4.274   9.609 -0.4691  0.0112  0.5589
   26CHL1    C6 1859   2.071   4.235   9.530 -0.1784 -0.1413 -0.1446
   26CHL1    H6 1860   2.172   4.221   9.572  0.1047  1.1560 -0.3631
   26CHL1    C7 1861   2.050   4.228   9.378 -0.5498 -0.1194  0.0778
   26CHL1   H7A 1862   2.132   4.283   9.328 -0.6033 -0.7570 -0.7256
   26CHL1   H7B 1863   2.049   4.121   9.349 -2.6915 -0.3790  0.9489
   26CHL1    C8 1864   1.916   4.300   9.330 -0.1539  1.1521  0.1684
   26CHL1    H8 1865   1.948   4.406   9.337  3.2499  0.2078  0.4926
   26CHL1   C14 1866   1.871   4.263   9.188 -0.0544 -0.1271  0.5576
   26CHL1   H14 1867   1.853   4.154   9.178 -0.9584 -0.0257  0.9999
   26CHL1   C15 1868   1.972   4.296   9.080 -0.4409 -0.5187  0.6477
   26CHL1  H15A 1869   2.019   4.395   9.100  1.7817 -1.1458 -1.1603
   26CHL1  H15B 1870   2.048   4.217   9.070  1.1298  0.9703  0.3780
   26CHL1   C16 1871   1.889   4.306   8.954 -0.4155 -0.8420  0.2456
   26CHL1  H16A 1872   1.920   4.396   8.897 -0.5178 -1.5195 -0.9247
   26CHL1  H16B 1873   1.909   4.215   8.894 -1.3995 -1.3003  0.5784
   26CHL1   C17 1874   1.739   4.308   8.991 -0.1150 -0.1542  0.3413
   26CHL1   H17 1875   1.703   4.203   8.989  2.1397 -1.0093  0.8910
   26CHL1   C13 1876   1.741   4.332   9.138 -0.2093 -0.5117 -0.2422
   26CHL1   C18 1877   1.760   4.491   9.153 -0.0957 -0.0578 -0.7523
   26CHL1  H18A 1878   1.660   4.529   9.122 -1.1138 -2.2010 -0.2862
   26CHL1  H18B 1879   1.771   4.529   9.257  3.9851 -0.4766 -0.8600
   26CHL1  H18C 1880   1.837   4.535   9.086 -0.3134 -2.2035 -2.5200
   26CHL1   C12 1881   1.632   4.272   9.218 -0.2973 -0.6546 -0.2615
   26CHL1  H12A 1882   1.535   4.317   9.188 -0.8658 -2.2742 -1.0118
   26CHL1  H12B 1883   1.628   4.161   9.205  0.0800 -0.6087 -0.8078
   26CHL1   C11 1884   1.658   4.301   9.366  0.6328  0.3894  0.0672
   26CHL1  H11A 1885   1.632   4.407   9.387  2.8589  0.4424  3.3577
   26CHL1  H11B 1886   1.584   4.251   9.433  0.4464 -3.2393 -2.5645
   26CHL1    C9 1887   1.801   4.255   9.428  0.3169 -1.5355 -0.1550
   26CHL1    H9 1888   1.810   4.145   9.425  0.1211 -1.5705  0.4862
   26CHL1   C10 1889   1.821   4.308   9.574 -0.3585  0.2549  0.4281
   26CHL1   C19 1890   1.787   4.454   9.586 -0.4396 -0.4377  0.1797
   26CHL1  H19A 1891   1.852   4.505   9.512  1.6327  2.0715  3.4097
   26CHL1  H19B 1892   1.680   4.483   9.580 -0.5440 -0.5644  1.2567
   26CHL1  H19C 1893   1.828   4.508   9.675 -0.0906  1.2354 -0.9498
   26CHL1    C1 1894   1.722   4.223   9.669  0.2163 -0.2260  0.2487
   26CHL1   H1A 1895   1.617   4.253   9.653  0.3345 -0.3056 -0.7584
   26CHL1   H1B 1896   1.748   4.121   9.634 -0.5273 -0.4209  0.2547
   26CHL1    C2 1897   1.754   4.231   9.818  0.0694  0.8888 -0.3026
   26CHL1   H2A 1898   1.691   4.154   9.868 -0.4302  1.7874  0.4809
   26CHL1   H2B 1899   1.732   4.328   9.866 -0.2126 -0.2210  1.9464
   26CHL1   C20 1900   1.655   4.399   8.890  0.7697 -0.4365  0.2052
   26CHL1   H20 1901   1.659   4.505   8.923 -0.7683 -0.7049  1.3737
   26CHL1   C21 1902   1.509   4.349   8.897  0.2644 -0.7563  0.2978
   26CHL1  H21A 1903   1.457   4.385   8.805 -0.6161 -4.2432 -0.7321
   26CHL1  H21B 1904   1.460   4.384   8.990 -0.3033  0.1543 -0.3214
   26CHL1  H21C 1905   1.501   4.238   8.888 -0.5980 -0.5444 -2.7657
   26CHL1   C22 1906   1.701   4.388   8.746 -0.1455 -0.8213  0.0694
   26CHL1  H22A 1907   1.641   4.456   8.682  0.2122 -0.4389  0.1339
   26CHL1  H22B 1908   1.805   4.422   8.727 -0.2294  0.5343  1.8019
   26CHL1   C23 1909   1.694   4.247   8.683 -0.8763  0.5959  0.3875
   26CHL1  H23A 1910   1.774   4.186   8.729 -1.0051 -0.6257 -0.9569
   26CHL1  H23B 1911   1.604   4.189   8.714  0.7836 -2.3223  0.1031
   26CHL1   C24 1912   1.710   4.248   8.527  0.1427  0.6496  0.3307
   26CHL1  H24A 1913   1.660   4.342   8.495 -0.0295 -0.1534 -1.9411
   26CHL1  H24B 1914   1.820   4.256   8.513  0.3734 -1.1495  0.8107
   26CHL1   C25 1915   1.660   4.135   8.442  0.5980 -0.8199  0.6492
   26CHL1   H25 1916   1.558   4.116   8.481  0.0042 -1.4979 -1.1177
   26CHL1   C26 1917   1.627   4.174   8.290 -0.5637 -0.3412  0.4631
   26CHL1  H26A 1918   1.568   4.094   8.241 -0.9470  0.4898 -0.4740
   26CHL1  H26B 1919   1.564   4.264   8.304  1.2911  1.3252 -1.2531
   26CHL1  H26C 1920   1.711   4.201   8.222 -1.0234  0.8883  0.3606
   26CHL1   C27 1921   1.750   4.013   8.458  0.3361  0.5695 -0.2938
   26CHL1  H27A 1922   1.818   3.999   8.370 -1.5650  0.9369 -1.8842
   26CHL1  H27B 1923   1.811   4.014   8.551  0.3771 -1.0036 -0.2677
   26CHL1  H27C 1924   1.700   3.914   8.461  1.6804 -0.1096  1.3970
   27CHL1    C3 1925   1.997   1.118  10.160  0.7408 -0.2464 -0.2837
   27CHL1    H3 1926   1.915   1.131  10.086  1.8408 -1.5778 -1.8149
   27CHL1    O3 1927   1.929   1.109  10.287  0.0845  0.0212 -0.5046
   27CHL1   H3' 1928   1.843   1.152  10.279 -0.2140 -0.2870  0.8148
   27CHL1    C4 1929   2.080   0.997  10.129  0.3694 -0.0465 -0.0119
   27CHL1   H4A 1930   2.165   0.995  10.200  2.4991  1.6977 -2.3158
   27CHL1   H4B 1931   2.015   0.908  10.140  3.2720 -2.3785 -0.2526
   27CHL1    C5 1932   2.150   1.009   9.987  0.0214 -0.4350  0.8518
   27CHL1    C6 1933   2.128   0.912   9.893 -0.4928  0.0240 -0.5179
   27CHL1    H6 1934   2.067   0.826   9.924  1.6959 -0.6224  2.3741
   27CHL1    C7 1935   2.182   0.918   9.754  0.1858 -0.0564  0.0053
   27CHL1   H7A 1936   2.224   0.825   9.711 -0.2825 -0.0053 -0.5636
   27CHL1   H7B 1937   2.095   0.943   9.690 -0.9936 -1.1822  1.1070
   27CHL1    C8 1938   2.287   1.035   9.727  0.0745  0.8616 -0.1085
   27CHL1    H8 1939   2.390   1.002   9.754 -0.7475 -2.3210 -0.4630
   27CHL1   C14 1940   2.279   1.083   9.584  0.8492  0.5558  0.0242
   27CHL1   H14 1941   2.174   1.116   9.565  0.5149 -0.0065  0.8701
   27CHL1   C15 1942   2.297   0.982   9.469 -0.7310  0.9784 -0.7172
   27CHL1  H15A 1943   2.391   0.923   9.479 -3.4211 -3.6693  0.0672
   27CHL1  H15B 1944   2.210   0.914   9.480  0.3267 -0.2800  0.2324
   27CHL1   C16 1945   2.308   1.060   9.350 -0.2534  0.0262 -0.0038
   27CHL1  H16A 1946   2.401   1.031   9.296 -0.3089 -0.0963 -0.0329
   27CHL1  H16B 1947   2.223   1.040   9.281 -1.2402  0.6513  0.9961
   27CHL1   C17 1948   2.311   1.214   9.392  0.2223  0.3111  0.2834
   27CHL1   H17 1949   2.206   1.247   9.406 -0.0520 -1.2045  2.4091
   27CHL1   C13 1950   2.359   1.203   9.543 -0.0069 -0.1165  0.2342
   27CHL1   C18 1951   2.504   1.151   9.557 -0.8409 -0.0787  0.1879
   27CHL1  H18A 1952   2.563   1.243   9.537 -0.8523 -0.1520 -0.1960
   27CHL1  H18B 1953   2.534   1.129   9.662  0.6194  2.1481  0.3071
   27CHL1  H18C 1954   2.547   1.077   9.486 -0.5174  1.3058 -1.1146
   27CHL1   C12 1955   2.325   1.322   9.629  0.4720  0.5734 -0.2213
   27CHL1  H12A 1956   2.406   1.396   9.612  2.2011 -1.2100 -0.0373
   27CHL1  H12B 1957   2.222   1.352   9.600  0.0478  0.0105  0.6586
   27CHL1   C11 1958   2.333   1.286   9.779  0.1510  0.2175  0.1307
   27CHL1  H11A 1959   2.440   1.274   9.807 -0.5122 -1.7164  2.1562
   27CHL1  H11B 1960   2.295   1.376   9.832  1.6996 -0.0842  1.8441
   27CHL1    C9 1961   2.249   1.156   9.812  0.7968  0.1633 -0.5768
   27CHL1    H9 1962   2.146   1.188   9.783  0.7114  1.0628  0.6441
   27CHL1   C10 1963   2.229   1.133   9.970  1.4116 -0.2894  0.6855
   27CHL1   C19 1964   2.367   1.117  10.035 -0.1370 -0.4005 -0.4911
   27CHL1  H19A 1965   2.362   1.068  10.135 -2.1304  2.4776  0.9501
   27CHL1  H19B 1966   2.427   1.058   9.962 -0.4813 -0.5339 -0.6680
   27CHL1  H19C 1967   2.414   1.217  10.041  0.7192 -0.8694  0.9414
   27CHL1    C1 1968   2.145   1.257  10.025  0.3522  0.7249  0.3289
   27CHL1   H1A 1969   2.218   1.341  10.028  1.6155 -0.2317 -1.7135
   27CHL1   H1B 1970   2.068   1.288   9.951 -1.2480  1.9168  2.3896
   27CHL1    C2 1971   2.077   1.241  10.166  0.3017  0.0572 -0.4217
   27CHL1   H2A 1972   2.014   1.326  10.199 -0.7870 -0.5848 -0.8264
   27CHL1   H2B 1973   2.160   1.231  10.240  0.2519 -0.4610 -0.4327
   27CHL1   C20 1974   2.384   1.301   9.291 -0.6630 -0.0986 -0.0322
   27CHL1   H20 1975   2.488   1.262   9.284 -1.0604 -1.0426 -0.9052
   27CHL1   C21 1976   2.383   1.452   9.324 -0.0017  0.2288 -0.3077
   27CHL1  H21A 1977   2.277   1.481   9.343  0.3352  0.3505  1.5929
   27CHL1  H21B 1978   2.430   1.519   9.249 -1.0687  0.3918 -0.8605
   27CHL1  H21C 1979   2.442   1.462   9.417  2.1616 -0.4451 -1.5190
   27CHL1   C22 1980   2.326   1.288   9.144  0.0167  0.8412  0.4470
   27CHL1  H22A 1981   2.255   1.203   9.136  1.8811 -0.6984 -0.9122
   27CHL1  H22B 1982   2.278   1.381   9.107  1.2413  0.3235 -2.7607
   27CHL1   C23 1983   2.429   1.253   9.034  0.1581 -0.2264 -0.2839
   27CHL1  H23A 1984   2.522   1.313   9.050 -0.4027  0.2442  1.4658
   27CHL1  H23B 1985   2.468   1.149   9.036  3.3730  0.8539  0.1981
   27CHL1   C24 1986   2.365   1.285   8.893  0.2076  0.6260 -0.6068
   27CHL1  H24A 1987   2.282   1.213   8.879  1.1913 -1.0099  1.4032
   27CHL1  H24B 1988   2.332   1.391   8.886  0.4128  0.7191 -0.2033
   27CHL1   C25 1989   2.469   1.270   8.781 -0.0526 -0.0916 -0.5329
   27CHL1   H25 1990   2.533   1.180   8.787 -2.9261 -2.4432 -2.4341
   27CHL1   C26 1991   2.400   1.264   8.646 -0.2292  0.4073  0.4006
   27CHL1  H26A 1992   2.370   1.363   8.604  0.2839 -0.4336 -2.0940
   27CHL1  H26B 1993   2.476   1.238   8.569 -1.2304 -0.8209 -0.1949
   27CHL1  H26C 1994   2.317   1.191   8.650  0.2922 -0.1883  0.5192
   27CHL1   C27 1995   2.564   1.397   8.781  0.2192 -0.0454  0.5098
   27CHL1  H27A 1996   2.620   1.408   8.686  1.0771 -2.7578  0.5998
   27CHL1  H27B 1997   2.506   1.487   8.810  0.4519 -0.3609  2.0832
   27CHL1  H27C 1998   2.633   1.392   8.868 -0.0642 -1.4035  0.6742
   28CHL1    C3 1999   2.682   6.262   9.948 -0.2944  0.9069  1.0679
   28CHL1    H3 2000   2.573   6.272   9.930  0.1332  0.7408 -2.2355
   28CHL1    O3 2001   2.708   6.285  10.090 -0.0939  0.0014  0.4019
   28CHL1   H3' 2002   2.803   6.288  10.103  0.0446  3.0138 -0.6080
   28CHL1    C4 2003   2.720   6.116   9.911 -0.4592 -0.9291  0.3470
   28CHL1   H4A 2004   2.819   6.108   9.960  1.2204  3.7256 -1.6756
   28CHL1   H4B 2005   2.654   6.051   9.971 -1.5436  1.5432  1.9879
   28CHL1    C5 2006   2.740   6.087   9.762 -0.0960 -0.0862  0.5189
   28CHL1    C6 2007   2.670   5.979   9.709 -0.6389 -0.7396  0.3217
   28CHL1    H6 2008   2.604   5.911   9.766  0.2185 -2.0114 -0.1731
   28CHL1    C7 2009   2.679   5.948   9.563 -0.4957  0.3609  0.0863
   28CHL1   H7A 2010   2.703   5.840   9.554  1.0814  0.4545  2.4199
   28CHL1   H7B 2011   2.584   5.982   9.517 -0.3865 -0.1414 -0.5192
   28CHL1    C8 2012   2.792   6.018   9.491  0.3415 -0.4874 -0.2603
   28CHL1    H8 2013   2.887   5.974   9.530 -0.9948 -1.6491  1.9077
   28CHL1   C14 2014   2.780   5.992   9.342  0.0794  0.1302  0.2295
   28CHL1   H14 2015   2.688   6.040   9.300 -0.2719  0.2739  1.1474
   28CHL1   C15 2016   2.757   5.849   9.295  0.8614 -0.1753 -0.1172
   28CHL1  H15A 2017   2.801   5.773   9.363 -1.0406  0.4905  1.9757
   28CHL1  H15B 2018   2.647   5.839   9.307  1.1915 -2.1295  1.9244
   28CHL1   C16 2019   2.810   5.851   9.150  0.5804 -0.8276  0.1699
   28CHL1  H16A 2020   2.901   5.789   9.147  1.0348 -0.2993  1.7272
   28CHL1  H16B 2021   2.727   5.823   9.082  2.2261  0.8584 -2.7721
   28CHL1   C17 2022   2.863   6.000   9.120  0.4485  1.3416  0.2387
   28CHL1   H17 2023   2.780   6.064   9.082  0.4436  1.5311  0.5665
   28CHL1   C13 2024   2.893   6.053   9.263 -0.2888  0.0651  0.8849
   28CHL1   C18 2025   3.024   5.996   9.315 -0.4790  0.5358  0.2459
   28CHL1  H18A 2026   3.106   6.048   9.261 -0.7810 -0.6532 -1.4348
   28CHL1  H18B 2027   3.048   6.009   9.423 -2.5780 -1.5260  1.0414
   28CHL1  H18C 2028   3.033   5.888   9.291  0.3336  0.3866  1.1722
   28CHL1   C12 2029   2.891   6.204   9.281  0.5040 -0.1682 -0.3162
   28CHL1  H12A 2030   2.980   6.243   9.227  0.1664  0.3080 -0.5388
   28CHL1  H12B 2031   2.794   6.235   9.236  0.7703 -1.0274 -1.5353
   28CHL1   C11 2032   2.893   6.252   9.429 -0.3226 -0.2658  0.1243
   28CHL1  H11A 2033   2.995   6.233   9.469  0.4436 -1.7149 -2.3021
   28CHL1  H11B 2034   2.871   6.360   9.437 -1.1698 -0.2013 -2.1719
   28CHL1    C9 2035   2.798   6.164   9.522 -0.3661  0.3138 -0.2919
   28CHL1    H9 2036   2.698   6.201   9.490 -0.4308 -2.5600 -4.0475
   28CHL1   C10 2037   2.812   6.192   9.675 -0.3531 -0.1565  0.8703
   28CHL1   C19 2038   2.966   6.176   9.717  0.8303 -1.4925  0.1498
   28CHL1  H19A 2039   2.981   6.185   9.827  0.2249 -0.7352  0.1704
   28CHL1  H19B 2040   2.996   6.078   9.674  1.5661 -2.8067  3.3639
   28CHL1  H19C 2041   3.026   6.256   9.669 -3.9097  1.4653 -1.4540
   28CHL1    C1 2042   2.763   6.331   9.711 -0.1836  0.0444 -0.1316
   28CHL1   H1A 2043   2.817   6.416   9.665 -0.8656  0.5305 -0.0506
   28CHL1   H1B 2044   2.658   6.336   9.674  0.2164  0.0927 -1.3044
   28CHL1    C2 2045   2.769   6.359   9.868  0.3158 -0.1276 -0.0738
   28CHL1   H2A 2046   2.732   6.461   9.891  1.7118 -0.4158  4.2823
   28CHL1   H2B 2047   2.872   6.354   9.909 -0.1578 -2.3157  1.0436
   28CHL1   C20 2048   2.972   6.008   9.009  0.4807  0.0795  0.1491
   28CHL1   H20 2049   3.062   5.948   9.033  1.7936  1.1393 -1.8416
   28CHL1   C21 2050   3.015   6.148   8.986 -0.2332 -0.4569 -0.9064
   28CHL1  H21A 2051   3.086   6.182   9.064  0.9931  0.0949 -2.2062
   28CHL1  H21B 2052   2.932   6.222   8.994  1.7842  1.7596  0.8457
   28CHL1  H21C 2053   3.073   6.173   8.894  3.4240 -2.9234  0.5154
   28CHL1   C22 2054   2.912   5.942   8.878  0.7654 -0.3666 -0.0989
   28CHL1  H22A 2055   2.849   5.856   8.910 -1.5389  0.5322 -1.9278
   28CHL1  H22B 2056   2.842   6.016   8.834  1.1126  0.3452  0.5218
   28CHL1   C23 2057   3.018   5.901   8.768  0.6286  0.1256 -0.2149
   28CHL1  H23A 2058   3.065   5.990   8.721  0.5914  0.1632 -0.1806
   28CHL1  H23B 2059   3.093   5.830   8.810 -2.0950 -3.5554 -1.0628
   28CHL1   C24 2060   2.961   5.807   8.657  0.0123  0.0948 -1.2112
   28CHL1  H24A 2061   3.042   5.784   8.585  0.6212 -2.1790  0.0813
   28CHL1  H24B 2062   2.937   5.709   8.702  1.0754  0.1715 -0.4184
   28CHL1   C25 2063   2.846   5.862   8.577  0.5539 -0.1025  0.3191
   28CHL1   H25 2064   2.776   5.910   8.649  0.5780  2.3007 -1.1511
   28CHL1   C26 2065   2.886   5.987   8.490  0.4259  0.3185 -0.5544
   28CHL1  H26A 2066   2.930   6.065   8.555 -0.0698  0.5861 -0.5369
   28CHL1  H26B 2067   2.954   5.956   8.407  0.7390  2.4958 -1.1767
   28CHL1  H26C 2068   2.794   6.037   8.453  1.5260  2.3176 -0.7156
   28CHL1   C27 2069   2.774   5.748   8.496 -0.1691  0.7517  0.0283
   28CHL1  H27A 2070   2.710   5.691   8.568 -0.0102 -0.3340 -0.6771
   28CHL1  H27B 2071   2.694   5.792   8.432 -0.7839  1.1814  1.0480
   28CHL1  H27C 2072   2.838   5.674   8.444 -0.7783 -1.2591  1.9393
   29CHL1    C3 2073   4.393   5.484   6.316 -0.8198 -0.4686 -0.1508
   29CHL1    H3 2074   4.348   5.384   6.334 -0.5719 -0.4895  0.3708
   29CHL1    O3 2075   4.390   5.510   6.171 -0.7466  0.1381  0.4573
   29CHL1   H3' 2076   4.424   5.599   6.161  1.7268 -0.7976 -0.3454
   29CHL1    C4 2077   4.301   5.587   6.387  0.5639  1.1147 -0.2697
   29CHL1   H4A 2078   4.343   5.682   6.346  1.1440  1.1979  0.4966
   29CHL1   H4B 2079   4.197   5.577   6.351  0.1712  0.0531  1.0903
   29CHL1    C5 2080   4.305   5.596   6.534  0.2312  0.6561  0.3797
   29CHL1    C6 2081   4.193   5.594   6.607 -0.6707  0.1405  1.1615
   29CHL1    H6 2082   4.096   5.575   6.558  0.8766 -3.1182 -0.9934
   29CHL1    C7 2083   4.189   5.601   6.759  0.4006 -0.4150 -0.5272
   29CHL1   H7A 2084   4.113   5.675   6.794  0.2009  0.4959 -2.6872
   29CHL1   H7B 2085   4.138   5.509   6.796  0.4312  0.2830  1.3574
   29CHL1    C8 2086   4.326   5.623   6.830 -0.3756  0.1261  0.1630
   29CHL1    H8 2087   4.353   5.730   6.823  3.0748 -0.3470  3.1093
   29CHL1   C14 2088   4.327   5.580   6.976  0.2526  0.5135  0.0803
   29CHL1   H14 2089   4.309   5.471   6.975 -0.4078  0.5996 -2.0007
   29CHL1   C15 2090   4.221   5.654   7.061 -0.6290  0.9429 -0.1535
   29CHL1  H15A 2091   4.194   5.755   7.023 -2.1816  0.4170 -0.5462
   29CHL1  H15B 2092   4.125   5.598   7.071 -0.7324  1.0103 -0.7108
   29CHL1   C16 2093   4.282   5.628   7.200 -0.6948 -0.3840  0.2770
   29CHL1  H16A 2094   4.290   5.733   7.236  0.0743  0.0388 -1.0899
   29CHL1  H16B 2095   4.214   5.576   7.271 -0.3293 -2.9729 -1.1208
   29CHL1   C17 2096   4.423   5.550   7.182  0.4790 -0.7977 -0.4789
   29CHL1   H17 2097   4.390   5.444   7.170 -2.8863  0.1777 -1.0456
   29CHL1   C13 2098   4.468   5.597   7.043  0.4384 -0.0787  0.2635
   29CHL1   C18 2099   4.507   5.751   7.034 -0.2860  0.0073  0.5332
   29CHL1  H18A 2100   4.444   5.823   7.091 -0.8504  1.0347 -1.2825
   29CHL1  H18B 2101   4.608   5.760   7.079 -0.4592 -0.1684  0.9580
   29CHL1  H18C 2102   4.516   5.796   6.933  0.9360 -0.0145  0.6198
   29CHL1   C12 2103   4.572   5.517   6.967  0.0306  0.3433  0.1039
   29CHL1  H12A 2104   4.676   5.528   7.003 -0.9306  2.0702  2.6752
   29CHL1  H12B 2105   4.544   5.411   6.986  0.6017  0.5193  2.1833
   29CHL1   C11 2106   4.576   5.542   6.815  0.4320 -0.8804 -0.1401
   29CHL1  H11A 2107   4.628   5.638   6.796  0.3044 -0.9842 -1.0668
   29CHL1  H11B 2108   4.650   5.470   6.774  0.9869  0.5660 -1.8045
   29CHL1    C9 2109   4.432   5.550   6.748 -0.0589 -0.6963 -0.1517
   29CHL1    H9 2110   4.390   5.447   6.743  1.2150 -1.1903 -2.0255
   29CHL1   C10 2111   4.444   5.600   6.597 -0.6462 -0.2027  0.0611
   29CHL1   C19 2112   4.502   5.751   6.580 -0.3624  0.4872  0.2706
   29CHL1  H19A 2113   4.501   5.781   6.473  1.4158  0.4228  0.2053
   29CHL1  H19B 2114   4.451   5.819   6.652 -0.7010  0.2905  0.2210
   29CHL1  H19C 2115   4.610   5.741   6.604 -0.4635  0.2136  0.6164
   29CHL1    C1 2116   4.539   5.509   6.521 -0.0984 -0.0621 -0.5411
   29CHL1   H1A 2117   4.643   5.513   6.563 -1.6979 -1.8573  4.3061
   29CHL1   H1B 2118   4.494   5.410   6.544 -0.1385 -0.1911 -1.1709
   29CHL1    C2 2119   4.539   5.513   6.366  0.1623 -0.5843  0.6544
   29CHL1   H2A 2120   4.608   5.434   6.328  1.9150  0.6599  1.1332
   29CHL1   H2B 2121   4.573   5.613   6.332 -0.3237 -0.1751  1.3553
   29CHL1   C20 2122   4.529   5.559   7.290  0.7046  0.2481  0.2907
   29CHL1   H20 2123   4.586   5.654   7.285  0.8087  0.1445 -0.8766
   29CHL1   C21 2124   4.620   5.433   7.278 -0.2301 -0.0495 -0.3970
   29CHL1  H21A 2125   4.660   5.423   7.175  0.6103  0.7162 -0.1524
   29CHL1  H21B 2126   4.557   5.348   7.313 -0.8587  0.1397 -1.0481
   29CHL1  H21C 2127   4.714   5.435   7.337  0.5447 -2.4731 -1.4255
   29CHL1   C22 2128   4.451   5.567   7.420  0.1237 -0.2968 -0.2516
   29CHL1  H22A 2129   4.387   5.657   7.420  1.1537  0.5038  2.3146
   29CHL1  H22B 2130   4.390   5.475   7.432 -1.3069  0.1785 -3.0028
   29CHL1   C23 2131   4.546   5.578   7.545 -0.5068  0.3787  0.1176
   29CHL1  H23A 2132   4.594   5.478   7.552 -0.0906  0.6820  2.1199
   29CHL1  H23B 2133   4.629   5.651   7.535 -0.3076  0.3838  1.6469
   29CHL1   C24 2134   4.480   5.609   7.673 -0.0073  0.3110  0.3082
   29CHL1  H24A 2135   4.443   5.712   7.658  4.3935  2.1758  0.6314
   29CHL1  H24B 2136   4.390   5.545   7.687 -0.0345  0.1932 -0.3813
   29CHL1   C25 2137   4.571   5.620   7.797 -0.0283 -0.2109  0.4058
   29CHL1   H25 2138   4.658   5.686   7.775 -0.4549 -0.1761 -1.3161
   29CHL1   C26 2139   4.485   5.689   7.909 -0.1377  0.0170  0.2147
   29CHL1  H26A 2140   4.548   5.693   8.001  0.7101  1.3363 -0.3920
   29CHL1  H26B 2141   4.474   5.792   7.869  1.2781  0.7673  1.6165
   29CHL1  H26C 2142   4.392   5.630   7.925 -1.3869  0.2866 -4.6768
   29CHL1   C27 2143   4.631   5.484   7.851  0.4786 -0.7471 -0.1011
   29CHL1  H27A 2144   4.673   5.417   7.773 -0.4729 -0.3812 -0.9491
   29CHL1  H27B 2145   4.692   5.502   7.943  0.8976 -0.2165 -0.4753
   29CHL1  H27C 2146   4.536   5.441   7.890  0.5495 -1.3712 -0.5995
   30CHL1    C3 2147   3.130   2.433   7.160 -0.1265 -0.2111  0.0203
   30CHL1    H3 2148   3.145   2.325   7.141 -1.4967 -0.2573 -0.9964
   30CHL1    O3 2149   3.148   2.502   7.039 -0.1437 -0.0535 -0.2701
   30CHL1   H3' 2150   3.220   2.468   6.986 -0.6625 -0.2840 -0.8331
   30CHL1    C4 2151   3.001   2.481   7.228 -0.3139  0.6250 -0.0734
   30CHL1   H4A 2152   3.006   2.592   7.226 -0.2421  0.6143 -1.9306
   30CHL1   H4B 2153   2.916   2.452   7.164  0.5044 -2.1009 -0.0252
   30CHL1    C5 2154   2.986   2.443   7.374  0.3301 -0.1045  0.2611
   30CHL1    C6 2155   2.873   2.384   7.408 -0.2119 -0.8234 -0.7865
   30CHL1    H6 2156   2.793   2.365   7.334  0.2338 -0.0364 -1.4735
   30CHL1    C7 2157   2.835   2.340   7.548 -0.2677  0.1625  0.0966
   30CHL1   H7A 2158   2.738   2.381   7.587 -0.1911 -0.5263  1.0487
   30CHL1   H7B 2159   2.833   2.229   7.549  0.0377  0.0974 -2.0107
   30CHL1    C8 2160   2.943   2.382   7.659  0.4977 -0.4837 -0.4021
   30CHL1    H8 2161   2.917   2.485   7.692  1.0652 -0.7207  0.8161
   30CHL1   C14 2162   2.937   2.293   7.777 -0.5928 -0.0490  0.2532
   30CHL1   H14 2163   2.982   2.196   7.745  0.1695  0.0565  0.9672
   30CHL1   C15 2164   2.803   2.265   7.835 -0.7011  0.0629  0.1308
   30CHL1  H15A 2165   2.764   2.367   7.815  1.5405  0.6311 -1.7567
   30CHL1  H15B 2166   2.747   2.182   7.786 -1.3665  1.4389 -1.5380
   30CHL1   C16 2167   2.820   2.226   7.982 -0.7068 -0.1093  0.1122
   30CHL1  H16A 2168   2.762   2.299   8.043 -1.9084  1.0899 -2.3103
   30CHL1  H16B 2169   2.800   2.117   7.997  0.3705 -0.5737 -1.5404
   30CHL1   C17 2170   2.974   2.249   8.010  0.3667  0.1380 -0.2712
   30CHL1   H17 2171   3.024   2.152   7.988 -0.9289 -0.0048 -2.9908
   30CHL1   C13 2172   3.027   2.339   7.893  0.3075  0.3082  0.4683
   30CHL1   C18 2173   3.006   2.488   7.933 -0.9543  0.0811  1.0330
   30CHL1  H18A 2174   2.901   2.517   7.911  0.1814  2.9394 -1.3538
   30CHL1  H18B 2175   3.030   2.506   8.040  0.6035 -3.4555  1.4076
   30CHL1  H18C 2176   3.074   2.559   7.880 -0.5062 -1.4849 -0.5940
   30CHL1   C12 2177   3.176   2.317   7.839  0.4069  0.6109  0.0941
   30CHL1  H12A 2178   3.254   2.362   7.904  0.5984 -0.0749  0.3477
   30CHL1  H12B 2179   3.195   2.207   7.840  1.2576  0.7553  0.7326
   30CHL1   C11 2180   3.203   2.379   7.699  0.6846 -0.0180 -0.3015
   30CHL1  H11A 2181   3.222   2.484   7.728  4.2679 -1.1286  2.0697
   30CHL1  H11B 2182   3.302   2.345   7.663  0.5274  1.1300 -1.9329
   30CHL1    C9 2183   3.087   2.367   7.594  0.2914 -0.3818 -0.1840
   30CHL1    H9 2184   3.089   2.259   7.566  2.2955 -1.0291  2.1264
   30CHL1   C10 2185   3.104   2.463   7.471  0.1055  0.3918  0.5464
   30CHL1   C19 2186   3.107   2.615   7.506 -0.1413  0.7556 -0.1526
   30CHL1  H19A 2187   3.126   2.669   7.411  4.0403  1.4797  0.8916
   30CHL1  H19B 2188   3.009   2.653   7.543  0.4112  1.6205  0.4454
   30CHL1  H19C 2189   3.195   2.644   7.567  1.4991 -1.6109 -1.2570
   30CHL1    C1 2190   3.233   2.417   7.390 -0.1702  0.9622  0.7296
   30CHL1   H1A 2191   3.327   2.443   7.442  1.0604 -1.6545 -0.0055
   30CHL1   H1B 2192   3.236   2.306   7.379  0.7477  0.9486  1.0292
   30CHL1    C2 2193   3.245   2.477   7.249  0.1077 -1.0799  0.7053
   30CHL1   H2A 2194   3.349   2.451   7.219  0.4954  1.3207 -0.1846
   30CHL1   H2B 2195   3.250   2.587   7.255  2.0687 -0.3469 -6.0206
   30CHL1   C20 2196   3.002   2.287   8.160 -0.0641  0.1798  0.0368
   30CHL1   H20 2197   2.957   2.387   8.176  0.8809  0.9323 -1.6962
   30CHL1   C21 2198   3.148   2.295   8.195 -0.2183  0.1511  0.0775
   30CHL1  H21A 2199   3.187   2.381   8.137  1.9820 -1.2130 -0.5816
   30CHL1  H21B 2200   3.194   2.195   8.177 -0.2446 -0.0512  1.0650
   30CHL1  H21C 2201   3.177   2.318   8.300  3.1659  1.6182 -1.0296
   30CHL1   C22 2202   2.927   2.180   8.249 -0.4637 -0.2506  0.0513
   30CHL1  H22A 2203   2.817   2.171   8.237 -0.5722  1.6313 -0.8440
   30CHL1  H22B 2204   2.971   2.081   8.226  0.3496  0.3791 -1.2345
   30CHL1   C23 2205   2.938   2.209   8.403 -0.4980 -1.2328 -0.4810
   30CHL1  H23A 2206   2.875   2.133   8.455 -2.1376 -0.0944 -0.7103
   30CHL1  H23B 2207   3.045   2.210   8.430 -0.5703 -0.7662 -0.2090
   30CHL1   C24 2208   2.883   2.349   8.443 -0.4405  0.2626  0.0181
   30CHL1  H24A 2209   2.968   2.407   8.401  1.3787 -2.1127  0.1542
   30CHL1  H24B 2210   2.790   2.377   8.388 -0.5133 -2.5689 -1.5328
   30CHL1   C25 2211   2.868   2.385   8.590  0.5295  0.0697 -0.9131
   30CHL1   H25 2212   2.965   2.371   8.642  0.0673 -1.2976 -0.3763
   30CHL1   C26 2213   2.819   2.530   8.606  0.1472  0.4960  0.4344
   30CHL1  H26A 2214   2.909   2.595   8.603  2.6138 -2.6994  0.7447
   30CHL1  H26B 2215   2.754   2.559   8.521  0.9800  1.2395  0.0380
   30CHL1  H26C 2216   2.766   2.538   8.704  0.3738  1.8178  0.4631
   30CHL1   C27 2217   2.764   2.289   8.654 -0.0283 -0.4214 -0.0405
   30CHL1  H27A 2218   2.806   2.187   8.648  2.2614  0.5711 -2.6329
   30CHL1  H27B 2219   2.748   2.329   8.757 -1.6914  0.1818 -0.5057
   30CHL1  H27C 2220   2.669   2.299   8.598 -1.1186  0.7810  1.8822
   31CHL1    C3 2221   2.355   4.220   6.916  0.2793 -0.3959  0.3605
   31CHL1    H3 2222   2.372   4.328   6.898 -1.0699 -0.6354 -3.3192
   31CHL1    O3 2223   2.409   4.161   6.802 -0.0813 -0.0514 -0.2128
   31CHL1   H3' 2224   2.345   4.104   6.759 -0.0739 -1.2319  1.2631
   31CHL1    C4 2225   2.443   4.183   7.035  0.4018  0.0456 -0.5581
   31CHL1   H4A 2226   2.449   4.072   7.032 -1.8697 -0.1268  0.0500
   31CHL1   H4B 2227   2.546   4.224   7.020 -0.7007  3.6286  0.6847
   31CHL1    C5 2228   2.392   4.244   7.161 -0.0089  0.4014 -0.3809
   31CHL1    C6 2229   2.467   4.317   7.245 -0.5542 -0.5910  0.3866
   31CHL1    H6 2230   2.575   4.320   7.227 -0.7666 -2.0071 -1.4106
   31CHL1    C7 2231   2.416   4.375   7.374 -0.5624 -0.4297 -0.4738
   31CHL1   H7A 2232   2.482   4.345   7.458  0.7164 -0.7893 -1.5813
   31CHL1   H7B 2233   2.418   4.486   7.375 -0.4926 -0.4264 -0.8109
   31CHL1    C8 2234   2.275   4.332   7.422 -0.3546 -0.2295  0.3569
   31CHL1    H8 2235   2.284   4.228   7.461 -2.1690 -0.2515  0.8030
   31CHL1   C14 2236   2.215   4.424   7.525  0.6021 -0.4076  0.7155
   31CHL1   H14 2237   2.186   4.518   7.474 -0.5623 -1.2693 -0.2330
   31CHL1   C15 2238   2.306   4.462   7.650 -0.4739  0.1665 -0.8311
   31CHL1  H15A 2239   2.361   4.369   7.677 -1.4014  0.5583  2.8430
   31CHL1  H15B 2240   2.379   4.544   7.629 -0.7928  0.5769 -0.3565
   31CHL1   C16 2241   2.208   4.518   7.756 -0.3950  0.1549 -0.3284
   31CHL1  H16A 2242   2.204   4.449   7.843 -0.5528  0.1578 -0.3339
   31CHL1  H16B 2243   2.218   4.627   7.777 -0.6009  0.2416 -0.6712
   31CHL1   C17 2244   2.064   4.509   7.687  0.4248  0.3737 -0.0902
   31CHL1   H17 2245   2.050   4.602   7.629  3.2288  0.5428 -0.6764
   31CHL1   C13 2246   2.077   4.392   7.578 -0.0632 -0.0270 -0.2946
   31CHL1   C18 2247   2.088   4.254   7.659 -0.5037  0.1393  0.3144
   31CHL1  H18A 2248   1.993   4.235   7.713  0.3563  1.6982  2.5538
   31CHL1  H18B 2249   2.112   4.169   7.592  1.3720 -1.0882  2.3892
   31CHL1  H18C 2250   2.167   4.261   7.737 -1.0747  0.1561  0.8940
   31CHL1   C12 2251   1.976   4.393   7.455 -0.0803  0.1728  0.4882
   31CHL1  H12A 2252   1.874   4.355   7.479 -0.0743  0.0594  0.3333
   31CHL1  H12B 2253   1.973   4.496   7.413 -2.5706  0.0268  0.1329
   31CHL1   C11 2254   2.032   4.298   7.342 -1.1306 -0.5259 -1.0932
   31CHL1  H11A 2255   2.024   4.195   7.382  1.2924 -0.7819 -1.0947
   31CHL1  H11B 2256   1.967   4.304   7.252 -1.1169  1.2006 -1.0199
   31CHL1    C9 2257   2.180   4.326   7.301 -0.3683 -0.1320 -0.2925
   31CHL1    H9 2258   2.169   4.424   7.250  0.9729 -0.4803 -1.3036
   31CHL1   C10 2259   2.238   4.237   7.186 -0.1655 -0.9991 -0.2753
   31CHL1   C19 2260   2.218   4.087   7.217  0.2094 -0.6645 -0.1039
   31CHL1  H19A 2261   2.264   4.022   7.139 -1.9242 -1.2700 -0.9497
   31CHL1  H19B 2262   2.266   4.064   7.314  1.7787  0.3570 -0.6093
   31CHL1  H19C 2263   2.112   4.055   7.223 -0.2898  0.6633 -1.2725
   31CHL1    C1 2264   2.164   4.276   7.059  0.1686 -0.1179  0.0402
   31CHL1   H1A 2265   2.053   4.264   7.065 -0.2280  0.7910 -3.3612
   31CHL1   H1B 2266   2.190   4.381   7.036 -1.5361  0.3363  0.0616
   31CHL1    C2 2267   2.212   4.195   6.933  0.7004 -0.1934 -0.1239
   31CHL1   H2A 2268   2.151   4.225   6.845 -0.8949 -1.7623  0.3816
   31CHL1   H2B 2269   2.198   4.086   6.948  3.0641 -0.7673 -1.5724
   31CHL1   C20 2270   1.948   4.488   7.792 -0.0838  0.3358 -0.7241
   31CHL1   H20 2271   1.970   4.399   7.853  0.7094  1.5632  0.8570
   31CHL1   C21 2272   1.813   4.469   7.718  0.3376 -0.3509  0.0151
   31CHL1  H21A 2273   1.798   4.545   7.639  0.4169 -0.6127 -0.2557
   31CHL1  H21B 2274   1.724   4.474   7.783 -0.1001 -2.1608 -0.3992
   31CHL1  H21C 2275   1.821   4.367   7.674  0.7527 -0.2164 -0.2367
   31CHL1   C22 2276   1.944   4.607   7.891 -0.1466  0.1472  0.0891
   31CHL1  H22A 2277   2.047   4.625   7.928  0.6121 -1.6738 -1.0318
   31CHL1  H22B 2278   1.912   4.704   7.846  2.5281  2.4119  2.6580
   31CHL1   C23 2279   1.857   4.576   8.009  0.8834 -0.7690 -0.1039
   31CHL1  H23A 2280   1.750   4.564   7.979  0.8789  0.1013 -0.4657
   31CHL1  H23B 2281   1.870   4.473   8.046  1.6933 -0.9668 -0.9107
   31CHL1   C24 2282   1.884   4.684   8.122  0.4738 -0.1874  0.2911
   31CHL1  H24A 2283   1.979   4.652   8.169 -0.8044 -1.6590  2.0395
   31CHL1  H24B 2284   1.885   4.784   8.073 -1.7204  0.3651  1.2330
   31CHL1   C25 2285   1.780   4.681   8.238 -0.1167 -0.3661 -0.9493
   31CHL1   H25 2286   1.754   4.575   8.255 -1.5009 -0.3614 -2.7244
   31CHL1   C26 2287   1.837   4.730   8.370  0.3334 -0.6433 -0.4638
   31CHL1  H26A 2288   1.851   4.839   8.362  0.4311 -0.5522  0.7954
   31CHL1  H26B 2289   1.754   4.720   8.443  0.1097 -2.0081 -0.8642
   31CHL1  H26C 2290   1.932   4.681   8.399  0.5510  0.0556  0.0230
   31CHL1   C27 2291   1.656   4.756   8.192  0.6826 -0.2199 -0.2567
   31CHL1  H27A 2292   1.665   4.866   8.193 -2.1052  0.0788 -0.8860
   31CHL1  H27B 2293   1.585   4.724   8.271  0.8842  0.2293  0.1136
   31CHL1  H27C 2294   1.615   4.716   8.097 -0.4405  0.1214  0.0749
   32CHL1    C3 2295   3.075   3.195   7.179 -0.0748  0.7572 -0.1167
   32CHL1    H3 2296   2.995   3.261   7.219 -0.0053  0.4879  0.4864
   32CHL1    O3 2297   3.071   3.196   7.039  0.0760  0.3946  0.5290
   32CHL1   H3' 2298   3.158   3.165   7.014  1.3414  3.3077  0.9466
   32CHL1    C4 2299   3.201   3.256   7.240 -0.2383  0.3743  0.2543
   32CHL1   H4A 2300   3.288   3.191   7.212  0.3539 -0.4967  3.7098
   32CHL1   H4B 2301   3.213   3.355   7.191  0.9504  0.6614  1.0871
   32CHL1    C5 2302   3.202   3.255   7.393  0.1235  0.7477  0.0433
   32CHL1    C6 2303   3.219   3.362   7.471  0.6747  0.0177  0.8988
   32CHL1    H6 2304   3.247   3.459   7.427  1.7337 -1.1328 -1.1375
   32CHL1    C7 2305   3.216   3.353   7.623 -0.1390  0.1024 -0.3654
   32CHL1   H7A 2306   3.307   3.403   7.665  0.1854 -0.7427 -0.0490
   32CHL1   H7B 2307   3.123   3.402   7.658 -1.0615 -0.1655 -2.3265
   32CHL1    C8 2308   3.221   3.209   7.685  1.1447 -0.4269 -0.6693
   32CHL1    H8 2309   3.328   3.179   7.686  1.4223  0.5459  1.1438
   32CHL1   C14 2310   3.176   3.209   7.831 -0.2552  0.1890  0.4036
   32CHL1   H14 2311   3.070   3.243   7.824  0.5659  2.7229 -0.6243
   32CHL1   C15 2312   3.237   3.302   7.930 -0.2895  0.0591 -0.1670
   32CHL1  H15A 2313   3.348   3.298   7.924 -0.1502  1.2414  0.9541
   32CHL1  H15B 2314   3.203   3.405   7.904 -0.3993  0.2546  0.7327
   32CHL1   C16 2315   3.187   3.263   8.073  0.6003 -0.2067  0.7362
   32CHL1  H16A 2316   3.286   3.255   8.121  1.3987  4.1940  0.2669
   32CHL1  H16B 2317   3.118   3.329   8.130  0.3413 -0.8745  1.2136
   32CHL1   C17 2318   3.121   3.128   8.041  0.4113  0.5593 -0.7163
   32CHL1   H17 2319   3.014   3.156   8.027  0.2772  0.5030  0.1414
   32CHL1   C13 2320   3.174   3.078   7.901 -0.7541  0.3287 -0.5431
   32CHL1   C18 2321   3.321   3.021   7.905 -0.9678 -0.1498  0.5857
   32CHL1  H18A 2322   3.359   2.997   7.803 -1.8877 -1.5987  0.5488
   32CHL1  H18B 2323   3.389   3.091   7.958 -0.3246  0.4441 -0.9641
   32CHL1  H18C 2324   3.323   2.918   7.948  0.3785 -0.7330 -0.7604
   32CHL1   C12 2325   3.083   2.980   7.819 -0.1116  0.3933  0.2322
   32CHL1  H12A 2326   3.105   2.882   7.866  3.2250  0.9619  0.0685
   32CHL1  H12B 2327   2.973   2.996   7.828 -0.2229 -0.2401  0.0655
   32CHL1   C11 2328   3.123   2.968   7.673 -0.4525 -0.2962  0.0121
   32CHL1  H11A 2329   3.213   2.904   7.663 -0.4419 -0.0115 -2.0537
   32CHL1  H11B 2330   3.050   2.903   7.620  0.1505 -0.2584 -0.8793
   32CHL1    C9 2331   3.136   3.108   7.602 -0.4791 -0.2867  0.2231
   32CHL1    H9 2332   3.037   3.157   7.616  0.3930  1.5204  0.3516
   32CHL1   C10 2333   3.176   3.110   7.451  0.2400 -0.3970 -0.8737
   32CHL1   C19 2334   3.303   3.025   7.429 -0.3516 -0.1128  0.2701
   32CHL1  H19A 2335   3.293   2.919   7.462  0.0602 -0.5411 -0.9098
   32CHL1  H19B 2336   3.338   3.021   7.323  0.6179 -0.0288  0.5739
   32CHL1  H19C 2337   3.388   3.054   7.495 -0.8876 -1.9321  1.8682
   32CHL1    C1 2338   3.049   3.052   7.386  0.6663 -0.5122 -0.7499
   32CHL1   H1A 2339   3.034   2.946   7.414 -1.3392 -0.1319 -0.2144
   32CHL1   H1B 2340   2.956   3.105   7.416  0.9887 -0.9740  1.1379
   32CHL1    C2 2341   3.045   3.056   7.236  0.6082 -1.1621 -0.3449
   32CHL1   H2A 2342   2.949   3.022   7.189  0.1157  1.5880 -1.5286
   32CHL1   H2B 2343   3.118   2.988   7.187  0.7338 -1.3206  0.0584
   32CHL1   C20 2344   3.123   3.030   8.159 -0.0317 -0.6450  0.2498
   32CHL1   H20 2345   3.080   2.932   8.128 -4.5833  1.0377  0.5779
   32CHL1   C21 2346   3.012   3.083   8.257 -0.0005  0.1231  0.2101
   32CHL1  H21A 2347   3.010   3.013   8.344  2.8743  0.9612  1.0757
   32CHL1  H21B 2348   2.909   3.081   8.215  0.0085 -0.1830  0.1990
   32CHL1  H21C 2349   3.045   3.185   8.284 -1.1714  0.3785  0.7414
   32CHL1   C22 2350   3.255   3.019   8.238  0.1573 -0.0368 -0.2204
   32CHL1  H22A 2351   3.342   3.034   8.170  0.7918  1.9995  0.9523
   32CHL1  H22B 2352   3.256   3.106   8.308 -1.4242 -0.2273  0.0807
   32CHL1   C23 2353   3.265   2.883   8.316  0.0471  0.1195 -0.4389
   32CHL1  H23A 2354   3.160   2.881   8.349  0.1824 -1.6024  0.0110
   32CHL1  H23B 2355   3.276   2.793   8.251  2.9816 -0.7587  1.0512
   32CHL1   C24 2356   3.374   2.893   8.422 -0.3284 -0.3294  0.5690
   32CHL1  H24A 2357   3.475   2.902   8.377 -0.4382  0.2444  0.4362
   32CHL1  H24B 2358   3.361   2.984   8.484  0.8312  1.0321 -1.1292
   32CHL1   C25 2359   3.375   2.766   8.512  0.3918 -0.1579  0.2877
   32CHL1   H25 2360   3.347   2.674   8.457 -2.0765 -0.5679  2.0243
   32CHL1   C26 2361   3.506   2.741   8.581  0.4356 -0.2028  0.0803
   32CHL1  H26A 2362   3.523   2.815   8.662  0.7157  0.9831 -1.0376
   32CHL1  H26B 2363   3.512   2.636   8.619 -0.1170 -0.0987  0.4603
   32CHL1  H26C 2364   3.584   2.745   8.502 -0.9821  0.8162 -1.3200
   32CHL1   C27 2365   3.270   2.794   8.621  0.2555 -0.6497 -0.1103
   32CHL1  H27A 2366   3.269   2.887   8.681 -0.5596  0.4817 -1.7818
   32CHL1  H27B 2367   3.170   2.791   8.572  1.9921  1.6098 -4.3501
   32CHL1  H27C 2368   3.273   2.705   8.687  0.8381 -0.5532  0.0030
   33CHL1    C3 2369   5.668   3.537   7.215 -0.3878 -0.2666 -0.0148
   33CHL1    H3 2370   5.561   3.509   7.229 -0.6234  0.8292  0.5300
   33CHL1    O3 2371   5.682   3.590   7.082 -0.2744  0.5034  0.3331
   33CHL1   H3' 2372   5.643   3.513   7.041  0.4237 -0.9802  2.2605
   33CHL1    C4 2373   5.704   3.646   7.325 -0.3351 -0.0230 -0.4027
   33CHL1   H4A 2374   5.807   3.685   7.309  0.1241 -0.0254  2.1487
   33CHL1   H4B 2375   5.638   3.735   7.313 -0.9796 -0.3718  0.4754
   33CHL1    C5 2376   5.693   3.605   7.466  0.1178 -1.0851  0.2252
   33CHL1    C6 2377   5.617   3.670   7.560  0.4139 -0.9073 -0.3161
   33CHL1    H6 2378   5.571   3.763   7.525  2.8391  0.0401 -1.1918
   33CHL1    C7 2379   5.600   3.632   7.703 -0.4415 -0.1940 -0.1763
   33CHL1   H7A 2380   5.622   3.720   7.768 -0.0204  0.9156 -1.7721
   33CHL1   H7B 2381   5.496   3.600   7.726 -1.5515  2.3043 -1.3473
   33CHL1    C8 2382   5.703   3.522   7.744 -0.2089  0.2178 -0.6541
   33CHL1    H8 2383   5.803   3.566   7.758  0.5608 -1.3905 -0.8278
   33CHL1   C14 2384   5.659   3.463   7.872  0.5239  0.1251  0.2858
   33CHL1   H14 2385   5.564   3.412   7.845  1.7086 -1.8284 -0.4292
   33CHL1   C15 2386   5.627   3.559   7.995 -0.3935  0.9940  0.0504
   33CHL1  H15A 2387   5.708   3.632   8.013  1.5512 -0.8980 -0.5485
   33CHL1  H15B 2388   5.524   3.598   7.981 -1.6057 -1.6586  0.8632
   33CHL1   C16 2389   5.643   3.460   8.110  0.5735 -0.4064 -0.3479
   33CHL1  H16A 2390   5.724   3.501   8.174  0.3247 -0.3165 -0.0814
   33CHL1  H16B 2391   5.556   3.465   8.180  0.1593  2.7900 -0.9197
   33CHL1   C17 2392   5.674   3.317   8.059 -0.1146  0.1534 -0.7869
   33CHL1   H17 2393   5.577   3.270   8.032  0.5568 -1.2008 -0.9005
   33CHL1   C13 2394   5.752   3.352   7.926  0.1969 -0.3666  0.0008
   33CHL1   C18 2395   5.898   3.407   7.958  0.3123 -0.0704 -0.4495
   33CHL1  H18A 2396   5.951   3.447   7.869  0.9155  1.7688  0.6782
   33CHL1  H18B 2397   5.882   3.491   8.029  0.7624 -0.7911  0.5145
   33CHL1  H18C 2398   5.960   3.329   8.007  2.0671  0.7494 -1.2599
   33CHL1   C12 2399   5.754   3.242   7.816  0.2683  0.2536 -0.2479
   33CHL1  H12A 2400   5.806   3.150   7.847 -1.4087 -0.7062 -0.1658
   33CHL1  H12B 2401   5.646   3.217   7.819 -0.9667  4.4736 -1.7599
   33CHL1   C11 2402   5.789   3.284   7.674 -0.1599 -0.2602 -0.2678
   33CHL1  H11A 2403   5.897   3.311   7.683  0.0232 -1.4610  1.6747
   33CHL1  H11B 2404   5.783   3.205   7.596 -0.8699  0.5367 -1.0563
   33CHL1    C9 2405   5.714   3.412   7.637 -0.6597 -0.2012 -0.1276
   33CHL1    H9 2406   5.607   3.383   7.626 -0.0854 -2.5251 -0.0291
   33CHL1   C10 2407   5.762   3.469   7.494  0.0829 -0.8396 -0.4982
   33CHL1   C19 2408   5.920   3.494   7.506  0.3198  0.1978  0.0183
   33CHL1  H19A 2409   5.973   3.397   7.495  1.3285  0.8065 -0.5920
   33CHL1  H19B 2410   5.965   3.553   7.423  1.2299 -0.2353  0.1913
   33CHL1  H19C 2411   5.945   3.545   7.601 -0.4864 -0.5830  0.6684
   33CHL1    C1 2412   5.732   3.363   7.382 -0.5275 -0.2662  0.5931
   33CHL1   H1A 2413   5.798   3.274   7.393  1.5767  1.0218 -0.8032
   33CHL1   H1B 2414   5.628   3.326   7.386 -0.7447  0.2866  0.1499
   33CHL1    C2 2415   5.750   3.415   7.237 -0.1417 -0.4591  0.1963
   33CHL1   H2A 2416   5.711   3.336   7.169  0.6406 -2.3794  1.8616
   33CHL1   H2B 2417   5.858   3.429   7.213  0.2589 -3.3095 -0.0894
   33CHL1   C20 2418   5.746   3.230   8.165 -0.3067 -1.2449 -0.4732
   33CHL1   H20 2419   5.848   3.270   8.183 -0.1717 -1.0724 -1.5545
   33CHL1   C21 2420   5.765   3.090   8.115 -0.2736  0.1409  0.0236
   33CHL1  H21A 2421   5.789   3.016   8.194 -1.6801 -2.0240 -1.4923
   33CHL1  H21B 2422   5.843   3.097   8.035 -1.5173  2.6631 -1.0939
   33CHL1  H21C 2423   5.674   3.054   8.063  0.0819 -1.9591  0.7603
   33CHL1   C22 2424   5.670   3.245   8.303 -0.7319 -0.4359 -0.0822
   33CHL1  H22A 2425   5.739   3.195   8.374 -0.0119 -1.1290 -1.2376
   33CHL1  H22B 2426   5.678   3.350   8.338  2.3222 -0.3364 -0.7949
   33CHL1   C23 2427   5.533   3.193   8.322  0.2726 -0.1416  1.1077
   33CHL1  H23A 2428   5.462   3.244   8.253  0.3800  0.3136  1.3298
   33CHL1  H23B 2429   5.530   3.084   8.299 -2.3337  0.4295 -1.8374
   33CHL1   C24 2430   5.469   3.219   8.462 -0.0379  0.0364 -0.5530
   33CHL1  H24A 2431   5.533   3.172   8.541 -3.1343  0.9793  2.7823
   33CHL1  H24B 2432   5.452   3.327   8.481 -1.5546 -0.5373  1.7273
   33CHL1   C25 2433   5.338   3.152   8.491 -0.0519  0.5430 -0.1287
   33CHL1   H25 2434   5.343   3.047   8.456 -0.1522 -0.1652  1.8632
   33CHL1   C26 2435   5.297   3.154   8.635 -0.4011 -0.0109  0.2709
   33CHL1  H26A 2436   5.294   3.258   8.675  0.9673  0.3358 -0.4567
   33CHL1  H26B 2437   5.199   3.108   8.659 -0.6200  0.3715  0.1204
   33CHL1  H26C 2438   5.362   3.088   8.697 -2.3561 -1.1921  1.1599
   33CHL1   C27 2439   5.227   3.228   8.401 -0.2112 -1.0991  0.1453
   33CHL1  H27A 2440   5.137   3.162   8.397  0.0899 -1.5128  0.1995
   33CHL1  H27B 2441   5.202   3.328   8.442  0.6386 -0.0595 -1.7461
   33CHL1  H27C 2442   5.263   3.239   8.297 -0.8865 -2.1445 -0.2253
   34CHL1    C3 2443   4.549   2.693   7.041  0.4087 -0.5564 -0.5229
   34CHL1    H3 2444   4.442   2.684   7.070 -0.0055  1.6410 -1.1810
   34CHL1    O3 2445   4.554   2.720   6.901  0.1917  0.1394  0.2793
   34CHL1   H3' 2446   4.648   2.733   6.885 -0.2422  0.7508 -2.2412
   34CHL1    C4 2447   4.621   2.798   7.126 -0.1639  0.6011  0.5645
   34CHL1   H4A 2448   4.728   2.803   7.095 -0.2741  0.1999  0.1140
   34CHL1   H4B 2449   4.581   2.896   7.092 -0.1883  0.6460  0.7219
   34CHL1    C5 2450   4.603   2.780   7.278 -0.2177 -0.0474  0.3186
   34CHL1    C6 2451   4.558   2.885   7.354 -0.9706  0.1088  0.6434
   34CHL1    H6 2452   4.533   2.978   7.301 -3.4104  0.5850  2.4265
   34CHL1    C7 2453   4.522   2.857   7.504  0.1640  0.4272  0.2075
   34CHL1   H7A 2454   4.560   2.939   7.569 -0.0050  1.6651 -1.1938
   34CHL1   H7B 2455   4.412   2.854   7.519  0.2639  0.9252  1.0877
   34CHL1    C8 2456   4.574   2.727   7.564 -0.6902 -0.3663 -0.0338
   34CHL1    H8 2457   4.684   2.738   7.576 -0.9282  1.2977  0.7579
   34CHL1   C14 2458   4.499   2.687   7.691 -0.5169  0.2826 -0.4211
   34CHL1   H14 2459   4.391   2.676   7.664 -0.2615 -1.4083 -0.8143
   34CHL1   C15 2460   4.507   2.787   7.806  0.0031 -0.2959 -0.0668
   34CHL1  H15A 2461   4.584   2.867   7.810 -0.4698  0.1007  1.5719
   34CHL1  H15B 2462   4.407   2.835   7.798 -0.4522 -1.1377  0.4160
   34CHL1   C16 2463   4.501   2.704   7.933 -0.1608 -0.3932 -0.6922
   34CHL1  H16A 2464   4.601   2.708   7.981 -1.6194  0.3587  2.5978
   34CHL1  H16B 2465   4.430   2.753   8.003  0.0982  1.4972 -1.7046
   34CHL1   C17 2466   4.480   2.557   7.879  0.5346  0.0366 -0.1295
   34CHL1   H17 2467   4.369   2.548   7.868  0.1317 -2.3316  3.8082
   34CHL1   C13 2468   4.548   2.554   7.744 -0.1623 -0.7082  0.2400
   34CHL1   C18 2469   4.703   2.550   7.764 -0.3449 -1.1137  0.2970
   34CHL1  H18A 2470   4.742   2.449   7.790  1.4047 -0.6737 -0.4232
   34CHL1  H18B 2471   4.757   2.577   7.670 -0.1115 -1.1384  0.4246
   34CHL1  H18C 2472   4.740   2.603   7.854  0.8966 -0.8742 -0.3294
   34CHL1   C12 2473   4.513   2.448   7.636  0.0350  0.2016  0.2047
   34CHL1  H12A 2474   4.550   2.346   7.662  1.7451  0.5690 -0.6640
   34CHL1  H12B 2475   4.402   2.445   7.630  0.0563 -2.7559 -0.7203
   34CHL1   C11 2476   4.584   2.473   7.509 -0.6311 -0.3265  0.5073
   34CHL1  H11A 2477   4.692   2.448   7.521 -0.9092 -1.6289  0.4096
   34CHL1  H11B 2478   4.540   2.397   7.441 -0.1489 -0.9525  0.8897
   34CHL1    C9 2479   4.562   2.615   7.457 -0.3406 -0.0869  0.2109
   34CHL1    H9 2480   4.454   2.623   7.432 -0.2891  0.6393  0.1830
   34CHL1   C10 2481   4.631   2.634   7.322 -0.4714  0.2487  0.7609
   34CHL1   C19 2482   4.784   2.632   7.341  0.0847 -0.3876 -0.2837
   34CHL1  H19A 2483   4.833   2.543   7.386  0.2807  1.2888  3.1893
   34CHL1  H19B 2484   4.832   2.651   7.243 -1.4433 -1.8420 -1.3479
   34CHL1  H19C 2485   4.814   2.711   7.414 -0.9469  0.4531 -0.7445
   34CHL1    C1 2486   4.590   2.520   7.218  0.3985 -0.6201  0.9172
   34CHL1   H1A 2487   4.643   2.427   7.248 -0.9578 -1.5146  0.6243
   34CHL1   H1B 2488   4.487   2.484   7.237 -1.8095  4.0549 -0.5867
   34CHL1    C2 2489   4.619   2.562   7.069  0.0211  0.0667 -0.4134
   34CHL1   H2A 2490   4.580   2.479   7.007  1.2992 -0.2362 -0.8388
   34CHL1   H2B 2491   4.728   2.572   7.049  0.2916 -0.8125  0.4903
   34CHL1   C20 2492   4.516   2.450   7.986 -1.0592  0.2740  0.4835
   34CHL1   H20 2493   4.625   2.430   7.984 -1.1198 -0.1105 -1.7495
   34CHL1   C21 2494   4.454   2.318   7.959 -0.1458  1.2607 -0.7723
   34CHL1  H21A 2495   4.499   2.234   8.017  0.9747  0.5036 -2.6624
   34CHL1  H21B 2496   4.472   2.285   7.855  1.5107  0.6914 -0.3448
   34CHL1  H21C 2497   4.345   2.307   7.976  0.1160  0.6545  0.6834
   34CHL1   C22 2498   4.483   2.489   8.137  0.0064  0.0031  0.3848
   34CHL1  H22A 2499   4.543   2.579   8.161  0.6184  0.6305 -2.9796
   34CHL1  H22B 2500   4.372   2.502   8.143 -0.1319  0.7818 -2.4134
   34CHL1   C23 2501   4.547   2.393   8.240 -0.2378  0.3050  0.1071
   34CHL1  H23A 2502   4.518   2.286   8.231  0.2552  0.0949  0.8913
   34CHL1  H23B 2503   4.654   2.397   8.213 -0.3643  0.7008 -0.3508
   34CHL1   C24 2504   4.516   2.440   8.387  0.2717  0.1209  0.5953
   34CHL1  H24A 2505   4.552   2.545   8.391  0.6940  0.0736 -0.9776
   34CHL1  H24B 2506   4.406   2.450   8.400 -0.3254  0.2882 -3.3031
   34CHL1   C25 2507   4.583   2.352   8.484 -0.1201 -0.2752  0.1707
   34CHL1   H25 2508   4.685   2.331   8.445  1.1744 -0.5118  3.3762
   34CHL1   C26 2509   4.599   2.424   8.615 -0.0815  0.4399  0.0259
   34CHL1  H26A 2510   4.500   2.444   8.661 -1.9114 -2.8526 -2.0493
   34CHL1  H26B 2511   4.644   2.363   8.696 -0.2425  1.5479  0.9774
   34CHL1  H26C 2512   4.662   2.515   8.618  0.7124 -0.0990  0.2112
   34CHL1   C27 2513   4.507   2.222   8.496 -0.0888  0.5372 -0.3296
   34CHL1  H27A 2514   4.407   2.236   8.542 -0.1401  0.1508 -0.3247
   34CHL1  H27B 2515   4.494   2.173   8.397  0.3315 -0.7545  0.2406
   34CHL1  H27C 2516   4.570   2.154   8.557  0.1891  1.5134  0.5033
   35CHL1    C3 2517   1.742   2.654   7.093 -0.1423  0.0182 -0.2561
   35CHL1    H3 2518   1.703   2.756   7.114  0.0132  0.1627 -0.6607
   35CHL1    O3 2519   1.768   2.654   6.954 -0.9751  0.0603 -0.4338
   35CHL1   H3' 2520   1.780   2.561   6.934 -0.9769 -0.6273  2.2939
   35CHL1    C4 2521   1.867   2.620   7.168 -0.1298  0.3449 -0.2542
   35CHL1   H4A 2522   1.896   2.514   7.157 -1.2816 -0.2108  1.6469
   35CHL1   H4B 2523   1.950   2.684   7.129 -1.0699  2.2886  0.7760
   35CHL1    C5 2524   1.833   2.641   7.316 -0.1597  0.3408 -0.0432
   35CHL1    C6 2525   1.887   2.741   7.392  0.2437 -0.5355  0.6451
   35CHL1    H6 2526   1.971   2.800   7.352 -0.1979  1.7109  2.7338
   35CHL1    C7 2527   1.844   2.772   7.537  0.4342 -0.0899  0.3141
   35CHL1   H7A 2528   1.928   2.803   7.603 -1.0724 -0.5197  2.5500
   35CHL1   H7B 2529   1.765   2.850   7.530  1.0667  0.6881  1.4882
   35CHL1    C8 2530   1.769   2.655   7.613 -0.2372  0.2314  0.1279
   35CHL1    H8 2531   1.842   2.579   7.650 -0.6149  0.2060  0.8434
   35CHL1   C14 2532   1.689   2.715   7.726  0.3015  0.0937 -0.6725
   35CHL1   H14 2533   1.623   2.794   7.684 -0.7646 -0.0436  0.6891
   35CHL1   C15 2534   1.762   2.800   7.836 -0.2850 -0.0581  0.3140
   35CHL1  H15A 2535   1.851   2.741   7.866 -1.4813 -2.8645 -1.1961
   35CHL1  H15B 2536   1.790   2.905   7.815  0.9890  0.2586  3.1639
   35CHL1   C16 2537   1.654   2.806   7.944  0.1784 -0.9249  0.1123
   35CHL1  H16A 2538   1.707   2.781   8.039  2.8358 -0.0015 -1.0263
   35CHL1  H16B 2539   1.613   2.908   7.958  1.3878 -0.5660  1.3025
   35CHL1   C17 2540   1.535   2.713   7.907 -0.5021  0.0587 -0.0396
   35CHL1   H17 2541   1.456   2.772   7.857  1.1377  2.2466 -0.1615
   35CHL1   C13 2542   1.594   2.620   7.798  0.0488  0.1053 -0.3200
   35CHL1   C18 2543   1.671   2.504   7.867 -0.0790  0.4347  0.2624
   35CHL1  H18A 2544   1.732   2.448   7.794 -0.9326  1.6482 -1.4429
   35CHL1  H18B 2545   1.743   2.543   7.942  0.8068 -0.3046 -0.1872
   35CHL1  H18C 2546   1.597   2.438   7.918 -1.8756  0.6260 -1.9723
   35CHL1   C12 2547   1.495   2.578   7.693  0.2931 -0.3794 -0.2827
   35CHL1  H12A 2548   1.419   2.501   7.719 -0.9774  0.6544 -0.8154
   35CHL1  H12B 2549   1.436   2.664   7.654 -0.4715 -0.5382  0.4967
   35CHL1   C11 2550   1.569   2.507   7.575  0.1207 -0.1702  0.1202
   35CHL1  H11A 2551   1.625   2.425   7.624  3.2475  1.7059 -0.0360
   35CHL1  H11B 2552   1.495   2.472   7.500 -0.1326  1.1717 -0.2812
   35CHL1    C9 2553   1.665   2.603   7.508  0.7982 -0.2493  0.4551
   35CHL1    H9 2554   1.602   2.685   7.468  0.4960 -0.2172  0.9861
   35CHL1   C10 2555   1.723   2.554   7.367 -0.0131  0.0229  0.4942
   35CHL1   C19 2556   1.791   2.409   7.390 -0.0206 -0.0495 -0.1196
   35CHL1  H19A 2557   1.832   2.371   7.294  1.2576 -1.1338  0.8190
   35CHL1  H19B 2558   1.875   2.415   7.463  0.7711 -1.2553 -0.8985
   35CHL1  H19C 2559   1.708   2.341   7.420  0.2271 -0.0333  0.6192
   35CHL1    C1 2560   1.604   2.548   7.265 -0.3377  0.3600  0.5848
   35CHL1   H1A 2561   1.544   2.455   7.282 -1.1519  0.8457  0.4356
   35CHL1   H1B 2562   1.526   2.626   7.272 -1.2793  0.2697 -4.7609
   35CHL1    C2 2563   1.641   2.548   7.114  0.3244  0.4089 -0.3118
   35CHL1   H2A 2564   1.557   2.582   7.049 -0.1595 -1.3145 -0.6393
   35CHL1   H2B 2565   1.664   2.445   7.080 -1.3777 -1.2471  3.1372
   35CHL1   C20 2566   1.481   2.648   8.041  0.2165  0.3174  0.5186
   35CHL1   H20 2567   1.559   2.583   8.084  1.7491  0.4735 -1.8473
   35CHL1   C21 2568   1.354   2.569   8.007  0.2662  0.3872  0.2394
   35CHL1  H21A 2569   1.275   2.619   7.947  1.1655  1.4493 -0.1148
   35CHL1  H21B 2570   1.305   2.526   8.097 -3.6605  1.9070 -0.9451
   35CHL1  H21C 2571   1.391   2.491   7.937  0.9054  0.9011 -0.0166
   35CHL1   C22 2572   1.441   2.753   8.142 -0.1079 -0.3339  0.6866
   35CHL1  H22A 2573   1.516   2.834   8.155 -1.6299  1.8486 -2.8600
   35CHL1  H22B 2574   1.352   2.807   8.104 -0.6004 -1.3950  0.3002
   35CHL1   C23 2575   1.425   2.707   8.290  0.0048  0.1389  0.2247
   35CHL1  H23A 2576   1.325   2.659   8.284  1.0169 -2.0493 -0.1928
   35CHL1  H23B 2577   1.488   2.621   8.322 -2.4265 -2.0905 -0.5522
   35CHL1   C24 2578   1.431   2.819   8.400 -0.0826 -0.6463 -1.0676
   35CHL1  H24A 2579   1.533   2.862   8.410 -0.5030  0.5352 -1.6038
   35CHL1  H24B 2580   1.379   2.907   8.355  1.2051  0.0845 -1.1757
   35CHL1   C25 2581   1.365   2.775   8.534 -0.6042 -0.2104  0.0466
   35CHL1   H25 2582   1.390   2.845   8.617 -1.3111  1.6035 -1.1959
   35CHL1   C26 2583   1.216   2.781   8.526 -0.0213  1.0065  0.3503
   35CHL1  H26A 2584   1.178   2.875   8.482 -1.3285 -0.1338 -1.0433
   35CHL1  H26B 2585   1.185   2.699   8.458  1.5309  0.1075  0.6919
   35CHL1  H26C 2586   1.158   2.768   8.620 -2.1115  2.1044 -0.7130
   35CHL1   C27 2587   1.412   2.635   8.592  0.8508  0.3654  0.1461
   35CHL1  H27A 2588   1.390   2.554   8.518  3.0009  1.2388 -1.5467
   35CHL1  H27B 2589   1.376   2.603   8.692  1.3947 -0.2208  0.1580
   35CHL1  H27C 2590   1.522   2.625   8.600  0.7308 -3.2364 -0.8728
   36CHL1    C3 2591   5.285   3.707   7.091 -0.4787 -0.2527  0.6590
   36CHL1    H3 2592   5.390   3.732   7.117  0.7874 -0.9701 -3.0382
   36CHL1    O3 2593   5.262   3.730   6.954 -0.2740  0.1092 -0.1940
   36CHL1   H3' 2594   5.172   3.711   6.930  0.0550  2.7678 -4.8660
   36CHL1    C4 2595   5.272   3.555   7.112  0.5882 -0.3820 -0.0117
   36CHL1   H4A 2596   5.185   3.515   7.055  2.0998 -1.7765 -1.4524
   36CHL1   H4B 2597   5.352   3.496   7.062  3.2917  1.5805  1.7446
   36CHL1    C5 2598   5.256   3.513   7.261 -0.3213  0.1882  0.1919
   36CHL1    C6 2599   5.338   3.415   7.307 -0.0373 -0.2475  0.0303
   36CHL1    H6 2600   5.398   3.359   7.234  1.9144 -1.4990  2.4238
   36CHL1    C7 2601   5.337   3.369   7.450 -0.4138  0.5548 -0.2838
   36CHL1   H7A 2602   5.325   3.260   7.462  2.4114  0.1451 -0.6931
   36CHL1   H7B 2603   5.429   3.410   7.497 -0.9558  0.2695  1.0921
   36CHL1    C8 2604   5.208   3.426   7.526 -0.4311 -0.0680  0.6212
   36CHL1    H8 2605   5.123   3.364   7.492 -0.2766 -0.7170  1.3809
   36CHL1   C14 2606   5.231   3.406   7.675 -0.3617  0.1110 -0.1060
   36CHL1   H14 2607   5.323   3.467   7.687  1.4123 -2.0739 -1.8397
   36CHL1   C15 2608   5.275   3.269   7.743  0.6879  0.2396  0.7033
   36CHL1  H15A 2609   5.208   3.189   7.704 -0.9222  1.8908 -0.1095
   36CHL1  H15B 2610   5.379   3.238   7.723  1.2040  0.2034  3.1822
   36CHL1   C16 2611   5.264   3.290   7.893  0.1978 -0.3821 -0.4222
   36CHL1  H16A 2612   5.198   3.210   7.934  0.2784 -0.6739 -0.8530
   36CHL1  H16B 2613   5.363   3.285   7.942  0.0873 -1.6564 -0.3006
   36CHL1   C17 2614   5.189   3.427   7.904 -0.0035 -0.5378 -0.2423
   36CHL1   H17 2615   5.272   3.500   7.907 -1.3218  0.9715  1.3539
   36CHL1   C13 2616   5.120   3.457   7.768  0.8620 -0.5531  1.0506
   36CHL1   C18 2617   5.000   3.369   7.750 -1.0878  0.4125  0.5106
   36CHL1  H18A 2618   4.960   3.373   7.647  0.0965 -1.6574 -0.0857
   36CHL1  H18B 2619   5.028   3.263   7.768 -0.0433  0.8416  1.4994
   36CHL1  H18C 2620   4.919   3.405   7.818 -1.3931  0.7879 -0.0469
   36CHL1   C12 2621   5.094   3.608   7.733  0.3150  0.2813  0.1882
   36CHL1  H12A 2622   4.999   3.641   7.778 -0.2076  1.9671 -1.9686
   36CHL1  H12B 2623   5.170   3.682   7.764  0.9318 -0.8556  1.4675
   36CHL1   C11 2624   5.070   3.636   7.584 -0.9311 -0.3249  0.2596
   36CHL1  H11A 2625   4.971   3.591   7.562 -0.6247 -0.1519 -1.6612
   36CHL1  H11B 2626   5.063   3.745   7.568  1.3321 -0.1065  0.4519
   36CHL1    C9 2627   5.182   3.573   7.492  0.1499  0.6019  0.0630
   36CHL1    H9 2628   5.279   3.622   7.514  0.2915 -0.9960  3.5307
   36CHL1   C10 2629   5.162   3.596   7.343 -0.1794  0.1954  0.8184
   36CHL1   C19 2630   5.030   3.540   7.296  0.5019  0.0071  0.4930
   36CHL1  H19A 2631   5.002   3.438   7.330 -0.0390 -0.6738 -1.7903
   36CHL1  H19B 2632   4.948   3.601   7.339  3.1994  3.4235  1.1630
   36CHL1  H19C 2633   5.010   3.535   7.187  0.1366  0.6924  0.5228
   36CHL1    C1 2634   5.169   3.751   7.316  0.6656  0.6466  0.3163
   36CHL1   H1A 2635   5.080   3.799   7.362  0.1138  0.0211 -0.0765
   36CHL1   H1B 2636   5.265   3.794   7.353  0.2984 -0.9901  3.4880
   36CHL1    C2 2637   5.177   3.781   7.166  0.5234  0.3968 -0.6705
   36CHL1   H2A 2638   5.192   3.888   7.141 -2.4906  1.2326  0.7502
   36CHL1   H2B 2639   5.082   3.741   7.125 -0.0510  1.1912 -0.1230
   36CHL1   C20 2640   5.106   3.447   8.035 -0.0267 -0.5965  0.9544
   36CHL1   H20 2641   5.039   3.535   8.023  0.2372 -0.6688 -1.4599
   36CHL1   C21 2642   5.215   3.497   8.141 -0.2038  0.0294  0.4930
   36CHL1  H21A 2643   5.309   3.437   8.135  1.2625  2.3121 -1.0280
   36CHL1  H21B 2644   5.183   3.500   8.247  0.9608  2.6233  0.8264
   36CHL1  H21C 2645   5.250   3.601   8.122  1.5280 -0.1409  2.3834
   36CHL1   C22 2646   5.021   3.326   8.090  0.0753  0.4952 -0.0825
   36CHL1  H22A 2647   4.952   3.287   8.012  1.4244 -0.9601 -0.5888
   36CHL1  H22B 2648   5.089   3.242   8.115 -0.9280 -0.6707 -1.1176
   36CHL1   C23 2649   4.946   3.378   8.211 -0.4485 -0.2934 -0.0396
   36CHL1  H23A 2650   5.023   3.402   8.287  1.0325  2.0101 -2.1195
   36CHL1  H23B 2651   4.911   3.481   8.187  1.1574  0.9804  2.6961
   36CHL1   C24 2652   4.836   3.296   8.268 -0.0718  0.3192 -0.8775
   36CHL1  H24A 2653   4.757   3.271   8.194 -1.2311 -1.2239  0.8034
   36CHL1  H24B 2654   4.888   3.204   8.303 -2.8090 -0.3702  1.8475
   36CHL1   C25 2655   4.771   3.356   8.391 -0.4361 -0.4031 -0.1832
   36CHL1   H25 2656   4.847   3.401   8.457 -0.1272  0.1323 -0.8838
   36CHL1   C26 2657   4.676   3.467   8.359 -0.5399  0.1855  0.1063
   36CHL1  H26A 2658   4.652   3.518   8.454  2.0693  1.8066 -0.0081
   36CHL1  H26B 2659   4.728   3.545   8.299 -0.5490  1.3816  1.5951
   36CHL1  H26C 2660   4.585   3.445   8.299  1.1666  0.6829 -2.8706
   36CHL1   C27 2661   4.724   3.252   8.493 -0.2545  0.7765  0.1040
   36CHL1  H27A 2662   4.815   3.210   8.541 -0.7822  1.0755  1.4149
   36CHL1  H27B 2663   4.663   3.301   8.571 -0.5704  1.6957 -0.7069
   36CHL1  H27C 2664   4.662   3.179   8.437 -0.3351 -0.7673  2.0809
   37CHL1    C3 2665   6.433   4.851   7.131 -0.2187 -0.9246  0.0004
   37CHL1    H3 2666   6.485   4.943   7.165 -0.5431  0.4920 -3.0142
   37CHL1    O3 2667   6.447   4.853   6.992  0.1681 -0.6795  0.0831
   37CHL1   H3' 2668   6.404   4.773   6.960 -1.0237 -0.2423  0.5074
   37CHL1    C4 2669   6.503   4.723   7.190 -0.6235 -0.1877  0.3702
   37CHL1   H4A 2670   6.456   4.638   7.137  0.4820  1.2626 -3.2161
   37CHL1   H4B 2671   6.610   4.714   7.162 -1.2828 -1.0017 -2.0671
   37CHL1    C5 2672   6.486   4.704   7.335  0.1447  0.1635 -0.8438
   37CHL1    C6 2673   6.583   4.692   7.422  0.2787 -0.0739 -1.2851
   37CHL1    H6 2674   6.686   4.689   7.383  1.5184 -2.0933  1.7916
   37CHL1    C7 2675   6.572   4.693   7.574 -0.0916 -0.6038  0.1763
   37CHL1   H7A 2676   6.640   4.619   7.620  0.3268 -0.8046 -0.7371
   37CHL1   H7B 2677   6.596   4.786   7.630  0.6562 -0.1572 -0.8487
   37CHL1    C8 2678   6.427   4.658   7.623 -0.5814 -0.5723 -0.6076
   37CHL1    H8 2679   6.393   4.553   7.617 -4.2672  0.2662  2.0127
   37CHL1   C14 2680   6.416   4.686   7.771  0.8600  0.0239 -0.2572
   37CHL1   H14 2681   6.438   4.795   7.778 -0.0566  0.2029 -0.0336
   37CHL1   C15 2682   6.501   4.605   7.877  0.1349 -0.2024 -0.3971
   37CHL1  H15A 2683   6.512   4.499   7.845 -1.2939 -0.2042 -1.0023
   37CHL1  H15B 2684   6.600   4.655   7.881 -0.4336  1.1107 -1.6986
   37CHL1   C16 2685   6.433   4.625   8.013  0.0486 -0.4939 -0.1789
   37CHL1  H16A 2686   6.413   4.521   8.049 -1.9354  0.2971  1.2088
   37CHL1  H16B 2687   6.496   4.687   8.079 -0.0799  2.3708 -2.5476
   37CHL1   C17 2688   6.300   4.696   7.982 -0.4112 -1.1856  0.0396
   37CHL1   H17 2689   6.331   4.802   7.995  2.6089 -1.6929 -2.0491
   37CHL1   C13 2690   6.271   4.680   7.830 -0.1515 -0.0883  0.6585
   37CHL1   C18 2691   6.215   4.535   7.820  0.4820 -0.0193  0.3614
   37CHL1  H18A 2692   6.279   4.460   7.872  0.8299 -2.4091 -3.1739
   37CHL1  H18B 2693   6.112   4.518   7.857  0.9797  0.5106  2.0620
   37CHL1  H18C 2694   6.223   4.512   7.711  1.3353 -0.1635  0.4486
   37CHL1   C12 2695   6.188   4.787   7.751  0.8624 -0.3294 -0.2020
   37CHL1  H12A 2696   6.080   4.778   7.777  1.4423 -2.5263  1.7947
   37CHL1  H12B 2697   6.227   4.890   7.769  1.5736 -1.0316  2.9791
   37CHL1   C11 2698   6.189   4.766   7.598 -1.1650  0.0225  0.3060
   37CHL1  H11A 2699   6.121   4.679   7.586  0.6641 -1.4351  0.0669
   37CHL1  H11B 2700   6.134   4.853   7.556 -1.4008 -0.7231 -1.0053
   37CHL1    C9 2701   6.334   4.752   7.542 -0.0158 -0.6377  0.2904
   37CHL1    H9 2702   6.369   4.856   7.556  0.9600 -0.6525 -1.7756
   37CHL1   C10 2703   6.340   4.726   7.385  0.1995 -0.2045 -0.1878
   37CHL1   C19 2704   6.262   4.588   7.362 -0.0726  0.1712  0.4213
   37CHL1  H19A 2705   6.312   4.515   7.429  0.5889  2.1658  2.2415
   37CHL1  H19B 2706   6.154   4.599   7.387 -0.2072 -1.0352  0.4235
   37CHL1  H19C 2707   6.275   4.562   7.255 -2.2101  2.8953 -0.6251
   37CHL1    C1 2708   6.268   4.847   7.316 -0.1811  0.2641 -0.0353
   37CHL1   H1A 2709   6.162   4.842   7.349  0.2783 -1.7855  1.3176
   37CHL1   H1B 2710   6.318   4.940   7.350 -1.0486  0.6347  0.2482
   37CHL1    C2 2711   6.281   4.848   7.163 -0.5090  0.2580  0.2325
   37CHL1   H2A 2712   6.228   4.935   7.118  0.7509 -0.2980 -2.5223
   37CHL1   H2B 2713   6.244   4.755   7.116 -1.0458  0.7112 -0.2658
   37CHL1   C20 2714   6.193   4.655   8.083  0.1817  0.3938  0.3990
   37CHL1   H20 2715   6.184   4.545   8.086 -0.2860  0.4280  0.3473
   37CHL1   C21 2716   6.060   4.725   8.048 -0.3905  0.1362 -1.1281
   37CHL1  H21A 2717   6.069   4.835   8.029  0.0920  0.4317  0.6625
   37CHL1  H21B 2718   5.985   4.711   8.129 -1.9071  1.3393 -2.2553
   37CHL1  H21C 2719   6.024   4.692   7.948  0.0801  3.0444 -2.3883
   37CHL1   C22 2720   6.239   4.686   8.229  0.4504 -0.4303  0.5735
   37CHL1  H22A 2721   6.337   4.640   8.253  0.3141 -0.0092  2.0211
   37CHL1  H22B 2722   6.244   4.795   8.249 -0.2608 -0.0753 -0.9629
   37CHL1   C23 2723   6.137   4.629   8.337 -0.3872  0.2109  0.2544
   37CHL1  H23A 2724   6.037   4.677   8.325 -1.3457 -0.7071  3.4611
   37CHL1  H23B 2725   6.132   4.524   8.300  2.0317 -0.0664  0.5541
   37CHL1   C24 2726   6.190   4.646   8.478  0.3123  0.1274 -0.4329
   37CHL1  H24A 2727   6.283   4.588   8.496 -0.2703 -0.4640  0.8403
   37CHL1  H24B 2728   6.203   4.755   8.493 -3.8410  0.4521  2.2975
   37CHL1   C25 2729   6.080   4.599   8.581 -0.4150 -0.2254  0.3316
   37CHL1   H25 2730   6.055   4.495   8.553 -0.0348 -0.8113  2.0828
   37CHL1   C26 2731   6.127   4.611   8.727  0.2909  0.0150 -0.2236
   37CHL1  H26A 2732   6.159   4.715   8.750 -0.5612  0.1804  0.2629
   37CHL1  H26B 2733   6.051   4.579   8.802  1.6362 -4.0127 -0.3341
   37CHL1  H26C 2734   6.217   4.548   8.744 -0.6271 -1.2594  0.0916
   37CHL1   C27 2735   5.951   4.685   8.573  0.3243  0.2981 -0.6345
   37CHL1  H27A 2736   5.876   4.650   8.647 -0.4179 -1.7407 -2.2306
   37CHL1  H27B 2737   5.978   4.789   8.599  0.6661 -0.2726  1.4604
   37CHL1  H27C 2738   5.900   4.687   8.474 -1.6857  2.8367  0.3451
   38CHL1    C3 2739   2.872   4.711   6.678 -0.9594 -0.0372 -0.1159
   38CHL1    H3 2740   2.917   4.808   6.707 -1.0809  0.6313 -2.0000
   38CHL1    O3 2741   2.877   4.689   6.537  0.1666 -0.4053 -0.1433
   38CHL1   H3' 2742   2.900   4.596   6.533 -0.5039 -0.7174  2.1514
   38CHL1    C4 2743   2.944   4.597   6.746  0.2899  0.3867 -0.1908
   38CHL1   H4A 2744   2.905   4.502   6.703 -2.4068  1.5858 -0.6024
   38CHL1   H4B 2745   3.048   4.584   6.707  0.9578  1.4066  1.1622
   38CHL1    C5 2746   2.944   4.611   6.896 -0.6682 -0.2261 -0.0009
   38CHL1    C6 2747   3.058   4.614   6.972 -0.5581  0.4278  0.2914
   38CHL1    H6 2748   3.149   4.582   6.920 -0.6736 -2.4379  1.6491
   38CHL1    C7 2749   3.065   4.619   7.123 -0.4448 -0.7963 -0.0857
   38CHL1   H7A 2750   3.114   4.524   7.153 -1.4289 -1.3192 -0.1136
   38CHL1   H7B 2751   3.129   4.707   7.148 -0.5022 -1.1929  1.5462
   38CHL1    C8 2752   2.926   4.618   7.186  0.4089  0.4302  0.1793
   38CHL1    H8 2753   2.900   4.510   7.198 -0.8109  0.8055  1.0992
   38CHL1   C14 2754   2.922   4.680   7.327 -0.0769 -0.3472 -0.0929
   38CHL1   H14 2755   2.939   4.789   7.310  0.6741 -0.2414  1.2174
   38CHL1   C15 2756   3.030   4.654   7.432  0.8989  0.3727 -0.1777
   38CHL1  H15A 2757   3.065   4.551   7.413  0.0399  0.2170 -1.0037
   38CHL1  H15B 2758   3.118   4.719   7.412  0.7558  1.1028  1.3549
   38CHL1   C16 2759   2.969   4.677   7.573 -0.0920  0.5821 -0.5518
   38CHL1  H16A 2760   2.966   4.578   7.624  0.6779 -0.7206 -2.8991
   38CHL1  H16B 2761   3.019   4.746   7.644  0.5562 -0.8406  0.4384
   38CHL1   C17 2762   2.826   4.714   7.541  0.1107  0.1452  0.5247
   38CHL1   H17 2763   2.835   4.821   7.516 -0.9681  0.2042  0.3401
   38CHL1   C13 2764   2.788   4.660   7.399  0.1308 -0.4978 -0.5754
   38CHL1   C18 2765   2.760   4.511   7.411  0.2765  0.2444 -0.4031
   38CHL1  H18A 2766   2.673   4.494   7.477  1.2370 -0.9329  0.5961
   38CHL1  H18B 2767   2.730   4.468   7.312 -0.0529 -0.0697 -0.1675
   38CHL1  H18C 2768   2.846   4.451   7.448  0.8120 -1.5307 -4.0527
   38CHL1   C12 2769   2.684   4.743   7.322 -0.2323 -0.2726  0.4252
   38CHL1  H12A 2770   2.580   4.740   7.361 -0.4226  0.5777  0.0111
   38CHL1  H12B 2771   2.716   4.849   7.329 -1.0386 -0.1268  2.8177
   38CHL1   C11 2772   2.680   4.705   7.174  0.4222  0.2356 -0.0822
   38CHL1  H11A 2773   2.635   4.603   7.174 -0.4493  0.6039 -0.9553
   38CHL1  H11B 2774   2.608   4.777   7.129 -0.3419 -1.3538 -1.5154
   38CHL1    C9 2775   2.814   4.684   7.099 -0.0972 -0.8928 -0.1471
   38CHL1    H9 2776   2.860   4.785   7.095 -1.2436 -0.3685 -0.3814
   38CHL1   C10 2777   2.800   4.627   6.958 -0.1712 -0.5003 -0.0057
   38CHL1   C19 2778   2.731   4.487   6.965  0.0363  0.4820 -0.3932
   38CHL1  H19A 2779   2.784   4.424   7.039 -1.0457 -0.6725 -0.5670
   38CHL1  H19B 2780   2.624   4.494   6.992  0.4005 -0.8930  1.6172
   38CHL1  H19C 2781   2.744   4.439   6.865  0.5506  1.2363 -0.7020
   38CHL1    C1 2782   2.720   4.733   6.879 -0.3539 -0.1024 -0.8535
   38CHL1   H1A 2783   2.613   4.716   6.905  0.1166 -1.8959  0.1023
   38CHL1   H1B 2784   2.749   4.837   6.904  1.7276 -0.7815 -0.2171
   38CHL1    C2 2785   2.727   4.719   6.726  0.0006  0.2602  0.3288
   38CHL1   H2A 2786   2.687   4.814   6.684 -0.0686  0.3864  0.6731
   38CHL1   H2B 2787   2.664   4.633   6.695 -0.5855  0.9884 -0.5545
   38CHL1   C20 2788   2.718   4.715   7.649  0.2439 -0.1129  0.1308
   38CHL1   H20 2789   2.615   4.705   7.608  0.3898  0.2110 -0.3167
   38CHL1   C21 2790   2.728   4.846   7.721 -0.2880 -0.1063  0.1459
   38CHL1  H21A 2791   2.822   4.851   7.780 -0.9273 -1.3420  1.3328
   38CHL1  H21B 2792   2.644   4.860   7.793 -0.7909 -0.8422 -0.2884
   38CHL1  H21C 2793   2.733   4.932   7.651 -0.9034 -1.5321 -1.7472
   38CHL1   C22 2794   2.739   4.591   7.748  0.9830  0.4991 -0.6146
   38CHL1  H22A 2795   2.728   4.506   7.678 -1.5777  0.2330  0.0387
   38CHL1  H22B 2796   2.842   4.593   7.791 -0.0412  2.2835  2.0147
   38CHL1   C23 2797   2.632   4.570   7.858  0.0071  0.0822  0.1930
   38CHL1  H23A 2798   2.657   4.633   7.946  3.1768 -0.8247  0.0821
   38CHL1  H23B 2799   2.526   4.595   7.840  0.2004  0.0967 -0.9877
   38CHL1   C24 2800   2.639   4.419   7.897 -0.4818 -0.5709 -1.2096
   38CHL1  H24A 2801   2.580   4.366   7.819 -0.0328 -0.0378 -1.9297
   38CHL1  H24B 2802   2.746   4.389   7.898 -0.8552 -2.1211 -2.6848
   38CHL1   C25 2803   2.570   4.385   8.032 -0.4242 -0.1687 -0.1468
   38CHL1   H25 2804   2.474   4.441   8.028 -1.1115 -1.2568  0.6292
   38CHL1   C26 2805   2.542   4.237   8.038 -0.5680 -0.2459 -0.2292
   38CHL1  H26A 2806   2.633   4.174   8.040  2.0306  3.2063  0.3960
   38CHL1  H26B 2807   2.481   4.213   8.129  1.8089 -1.7785  1.0562
   38CHL1  H26C 2808   2.491   4.220   7.941  0.4696 -0.3286 -0.7752
   38CHL1   C27 2809   2.653   4.409   8.159  0.3461 -0.0977 -0.7217
   38CHL1  H27A 2810   2.672   4.519   8.167 -0.6762  0.0009  0.5356
   38CHL1  H27B 2811   2.604   4.373   8.252 -2.1964  4.5060  0.0164
   38CHL1  H27C 2812   2.751   4.356   8.151  0.1067 -0.8695  1.0507
   39CHL1    C3 2813   2.064   3.588   6.836 -0.0992  0.1023  0.5209
   39CHL1    H3 2814   2.172   3.611   6.825 -0.3068  0.9300  0.1545
   39CHL1    O3 2815   2.012   3.567   6.708  0.3532 -0.6577 -0.1855
   39CHL1   H3' 2816   1.917   3.575   6.710  0.2585 -1.5202 -0.8367
   39CHL1    C4 2817   2.026   3.468   6.920 -0.0365  0.2302 -1.3740
   39CHL1   H4A 2818   1.916   3.461   6.931 -0.0426  1.4772 -0.4597
   39CHL1   H4B 2819   2.057   3.374   6.870  0.5128 -0.4283  0.1548
   39CHL1    C5 2820   2.077   3.479   7.063 -0.0280 -0.6007 -0.6733
   39CHL1    C6 2821   2.169   3.397   7.124 -0.5880  0.0122  0.4140
   39CHL1    H6 2822   2.213   3.315   7.065 -0.0630  0.8431 -0.3871
   39CHL1    C7 2823   2.215   3.401   7.269  0.2316 -0.1319  0.0157
   39CHL1   H7A 2824   2.223   3.306   7.327 -0.6369 -0.5523 -0.5118
   39CHL1   H7B 2825   2.316   3.445   7.260  0.9188 -0.1511  5.0055
   39CHL1    C8 2826   2.137   3.508   7.344 -0.0594  0.8461  0.6798
   39CHL1    H8 2827   2.042   3.458   7.375  0.1573  0.2950  0.4680
   39CHL1   C14 2828   2.214   3.533   7.473  0.0754  1.4062  0.4696
   39CHL1   H14 2829   2.320   3.550   7.445  0.6930 -2.6868 -0.3323
   39CHL1   C15 2830   2.229   3.416   7.572 -0.2746 -0.5219  0.2372
   39CHL1  H15A 2831   2.121   3.387   7.578 -0.2164 -0.7810  0.0702
   39CHL1  H15B 2832   2.294   3.331   7.542 -2.4569 -2.6547  1.2298
   39CHL1   C16 2833   2.278   3.490   7.703 -0.8972 -0.2402 -0.1137
   39CHL1  H16A 2834   2.226   3.436   7.785 -0.1866 -4.4424 -2.1705
   39CHL1  H16B 2835   2.386   3.476   7.724 -1.1099 -1.0037  0.4910
   39CHL1   C17 2836   2.253   3.648   7.681  0.2921 -0.2136 -0.5060
   39CHL1   H17 2837   2.345   3.708   7.661 -0.8298  1.2902 -1.3394
   39CHL1   C13 2838   2.162   3.651   7.558 -0.0687  0.1307  0.6343
   39CHL1   C18 2839   2.010   3.620   7.600  0.1060 -0.0211  0.0950
   39CHL1  H18A 2840   2.000   3.536   7.672  0.0012 -1.4276 -1.5236
   39CHL1  H18B 2841   1.962   3.706   7.652  0.8340 -1.2873  3.1311
   39CHL1  H18C 2842   1.949   3.593   7.512  1.0153  1.7344 -1.1296
   39CHL1   C12 2843   2.161   3.772   7.465  0.6778 -0.6272 -0.2882
   39CHL1  H12A 2844   2.123   3.864   7.516  0.7522 -1.2253  0.8843
   39CHL1  H12B 2845   2.260   3.800   7.423  1.1760 -3.6131 -1.3190
   39CHL1   C11 2846   2.072   3.761   7.340  0.5733 -0.1062 -0.0690
   39CHL1  H11A 2847   1.964   3.758   7.366  0.5874 -1.1163 -0.1001
   39CHL1  H11B 2848   2.087   3.850   7.275  1.1256  0.9066  1.4038
   39CHL1    C9 2849   2.112   3.634   7.263 -0.3391 -0.0623  0.0178
   39CHL1    H9 2850   2.213   3.661   7.226  0.8018 -1.2297  2.0720
   39CHL1   C10 2851   2.025   3.607   7.142  0.5619  0.0868  0.4199
   39CHL1   C19 2852   1.875   3.585   7.176 -0.5286  1.3577  0.6794
   39CHL1  H19A 2853   1.827   3.678   7.213 -0.4293  0.6675  2.6572
   39CHL1  H19B 2854   1.819   3.545   7.089  1.9531  0.0083 -0.4091
   39CHL1  H19C 2855   1.881   3.504   7.251  2.7844  1.0751  0.2555
   39CHL1    C1 2856   2.030   3.732   7.047 -0.3192 -0.1597  0.6681
   39CHL1   H1A 2857   1.973   3.810   7.101 -1.2573 -0.5509  0.2566
   39CHL1   H1B 2858   2.136   3.766   7.041  0.3076 -1.6518  2.3870
   39CHL1    C2 2859   1.990   3.707   6.895 -0.2982 -0.2560  0.3533
   39CHL1   H2A 2860   2.016   3.799   6.838  0.9423  0.5559  2.1025
   39CHL1   H2B 2861   1.880   3.697   6.883 -0.2315 -0.7557  0.1570
   39CHL1   C20 2862   2.183   3.712   7.815 -0.3722  0.5926  0.1524
   39CHL1   H20 2863   2.081   3.671   7.833  0.1024 -1.1246 -0.8607
   39CHL1   C21 2864   2.161   3.866   7.800 -0.0984  0.3263  0.6103
   39CHL1  H21A 2865   2.100   3.890   7.710  0.6402 -2.0057 -0.6012
   39CHL1  H21B 2866   2.263   3.908   7.780  0.6675 -1.0189  1.5561
   39CHL1  H21C 2867   2.131   3.928   7.887  1.8722  0.2218  1.4429
   39CHL1   C22 2868   2.263   3.676   7.937 -0.2400 -0.4030 -0.7554
   39CHL1  H22A 2869   2.220   3.732   8.023  2.2860  1.5181 -0.6405
   39CHL1  H22B 2870   2.252   3.570   7.970  0.3912  0.1559  1.4673
   39CHL1   C23 2871   2.411   3.709   7.933  0.4496 -0.4618  0.8885
   39CHL1  H23A 2872   2.472   3.657   7.856  1.1124  2.0674 -0.4164
   39CHL1  H23B 2873   2.426   3.817   7.911 -1.5366 -0.1243  1.0144
   39CHL1   C24 2874   2.461   3.677   8.076 -0.7696 -0.0438  0.4416
   39CHL1  H24A 2875   2.432   3.571   8.095  0.8336 -0.4623  0.6775
   39CHL1  H24B 2876   2.570   3.677   8.055 -1.2762 -0.1695 -2.5088
   39CHL1   C25 2877   2.443   3.779   8.190  0.1931  1.6776  0.3583
   39CHL1   H25 2878   2.335   3.774   8.216 -0.0567  0.8953 -0.7341
   39CHL1   C26 2879   2.514   3.740   8.317 -0.0867 -0.6959  0.1406
   39CHL1  H26A 2880   2.624   3.752   8.317 -0.0018 -0.9643  2.5307
   39CHL1  H26B 2881   2.470   3.792   8.405 -1.7956  3.7409 -2.9730
   39CHL1  H26C 2882   2.498   3.635   8.349 -0.5927  0.1701  3.0207
   39CHL1   C27 2883   2.484   3.921   8.145  0.0001  0.1948 -0.7022
   39CHL1  H27A 2884   2.494   3.993   8.230  1.1852  0.1392 -0.7858
   39CHL1  H27B 2885   2.581   3.912   8.092  0.5526  0.5642  0.2333
   39CHL1  H27C 2886   2.416   3.965   8.069 -1.0822 -0.2976 -0.0404
   40CHL1    C3 2887   4.768   4.535   6.665  0.7490 -0.2590  0.3506
   40CHL1    H3 2888   4.861   4.478   6.686  0.8969  0.1772  0.9074
   40CHL1    O3 2889   4.746   4.553   6.524  0.1706  0.5714  0.3209
   40CHL1   H3' 2890   4.811   4.620   6.504 -1.1356  1.3699 -1.5125
   40CHL1    C4 2891   4.639   4.476   6.732 -0.6788 -0.1244  0.2512
   40CHL1   H4A 2892   4.550   4.533   6.698  0.2646  1.7321  0.8219
   40CHL1   H4B 2893   4.640   4.372   6.692  1.2345  0.4583 -1.4135
   40CHL1    C5 2894   4.638   4.479   6.878 -0.2603 -0.4349 -0.5866
   40CHL1    C6 2895   4.595   4.373   6.945  0.5086  0.2695 -0.3233
   40CHL1    H6 2896   4.553   4.287   6.890  0.9879 -0.8638  1.0394
   40CHL1    C7 2897   4.590   4.367   7.097  0.0300 -0.9292  0.1178
   40CHL1   H7A 2898   4.497   4.317   7.132  0.8146 -1.3828  1.6674
   40CHL1   H7B 2899   4.667   4.300   7.140  2.6334  3.4721  3.0964
   40CHL1    C8 2900   4.606   4.504   7.173  0.0207 -0.6178 -0.1687
   40CHL1    H8 2901   4.514   4.565   7.162 -0.2447 -1.0244 -0.2170
   40CHL1   C14 2902   4.641   4.480   7.323  0.1651  0.2623  0.4160
   40CHL1   H14 2903   4.736   4.423   7.327 -0.1003 -0.1912  0.3957
   40CHL1   C15 2904   4.526   4.418   7.409  0.4088 -0.2821  0.1101
   40CHL1  H15A 2905   4.428   4.453   7.370 -0.3036 -0.3719  1.7718
   40CHL1  H15B 2906   4.538   4.311   7.382 -0.2353 -0.3348  0.0065
   40CHL1   C16 2907   4.555   4.468   7.555 -0.4523 -0.0595  0.3297
   40CHL1  H16A 2908   4.462   4.522   7.580 -0.9883 -0.1855 -1.2810
   40CHL1  H16B 2909   4.567   4.381   7.623  0.4826 -0.2608 -0.0787
   40CHL1   C17 2910   4.676   4.566   7.541 -0.2703 -0.0726 -0.1745
   40CHL1   H17 2911   4.770   4.506   7.548  0.7449  0.9936 -3.3265
   40CHL1   C13 2912   4.669   4.618   7.395 -0.1883 -0.1845 -0.5570
   40CHL1   C18 2913   4.547   4.716   7.386 -0.8711 -0.3137 -0.0813
   40CHL1  H18A 2914   4.566   4.809   7.445 -2.5524  0.3436 -0.5189
   40CHL1  H18B 2915   4.522   4.754   7.285 -1.6193 -1.1779 -0.2307
   40CHL1  H18C 2916   4.455   4.673   7.431 -0.1151 -1.3827  0.4703
   40CHL1   C12 2917   4.797   4.682   7.326 -0.1320 -0.0438 -0.1424
   40CHL1  H12A 2918   4.833   4.777   7.369 -0.0630 -0.3066  0.3951
   40CHL1  H12B 2919   4.887   4.616   7.327  2.3616  3.0385 -1.6841
   40CHL1   C11 2920   4.776   4.709   7.176  0.4233 -0.0290  0.7888
   40CHL1  H11A 2921   4.709   4.797   7.164  0.1025 -0.4845 -1.0353
   40CHL1  H11B 2922   4.875   4.735   7.134  0.1037  0.4633  0.3265
   40CHL1    C9 2923   4.719   4.584   7.101  0.1947  0.6964  0.5581
   40CHL1    H9 2924   4.805   4.516   7.084 -0.5809  0.1109 -1.3246
   40CHL1   C10 2925   4.680   4.610   6.951  0.1111  0.0591 -0.4535
   40CHL1   C19 2926   4.574   4.725   6.951 -0.0186  0.8993  0.0318
   40CHL1  H19A 2927   4.489   4.694   7.014 -0.5009 -2.0480 -1.8560
   40CHL1  H19B 2928   4.605   4.827   6.981 -0.3842  1.0563 -0.1207
   40CHL1  H19C 2929   4.540   4.731   6.845 -2.2665  1.4177  0.7261
   40CHL1    C1 2930   4.808   4.669   6.875  0.5237  0.6637 -0.8993
   40CHL1   H1A 2931   4.817   4.771   6.918 -0.9717  0.4945 -0.1131
   40CHL1   H1B 2932   4.897   4.608   6.902 -0.4328 -0.5852 -0.4275
   40CHL1    C2 2933   4.798   4.676   6.725 -0.5138  0.4461  0.8604
   40CHL1   H2A 2934   4.893   4.706   6.676 -0.2373 -0.7804  0.6069
   40CHL1   H2B 2935   4.711   4.736   6.689  0.1087  1.2725  0.7081
   40CHL1   C20 2936   4.685   4.666   7.658  0.9983 -0.1634  0.3442
   40CHL1   H20 2937   4.593   4.728   7.650  0.7084 -0.4686  1.2479
   40CHL1   C21 2938   4.805   4.762   7.630  0.3310 -0.0019  0.1484
   40CHL1  H21A 2939   4.890   4.703   7.591  0.9329 -0.2264  1.7579
   40CHL1  H21B 2940   4.842   4.812   7.722  3.9360 -0.1345 -1.0789
   40CHL1  H21C 2941   4.781   4.843   7.558  1.0811 -1.6978 -2.1238
   40CHL1   C22 2942   4.682   4.597   7.797 -0.2869  0.4087 -0.2531
   40CHL1  H22A 2943   4.586   4.541   7.796 -0.3874  0.5840 -0.6478
   40CHL1  H22B 2944   4.775   4.539   7.811  0.7839  1.9235 -0.7802
   40CHL1   C23 2945   4.686   4.699   7.913 -0.1340 -0.2294 -1.1707
   40CHL1  H23A 2946   4.781   4.756   7.918 -0.3498  0.0474  0.1872
   40CHL1  H23B 2947   4.605   4.774   7.898  0.1875  0.1921 -0.8299
   40CHL1   C24 2948   4.665   4.629   8.052 -0.5281 -0.6902  0.4679
   40CHL1  H24A 2949   4.561   4.595   8.069 -0.2693 -0.1642  3.9715
   40CHL1  H24B 2950   4.736   4.544   8.056 -1.0900 -1.2148 -0.5061
   40CHL1   C25 2951   4.698   4.716   8.174 -0.3844 -0.4923 -0.1844
   40CHL1   H25 2952   4.663   4.820   8.151 -0.3204 -0.6219 -0.9044
   40CHL1   C26 2953   4.630   4.669   8.295  0.8363  0.1067 -0.3315
   40CHL1  H26A 2954   4.662   4.706   8.395 -3.7206  2.4475  0.5197
   40CHL1  H26B 2955   4.524   4.700   8.293  0.4045 -1.2516  0.2035
   40CHL1  H26C 2956   4.636   4.558   8.302  0.8023 -0.1081 -2.9504
   40CHL1   C27 2957   4.858   4.724   8.206 -0.0748 -0.1962 -0.1574
   40CHL1  H27A 2958   4.879   4.790   8.293 -0.5794  1.0895 -0.9894
   40CHL1  H27B 2959   4.909   4.629   8.233 -0.0583 -0.2441 -0.3609
   40CHL1  H27C 2960   4.912   4.755   8.114 -0.4029 -0.0188 -0.2916
   41CHL1    C3 2961   5.939   4.670   7.053  0.2387  1.3086 -0.1750
   41CHL1    H3 2962   6.043   4.670   7.090  1.0214  0.8034 -2.2623
   41CHL1    O3 2963   5.942   4.696   6.916 -0.2743  0.3905  0.3626
   41CHL1   H3' 2964   5.855   4.674   6.882 -1.0524  0.3163  2.2694
   41CHL1    C4 2965   5.879   4.524   7.069  0.1700  0.4160 -0.2062
   41CHL1   H4A 2966   5.775   4.519   7.030 -0.0624 -0.8122  0.5267
   41CHL1   H4B 2967   5.957   4.462   7.020  2.3020  3.6617 -1.2421
   41CHL1    C5 2968   5.876   4.502   7.220  0.5402 -0.5247 -0.0716
   41CHL1    C6 2969   5.932   4.395   7.273 -0.1642 -0.6499  0.1876
   41CHL1    H6 2970   5.993   4.327   7.211  0.8922 -0.6065  1.1553
   41CHL1    C7 2971   5.938   4.358   7.416 -0.0991  0.7038  0.2211
   41CHL1   H7A 2972   5.914   4.250   7.427  1.4041  0.5576  2.7909
   41CHL1   H7B 2973   6.038   4.364   7.465  0.1475 -0.2647 -0.1477
   41CHL1    C8 2974   5.826   4.429   7.501 -0.0711 -0.4608 -0.0853
   41CHL1    H8 2975   5.728   4.394   7.462 -0.0150  0.1223 -0.7705
   41CHL1   C14 2976   5.849   4.404   7.648 -0.6112  0.3282  0.4093
   41CHL1   H14 2977   5.945   4.450   7.681 -1.3887  2.4893 -0.1653
   41CHL1   C15 2978   5.859   4.261   7.703 -0.5687  0.1394 -0.6475
   41CHL1  H15A 2979   5.782   4.204   7.646 -0.1089  1.1402 -2.3261
   41CHL1  H15B 2980   5.955   4.217   7.671 -1.2984 -1.8708 -0.2596
   41CHL1   C16 2981   5.832   4.268   7.849 -0.1564 -0.3252 -0.3377
   41CHL1  H16A 2982   5.756   4.195   7.883  0.4738 -1.3296 -1.0319
   41CHL1  H16B 2983   5.924   4.240   7.905 -1.2695 -1.6887  0.9015
   41CHL1   C17 2984   5.783   4.413   7.880 -0.5102  0.0064 -0.0441
   41CHL1   H17 2985   5.882   4.454   7.910 -0.4572 -1.7081  2.4878
   41CHL1   C13 2986   5.744   4.471   7.740  0.1567 -0.1138 -0.4500
   41CHL1   C18 2987   5.601   4.430   7.703  0.7784 -0.4437  0.1644
   41CHL1  H18A 2988   5.573   4.324   7.720 -0.4998 -0.1187  0.1517
   41CHL1  H18B 2989   5.526   4.487   7.762  0.3422  0.4467 -1.2025
   41CHL1  H18C 2990   5.581   4.455   7.597 -0.5098 -1.0386  0.2476
   41CHL1   C12 2991   5.778   4.624   7.725 -0.4674  0.2411  0.5446
   41CHL1  H12A 2992   5.706   4.694   7.773 -1.5010  2.3299 -3.5519
   41CHL1  H12B 2993   5.879   4.658   7.759  0.2972 -2.0221  0.6681
   41CHL1   C11 2994   5.756   4.666   7.577 -0.3246 -0.2314  0.1563
   41CHL1  H11A 2995   5.653   4.660   7.538 -1.2326 -1.2654  2.5279
   41CHL1  H11B 2996   5.801   4.767   7.562 -0.2755  0.1182  2.3103
   41CHL1    C9 2997   5.836   4.583   7.467  0.1388  0.7361  0.5464
   41CHL1    H9 2998   5.943   4.603   7.487  0.4515 -1.9598  2.1154
   41CHL1   C10 2999   5.804   4.605   7.319 -1.0313 -1.0428 -0.7313
   41CHL1   C19 3000   5.651   4.595   7.292 -1.1513  0.3361  0.2850
   41CHL1  H19A 3001   5.596   4.667   7.355  0.1878  2.0494 -0.4203
   41CHL1  H19B 3002   5.630   4.624   7.187  0.7082  0.3935 -0.0957
   41CHL1  H19C 3003   5.612   4.492   7.308  0.8830 -0.3025  1.4345
   41CHL1    C1 3004   5.854   4.743   7.284  0.2812 -0.2549  0.3242
   41CHL1   H1A 3005   5.791   4.816   7.339 -0.3951  0.0019 -0.7516
   41CHL1   H1B 3006   5.956   4.747   7.328 -0.8026  1.1558  2.9429
   41CHL1    C2 3007   5.856   4.775   7.130 -0.1242 -0.1786 -0.2594
   41CHL1   H2A 3008   5.908   4.872   7.117  1.4227 -1.1534 -1.5892
   41CHL1   H2B 3009   5.755   4.773   7.084 -0.4401  1.6144  0.2400
   41CHL1   C20 3010   5.686   4.417   8.000  0.4305  0.3289  0.1372
   41CHL1   H20 3011   5.587   4.374   7.974  1.0661 -1.0609 -0.0535
   41CHL1   C21 3012   5.666   4.561   8.036 -0.5963  0.4910 -0.1535
   41CHL1  H21A 3013   5.764   4.608   8.062 -0.5745  0.3148  0.0968
   41CHL1  H21B 3014   5.597   4.566   8.123 -0.1676  0.7307  0.1766
   41CHL1  H21C 3015   5.616   4.613   7.952 -0.3806 -0.0346 -0.6138
   41CHL1   C22 3016   5.734   4.344   8.128  0.9449  0.4904 -0.8932
   41CHL1  H22A 3017   5.645   4.338   8.194  0.5556  0.9668 -1.3740
   41CHL1  H22B 3018   5.752   4.238   8.101  0.6518  0.2479 -0.1555
   41CHL1   C23 3019   5.861   4.390   8.197  0.4578 -0.2860  0.5151
   41CHL1  H23A 3020   5.938   4.378   8.118  0.4774  0.0983  0.4732
   41CHL1  H23B 3021   5.853   4.497   8.228 -0.9566  0.4700 -2.1217
   41CHL1   C24 3022   5.902   4.303   8.312  0.5234  0.4494 -0.0420
   41CHL1  H24A 3023   5.940   4.205   8.274 -0.9646 -0.0931 -0.1821
   41CHL1  H24B 3024   5.987   4.356   8.360 -0.5961  0.9065  1.4864
   41CHL1   C25 3025   5.800   4.271   8.428  0.0233 -0.2359  0.4110
   41CHL1   H25 3026   5.743   4.181   8.398 -1.3981  1.1591 -1.3813
   41CHL1   C26 3027   5.872   4.245   8.562 -0.5058  0.3458  0.3441
   41CHL1  H26A 3028   5.916   4.330   8.618  2.1973 -0.0571 -0.9899
   41CHL1  H26B 3029   5.800   4.191   8.626 -2.6710  2.1265 -0.4402
   41CHL1  H26C 3030   5.958   4.177   8.548 -0.8828 -0.3212  1.1557
   41CHL1   C27 3031   5.706   4.390   8.444  0.2408  0.2160 -0.1560
   41CHL1  H27A 3032   5.662   4.405   8.545  0.5038  0.0719 -0.0197
   41CHL1  H27B 3033   5.762   4.484   8.424  1.1247  0.0498  1.3735
   41CHL1  H27C 3034   5.616   4.397   8.379  0.9365 -0.8316 -1.2674
   42CHL1    C3 3035   5.094   0.942   7.138  0.0147  0.5362 -0.2955
   42CHL1    H3 3036   4.984   0.941   7.153 -0.2271 -2.2705 -1.6275
   42CHL1    O3 3037   5.130   0.968   7.004  0.5081  0.0796 -0.4539
   42CHL1   H3' 3038   5.063   0.929   6.947  0.1033  0.6865 -0.4096
   42CHL1    C4 3039   5.146   1.055   7.234 -0.8960 -0.4500 -0.1600
   42CHL1   H4A 3040   5.255   1.070   7.219 -1.0095  1.3068  0.5087
   42CHL1   H4B 3041   5.103   1.153   7.204  0.4172 -0.0574 -0.7924
   42CHL1    C5 3042   5.109   1.022   7.382  0.8638  1.1018 -0.5959
   42CHL1    C6 3043   5.033   1.105   7.455 -1.2580  0.4426 -0.4201
   42CHL1    H6 3044   4.996   1.204   7.425 -1.2801  0.7239  0.5110
   42CHL1    C7 3045   4.989   1.077   7.593  0.3076 -0.3152 -0.6892
   42CHL1   H7A 3046   4.992   1.171   7.651 -0.3084  0.6381 -2.1404
   42CHL1   H7B 3047   4.882   1.046   7.587  0.2839  0.0293 -2.3754
   42CHL1    C8 3048   5.084   0.967   7.663 -0.3371  0.1086  0.3408
   42CHL1    H8 3049   5.183   1.016   7.671  0.2563 -0.9249 -0.4290
   42CHL1   C14 3050   5.036   0.939   7.806 -0.7482  0.1834 -0.0999
   42CHL1   H14 3051   4.936   0.897   7.782 -0.9744  1.2142 -1.0530
   42CHL1   C15 3052   5.012   1.055   7.899  0.6252 -0.4337  0.4597
   42CHL1  H15A 3053   5.106   1.115   7.893  1.3257 -1.5827 -0.3811
   42CHL1  H15B 3054   4.923   1.115   7.870 -0.1483 -0.5020  2.5028
   42CHL1   C16 3055   4.988   0.978   8.029  0.2873 -0.9687  0.1192
   42CHL1  H16A 3056   5.045   1.044   8.098  1.4625 -0.5530 -1.1924
   42CHL1  H16B 3057   4.881   0.977   8.057  0.5346  0.2061  1.1676
   42CHL1   C17 3058   5.037   0.832   8.011  1.2518  0.1823 -0.6534
   42CHL1   H17 3059   4.941   0.781   7.986  1.3745 -0.1014 -0.5498
   42CHL1   C13 3060   5.105   0.828   7.875  0.3941 -0.1647  1.0574
   42CHL1   C18 3061   5.251   0.859   7.904 -0.1318  0.3620 -0.4789
   42CHL1  H18A 3062   5.310   0.886   7.814  2.9713  2.5069  1.9585
   42CHL1  H18B 3063   5.254   0.934   7.987 -2.2944 -2.0611  1.9654
   42CHL1  H18C 3064   5.310   0.768   7.926 -1.4410  0.0098  1.8548
   42CHL1   C12 3065   5.093   0.699   7.793 -0.2201  0.2678  0.1745
   42CHL1  H12A 3066   5.154   0.618   7.838 -0.8172 -0.6664 -0.6536
   42CHL1  H12B 3067   4.985   0.672   7.787 -0.0591 -0.1357 -1.5293
   42CHL1   C11 3068   5.151   0.717   7.647 -0.3509 -0.4347  0.3014
   42CHL1  H11A 3069   5.259   0.738   7.656 -0.9553  3.6665  0.0183
   42CHL1  H11B 3070   5.132   0.619   7.598 -2.5869 -0.5113  1.1814
   42CHL1    C9 3071   5.085   0.845   7.574 -0.7353  1.0775 -0.4493
   42CHL1    H9 3072   4.981   0.823   7.544 -0.9890 -0.0585  1.1277
   42CHL1   C10 3073   5.145   0.877   7.433 -0.3620 -0.4561 -0.7416
   42CHL1   C19 3074   5.298   0.878   7.437  0.4447 -0.1877 -0.4454
   42CHL1  H19A 3075   5.334   0.777   7.468  1.6139  0.8640  1.9246
   42CHL1  H19B 3076   5.356   0.906   7.346 -0.6725  1.6698 -0.6396
   42CHL1  H19C 3077   5.331   0.945   7.519  1.1469 -0.1522 -0.7524
   42CHL1    C1 3078   5.099   0.774   7.319 -0.5043 -0.0404 -0.1760
   42CHL1   H1A 3079   5.132   0.672   7.348  3.3568  0.6734 -1.4158
   42CHL1   H1B 3080   4.988   0.775   7.317 -0.5023 -0.0305 -0.3602
   42CHL1    C2 3081   5.151   0.810   7.178 -0.2821 -0.0126 -0.2580
   42CHL1   H2A 3082   5.116   0.740   7.099 -0.9793  1.5339 -1.3638
   42CHL1   H2B 3083   5.262   0.816   7.171 -0.3293  0.6990 -0.4555
   42CHL1   C20 3084   5.102   0.754   8.129  0.8619  0.0445 -0.2365
   42CHL1   H20 3085   5.207   0.783   8.144  0.7530  0.9879 -1.1709
   42CHL1   C21 3086   5.110   0.602   8.098  0.0277  0.1456 -0.5846
   42CHL1  H21A 3087   5.187   0.574   8.023 -0.8501  0.9430 -1.8315
   42CHL1  H21B 3088   5.012   0.564   8.063 -1.1850  0.6601  1.9959
   42CHL1  H21C 3089   5.133   0.546   8.191  0.6497  0.4367 -0.5566
   42CHL1   C22 3090   5.038   0.767   8.275 -0.9687 -0.6162 -0.2032
   42CHL1  H22A 3091   5.117   0.713   8.331 -1.4359 -2.0368 -0.8766
   42CHL1  H22B 3092   5.041   0.875   8.303 -2.0035 -0.7365  0.4261
   42CHL1   C23 3093   4.902   0.708   8.297 -0.5048  0.4528 -0.1832
   42CHL1  H23A 3094   4.831   0.775   8.244 -2.6422 -1.5114  0.0510
   42CHL1  H23B 3095   4.890   0.608   8.250  0.1842  0.4954 -0.4722
   42CHL1   C24 3096   4.868   0.709   8.443  0.4530  0.4687  0.0724
   42CHL1  H24A 3097   4.941   0.652   8.504 -2.0169 -2.6591  0.3646
   42CHL1  H24B 3098   4.853   0.811   8.486 -1.8561 -0.6133  2.0397
   42CHL1   C25 3099   4.737   0.629   8.467 -0.0060 -0.1917  0.2126
   42CHL1   H25 3100   4.756   0.536   8.410  0.6223 -0.1939  0.4210
   42CHL1   C26 3101   4.719   0.580   8.615 -0.6178  0.0496  0.0475
   42CHL1  H26A 3102   4.646   0.497   8.624 -0.3217 -0.1104  1.0953
   42CHL1  H26B 3103   4.823   0.554   8.646 -1.1133 -1.0727  0.8205
   42CHL1  H26C 3104   4.692   0.657   8.690 -0.0692 -0.4066  0.7234
   42CHL1   C27 3105   4.605   0.697   8.425  0.2236  0.3124 -0.4957
   42CHL1  H27A 3106   4.514   0.644   8.460  0.6543 -0.3308 -0.3430
   42CHL1  H27B 3107   4.584   0.723   8.319 -0.5705 -1.6848 -0.8750
   42CHL1  H27C 3108   4.610   0.799   8.470  0.7959 -0.3535  0.9848
   43CHL1    C3 3109   0.593   4.858   6.554  0.2738 -0.7787  0.8140
   43CHL1    H3 3110   0.486   4.842   6.580 -0.2395 -2.6317 -1.9519
   43CHL1    O3 3111   0.595   4.852   6.408 -0.4092  0.1819  0.3330
   43CHL1   H3' 3112   0.688   4.832   6.392 -0.6488 -1.4105  0.8264
   43CHL1    C4 3113   0.650   4.999   6.598  0.6784  0.0483  0.5593
   43CHL1   H4A 3114   0.757   5.001   6.568  0.3536  0.1097 -0.6654
   43CHL1   H4B 3115   0.597   5.076   6.538 -0.2730 -1.3838 -0.5316
   43CHL1    C5 3116   0.637   5.025   6.747  0.4392  0.4622 -0.4596
   43CHL1    C6 3117   0.562   5.120   6.799  0.0388 -0.8826  0.4324
   43CHL1    H6 3118   0.500   5.187   6.738  1.5533  0.1957  0.0001
   43CHL1    C7 3119   0.531   5.130   6.945  0.6778  0.1652  0.3688
   43CHL1   H7A 3120   0.516   5.237   6.970  1.0029  0.0802  0.9572
   43CHL1   H7B 3121   0.439   5.070   6.962  0.5885  0.4928  1.0856
   43CHL1    C8 3122   0.635   5.058   7.039  0.2342  0.0544 -0.2517
   43CHL1    H8 3123   0.730   5.115   7.052  0.2148  0.2413 -0.9025
   43CHL1   C14 3124   0.576   5.040   7.181  0.5163 -0.0616 -0.6431
   43CHL1   H14 3125   0.492   4.966   7.174 -0.1828  0.5454  0.9169
   43CHL1   C15 3126   0.511   5.159   7.259 -0.6544  0.2525  0.6805
   43CHL1  H15A 3127   0.577   5.249   7.255 -4.4088  3.3629  1.5048
   43CHL1  H15B 3128   0.415   5.187   7.211 -0.7555 -2.1409 -0.6533
   43CHL1   C16 3129   0.500   5.114   7.398 -0.1440  0.5927 -0.0311
   43CHL1  H16A 3130   0.552   5.193   7.456  1.4086 -1.0587  0.9435
   43CHL1  H16B 3131   0.396   5.112   7.435 -1.2412 -0.1933 -2.9043
   43CHL1   C17 3132   0.581   4.977   7.411  0.0346  0.2621 -0.4986
   43CHL1   H17 3133   0.502   4.900   7.412 -1.4904  1.7358  1.1321
   43CHL1   C13 3134   0.658   4.961   7.277 -0.0149  0.2206 -0.1011
   43CHL1   C18 3135   0.794   5.026   7.292 -1.0069  0.4470 -0.2316
   43CHL1  H18A 3136   0.853   4.955   7.354 -0.6281  0.3997 -0.6424
   43CHL1  H18B 3137   0.842   5.051   7.195  0.2315  0.7368  0.4429
   43CHL1  H18C 3138   0.777   5.120   7.350 -2.8856  0.6726 -1.0492
   43CHL1   C12 3139   0.675   4.819   7.219  0.2824 -0.3056 -0.4105
   43CHL1  H12A 3140   0.756   4.769   7.276 -1.1417  0.3492  2.3645
   43CHL1  H12B 3141   0.579   4.764   7.230  0.4010 -0.3266  0.6195
   43CHL1   C11 3142   0.731   4.823   7.076 -0.2143  0.1020 -0.5447
   43CHL1  H11A 3143   0.836   4.856   7.088 -0.1133 -0.1795 -0.6282
   43CHL1  H11B 3144   0.728   4.724   7.024 -0.2123  0.1778 -0.6903
   43CHL1    C9 3145   0.652   4.919   6.983  0.4245  0.2062 -0.8766
   43CHL1    H9 3146   0.554   4.867   6.978  0.8998 -1.0398  1.3593
   43CHL1   C10 3147   0.705   4.918   6.840  0.8796 -0.2580  0.3575
   43CHL1   C19 3148   0.855   4.945   6.828  0.4869 -0.4913 -0.6914
   43CHL1  H19A 3149   0.867   5.043   6.879  1.5049 -1.3784  0.8790
   43CHL1  H19B 3150   0.905   4.862   6.882 -2.2014 -0.0687  2.8070
   43CHL1  H19C 3151   0.893   4.940   6.724  1.1594  1.9106 -0.6086
   43CHL1    C1 3152   0.676   4.784   6.781 -0.3926 -0.5652 -0.7797
   43CHL1   H1A 3153   0.738   4.701   6.822 -0.0011  0.2935  0.4176
   43CHL1   H1B 3154   0.570   4.755   6.799  0.2199 -3.4935 -1.3514
   43CHL1    C2 3155   0.688   4.764   6.628 -0.0257  0.0227  0.1380
   43CHL1   H2A 3156   0.653   4.662   6.603  2.9339 -1.1882  0.5576
   43CHL1   H2B 3157   0.787   4.778   6.580 -0.4364 -1.2623 -1.1644
   43CHL1   C20 3158   0.656   4.959   7.549  0.5933 -1.1434  0.0178
   43CHL1   H20 3159   0.750   5.018   7.545 -0.0622 -0.1267 -1.0512
   43CHL1   C21 3160   0.692   4.805   7.566 -0.3132  0.0303  0.3094
   43CHL1  H21A 3161   0.605   4.740   7.587 -0.3825  0.9626  3.5173
   43CHL1  H21B 3162   0.774   4.797   7.641 -0.1789  1.3402  0.3305
   43CHL1  H21C 3163   0.731   4.758   7.474 -0.7711 -2.0214  1.1195
   43CHL1   C22 3164   0.577   5.003   7.677 -0.2859  0.1088 -0.1507
   43CHL1  H22A 3165   0.558   5.111   7.693 -0.7872  0.0232 -0.1641
   43CHL1  H22B 3166   0.481   4.948   7.666  0.2553 -1.2441  1.2890
   43CHL1   C23 3167   0.633   4.956   7.814  0.1801 -0.6901 -0.0614
   43CHL1  H23A 3168   0.551   4.968   7.888 -0.0409  1.0082 -0.5420
   43CHL1  H23B 3169   0.653   4.847   7.811  0.7490 -0.5699 -0.8587
   43CHL1   C24 3170   0.765   5.029   7.840  0.2920 -0.1334  0.1496
   43CHL1  H24A 3171   0.839   5.013   7.758 -1.2693  0.9517 -1.5750
   43CHL1  H24B 3172   0.747   5.139   7.836 -0.5522 -0.2832 -0.5860
   43CHL1   C25 3173   0.830   5.008   7.977  0.1415 -0.0290  0.0646
   43CHL1   H25 3174   0.750   5.016   8.054 -0.2061 -0.4475 -0.2498
   43CHL1   C26 3175   0.900   4.874   7.980  0.3752 -0.2120 -0.3166
   43CHL1  H26A 3176   0.997   4.899   7.931  0.6774  0.9550  0.8476
   43CHL1  H26B 3177   0.927   4.854   8.086  1.2350 -1.4543 -0.7362
   43CHL1  H26C 3178   0.852   4.782   7.940  1.1069 -0.3457 -0.9102
   43CHL1   C27 3179   0.929   5.120   8.017  0.5985 -0.4562  0.2096
   43CHL1  H27A 3180   1.028   5.108   7.968  1.1798 -2.1134  1.6860
   43CHL1  H27B 3181   0.884   5.217   7.985 -0.5486 -1.4532 -1.3651
   43CHL1  H27C 3182   0.950   5.124   8.126  0.5724 -0.8631  0.2279
   44CHL1    C3 3183   6.521   4.322   7.005 -0.0407  0.4458  0.2778
   44CHL1    H3 3184   6.542   4.425   7.040  0.3705 -0.1543  1.9119
   44CHL1    O3 3185   6.527   4.324   6.863 -0.1495 -0.2945  0.3745
   44CHL1   H3' 3186   6.527   4.231   6.839 -0.9389 -0.6850  1.7913
   44CHL1    C4 3187   6.625   4.220   7.059  0.6187  0.3541 -0.1006
   44CHL1   H4A 3188   6.622   4.123   7.006 -3.3193  0.7585 -0.9858
   44CHL1   H4B 3189   6.717   4.276   7.033 -0.8463  1.7030 -2.8033
   44CHL1    C5 3190   6.606   4.217   7.211  0.1110 -1.1758 -1.0793
   44CHL1    C6 3191   6.708   4.247   7.292 -0.1174  0.2071 -0.0737
   44CHL1    H6 3192   6.800   4.286   7.246  0.5848 -1.9602 -0.6406
   44CHL1    C7 3193   6.708   4.238   7.445 -0.9566  0.1933  0.2442
   44CHL1   H7A 3194   6.798   4.185   7.482 -1.1676  0.7096  1.5531
   44CHL1   H7B 3195   6.718   4.341   7.486  0.8794 -0.1831  0.7980
   44CHL1    C8 3196   6.574   4.170   7.497 -0.2846 -0.3633  0.5147
   44CHL1    H8 3197   6.583   4.062   7.470  0.7862  0.5130 -3.2324
   44CHL1   C14 3198   6.560   4.186   7.641 -0.5163 -0.9956  0.2870
   44CHL1   H14 3199   6.559   4.296   7.661  0.0033 -0.9773  0.2185
   44CHL1   C15 3200   6.668   4.127   7.732  0.5781  0.6722 -0.6401
   44CHL1  H15A 3201   6.702   4.028   7.696  0.0485 -0.9234  2.7950
   44CHL1  H15B 3202   6.766   4.177   7.746  1.6542 -1.9625  2.3805
   44CHL1   C16 3203   6.603   4.105   7.869  0.4452  0.5785 -0.1743
   44CHL1  H16A 3204   6.623   4.000   7.897  1.7270  0.8814  0.0759
   44CHL1  H16B 3205   6.640   4.174   7.948 -3.9887 -0.1233  2.9322
   44CHL1   C17 3206   6.457   4.153   7.855 -0.4971  0.0251  0.3753
   44CHL1   H17 3207   6.469   4.261   7.876  0.4344 -0.1273  0.6670
   44CHL1   C13 3208   6.429   4.134   7.704  0.4708  0.0752 -0.0785
   44CHL1   C18 3209   6.409   3.987   7.679  0.6940  0.1318 -0.5601
   44CHL1  H18A 3210   6.405   3.974   7.569 -0.1755 -0.4930 -0.4720
   44CHL1  H18B 3211   6.479   3.910   7.718 -0.0705 -1.7500 -2.7139
   44CHL1  H18C 3212   6.306   3.963   7.716  1.3114 -0.5745  0.7962
   44CHL1   C12 3213   6.314   4.216   7.639  0.8130 -0.4046  0.2535
   44CHL1  H12A 3214   6.208   4.195   7.666  1.0484 -2.4981 -0.3063
   44CHL1  H12B 3215   6.321   4.324   7.667  0.7581 -0.8615  2.1926
   44CHL1   C11 3216   6.313   4.203   7.484 -0.3329  0.5628 -0.5288
   44CHL1  H11A 3217   6.277   4.106   7.444  1.0749 -0.3440  0.3143
   44CHL1  H11B 3218   6.232   4.272   7.454 -1.1515 -0.0367  0.2524
   44CHL1    C9 3219   6.456   4.221   7.420  0.4405 -0.3337 -0.0291
   44CHL1    H9 3220   6.477   4.329   7.433  4.0818 -0.6886 -1.8591
   44CHL1   C10 3221   6.459   4.194   7.267 -0.2895 -0.2353 -0.6055
   44CHL1   C19 3222   6.414   4.042   7.245 -0.3571 -0.1363  0.2581
   44CHL1  H19A 3223   6.438   3.997   7.146  0.9796  1.3509 -0.1393
   44CHL1  H19B 3224   6.450   3.972   7.323  1.7520  0.7665  0.1616
   44CHL1  H19C 3225   6.303   4.049   7.252 -0.3262  2.1129 -0.4297
   44CHL1    C1 3226   6.365   4.293   7.192  0.5192 -0.0063  0.4679
   44CHL1   H1A 3227   6.262   4.291   7.234  0.1432  0.9059 -0.3697
   44CHL1   H1B 3228   6.401   4.394   7.224  0.3531  0.2907 -0.2748
   44CHL1    C2 3229   6.377   4.283   7.038  0.1984  0.7659 -0.0381
   44CHL1   H2A 3230   6.310   4.362   6.996 -1.9315 -1.3852 -0.8725
   44CHL1   H2B 3231   6.332   4.192   6.994  0.3183  0.0879  1.2106
   44CHL1   C20 3232   6.359   4.074   7.949  0.0358  0.0025 -0.3966
   44CHL1   H20 3233   6.368   3.964   7.944 -1.1518 -0.2359  1.5330
   44CHL1   C21 3234   6.218   4.117   7.919 -0.3671 -0.0314  0.0922
   44CHL1  H21A 3235   6.190   4.069   7.823  1.5639 -1.1369  0.0172
   44CHL1  H21B 3236   6.201   4.227   7.924 -1.0488 -0.1096 -0.4537
   44CHL1  H21C 3237   6.143   4.073   7.988  0.2493  0.7998  1.3348
   44CHL1   C22 3238   6.393   4.102   8.096  0.5392  0.0687  0.6123
   44CHL1  H22A 3239   6.498   4.066   8.101  0.6684  0.2807 -0.3477
   44CHL1  H22B 3240   6.399   4.207   8.131 -1.2174  0.2428  0.5077
   44CHL1   C23 3241   6.313   4.022   8.201 -0.9544  0.0057 -0.7808
   44CHL1  H23A 3242   6.208   4.055   8.219 -1.4064 -1.9062  0.3321
   44CHL1  H23B 3243   6.305   3.919   8.160  0.1411 -0.1332 -0.6614
   44CHL1   C24 3244   6.371   3.996   8.339 -0.0690  0.5934  0.2366
   44CHL1  H24A 3245   6.306   3.926   8.396  0.9656 -0.0381  0.6596
   44CHL1  H24B 3246   6.472   3.951   8.332 -0.1775  0.5604 -1.4727
   44CHL1   C25 3247   6.391   4.125   8.426  0.0906 -0.3186 -0.0957
   44CHL1   H25 3248   6.464   4.189   8.372  2.4687 -1.6092  1.4070
   44CHL1   C26 3249   6.257   4.193   8.453  0.0163  0.2420 -0.1699
   44CHL1  H26A 3250   6.271   4.277   8.524 -0.2908  0.9713 -0.9586
   44CHL1  H26B 3251   6.205   4.231   8.363 -1.5269 -4.7341 -1.7337
   44CHL1  H26C 3252   6.193   4.109   8.489  0.7237 -0.7054 -1.0321
   44CHL1   C27 3253   6.462   4.089   8.561 -0.6541 -0.7762  0.4233
   44CHL1  H27A 3254   6.402   4.016   8.620 -0.8028 -0.6952  0.3703
   44CHL1  H27B 3255   6.561   4.045   8.539 -1.2760 -1.7854 -0.4558
   44CHL1  H27C 3256   6.464   4.180   8.625 -0.2492  0.6187 -1.4731
   45CHL1    C3 3257   5.490   1.404   6.989  0.3922 -0.7580  0.5359
   45CHL1    H3 3258   5.601   1.409   6.992  0.4228  0.8395 -1.0753
   45CHL1    O3 3259   5.442   1.411   6.851  0.0697  0.0480  0.4292
   45CHL1   H3' 3260   5.497   1.343   6.811  2.6568  0.6997  2.5469
   45CHL1    C4 3261   5.435   1.276   7.052 -0.7342  0.4661 -0.1335
   45CHL1   H4A 3262   5.326   1.288   7.036 -0.9383 -0.5691  0.3786
   45CHL1   H4B 3263   5.480   1.189   6.999 -1.2521  0.4685 -0.5802
   45CHL1    C5 3264   5.463   1.265   7.204  0.5882 -0.0335  0.3127
   45CHL1    C6 3265   5.534   1.161   7.258 -0.3682 -0.5537 -0.4669
   45CHL1    H6 3266   5.567   1.076   7.196  1.5131  0.0725 -0.3787
   45CHL1    C7 3267   5.559   1.142   7.404 -0.0202 -0.0829  0.5990
   45CHL1   H7A 3268   5.521   1.043   7.438 -1.7446 -0.2144 -1.5031
   45CHL1   H7B 3269   5.668   1.157   7.420  0.1045 -0.7332  0.3864
   45CHL1    C8 3270   5.487   1.242   7.495 -0.0992 -0.1927 -0.0019
   45CHL1    H8 3271   5.380   1.215   7.505 -0.1977  0.0296 -0.4053
   45CHL1   C14 3272   5.548   1.249   7.624 -0.2654  0.5473 -0.2361
   45CHL1   H14 3273   5.657   1.265   7.604 -0.0445 -0.5504 -0.0201
   45CHL1   C15 3274   5.543   1.117   7.699 -0.5225  0.3473 -0.3851
   45CHL1  H15A 3275   5.443   1.070   7.696  0.3020 -1.6713  1.0119
   45CHL1  H15B 3276   5.614   1.046   7.651  1.1720  0.8061  1.2982
   45CHL1   C16 3277   5.585   1.150   7.845  0.3212 -0.4789  0.7711
   45CHL1  H16A 3278   5.506   1.101   7.906 -0.8508  0.1625 -0.1765
   45CHL1  H16B 3279   5.687   1.119   7.875  0.5871 -0.5427 -0.1586
   45CHL1   C17 3280   5.567   1.307   7.851 -0.3116 -0.4596  0.3827
   45CHL1   H17 3281   5.671   1.341   7.838 -0.5983 -0.1730 -1.4570
   45CHL1   C13 3282   5.495   1.347   7.725 -0.0594 -1.0505 -0.2340
   45CHL1   C18 3283   5.343   1.329   7.754 -0.7218 -0.1798  0.2670
   45CHL1  H18A 3284   5.299   1.405   7.822  0.0305 -0.0895  0.6573
   45CHL1  H18B 3285   5.282   1.337   7.661  1.6187 -0.5933 -1.3977
   45CHL1  H18C 3286   5.308   1.231   7.796  1.4254 -1.2407 -0.2899
   45CHL1   C12 3287   5.511   1.487   7.662 -0.2384  0.1824 -0.0814
   45CHL1  H12A 3288   5.464   1.569   7.720 -0.7971 -0.4912  0.4345
   45CHL1  H12B 3289   5.620   1.506   7.656 -0.5010  1.4762 -1.8082
   45CHL1   C11 3290   5.440   1.491   7.528 -0.1796  0.1043  0.1513
   45CHL1  H11A 3291   5.331   1.480   7.546 -0.6088  1.1432 -1.6320
   45CHL1  H11B 3292   5.445   1.592   7.484  2.2185 -0.5834 -1.3413
   45CHL1    C9 3293   5.493   1.381   7.429 -0.0968  0.3077 -0.2933
   45CHL1    H9 3294   5.601   1.404   7.417 -0.0471 -0.1307 -0.7051
   45CHL1   C10 3295   5.433   1.388   7.291  0.0570  0.1453  0.1255
   45CHL1   C19 3296   5.273   1.384   7.302  0.6149  0.4264 -0.0136
   45CHL1  H19A 3297   5.230   1.473   7.353  0.2093 -0.4080  1.1371
   45CHL1  H19B 3298   5.215   1.377   7.207  0.9230 -1.4793 -0.0949
   45CHL1  H19C 3299   5.254   1.294   7.364  1.3915  1.0470  1.1506
   45CHL1    C1 3300   5.481   1.519   7.212  0.2440  0.0303  0.4467
   45CHL1   H1A 3301   5.450   1.609   7.269 -0.3128 -0.1675  0.4625
   45CHL1   H1B 3302   5.592   1.512   7.217  0.1940 -0.1352  2.5714
   45CHL1    C2 3303   5.434   1.532   7.067 -0.7079  0.4823  0.3996
   45CHL1   H2A 3304   5.477   1.622   7.019  0.5794 -0.0958  0.4107
   45CHL1   H2B 3305   5.323   1.525   7.063 -0.6491 -0.3600 -0.1674
   45CHL1   C20 3306   5.517   1.358   7.988 -0.0426 -0.1028 -0.2703
   45CHL1   H20 3307   5.417   1.323   8.020  0.0484  0.3933  0.5724
   45CHL1   C21 3308   5.512   1.514   7.993  0.5133  0.6860 -0.2592
   45CHL1  H21A 3309   5.508   1.555   8.096  0.3652  0.7813 -0.3032
   45CHL1  H21B 3310   5.426   1.554   7.936  1.7318  4.0323  0.0330
   45CHL1  H21C 3311   5.602   1.564   7.951 -0.2881  0.5678 -2.2203
   45CHL1   C22 3312   5.617   1.308   8.097  0.0292 -0.2926  0.7717
   45CHL1  H22A 3313   5.612   1.197   8.099  2.5992 -0.4506  1.0410
   45CHL1  H22B 3314   5.720   1.344   8.076 -0.7383  1.5723 -0.0229
   45CHL1   C23 3315   5.590   1.360   8.241  0.4076 -0.2919 -0.2632
   45CHL1  H23A 3316   5.628   1.465   8.245 -2.0726  0.8102 -2.5657
   45CHL1  H23B 3317   5.482   1.366   8.264  0.4970 -0.4729  0.2000
   45CHL1   C24 3318   5.655   1.271   8.352  0.2477 -0.0063 -0.5809
   45CHL1  H24A 3319   5.625   1.165   8.336  1.0145 -0.1844 -0.9033
   45CHL1  H24B 3320   5.766   1.271   8.349  0.2382 -0.0836 -2.5690
   45CHL1   C25 3321   5.618   1.304   8.495 -0.3455 -0.0721  0.0699
   45CHL1   H25 3322   5.630   1.414   8.505  1.5758 -0.3191  0.9546
   45CHL1   C26 3323   5.469   1.276   8.531 -0.3698 -0.6396 -0.1673
   45CHL1  H26A 3324   5.395   1.333   8.470 -0.1847  1.2034  1.2520
   45CHL1  H26B 3325   5.448   1.167   8.520  0.4965 -0.7070 -1.4078
   45CHL1  H26C 3326   5.444   1.297   8.637 -1.5490 -1.8642 -0.1688
   45CHL1   C27 3327   5.721   1.237   8.585  0.2875  0.2292 -0.4018
   45CHL1  H27A 3328   5.689   1.251   8.691 -3.1039 -2.8977 -0.8028
   45CHL1  H27B 3329   5.738   1.127   8.580  1.0930  0.1429  2.2684
   45CHL1  H27C 3330   5.822   1.281   8.572  1.5943 -1.9316  1.5976
   46CHL1    C3 3331   6.548   2.922   6.812 -0.2846 -0.6366 -0.0430
   46CHL1    H3 3332   6.630   2.850   6.794 -1.0453 -0.6913 -4.2691
   46CHL1    O3 3333   6.528   2.989   6.690  0.1460  0.3534  0.1599
   46CHL1   H3' 3334   6.453   3.048   6.700 -0.7167 -0.2945 -1.9107
   46CHL1    C4 3335   6.424   2.840   6.851  0.1169  0.4256 -0.6388
   46CHL1   H4A 3336   6.331   2.901   6.855 -1.2390 -1.5679  1.3224
   46CHL1   H4B 3337   6.408   2.763   6.772  1.6406 -0.0793 -0.4953
   46CHL1    C5 3338   6.433   2.782   6.989  0.1868  0.1352 -0.0740
   46CHL1    C6 3339   6.426   2.651   7.010 -0.0999 -0.2599  0.1413
   46CHL1    H6 3340   6.403   2.586   6.924  1.8251 -1.5632  0.5455
   46CHL1    C7 3341   6.428   2.586   7.145  0.4318 -0.3934  0.2065
   46CHL1   H7A 3342   6.338   2.521   7.142 -0.9668  1.4879 -1.0164
   46CHL1   H7B 3343   6.521   2.527   7.161  1.8080  1.7426  0.6792
   46CHL1    C8 3344   6.436   2.685   7.261  0.4232 -0.3323 -0.1962
   46CHL1    H8 3345   6.339   2.737   7.275  1.7038  1.6468  1.9248
   46CHL1   C14 3346   6.476   2.617   7.391 -0.0048  0.4123 -0.3902
   46CHL1   H14 3347   6.576   2.575   7.370  1.0513  3.2035 -1.4467
   46CHL1   C15 3348   6.388   2.505   7.440  0.0414 -0.2455 -0.3629
   46CHL1  H15A 3349   6.284   2.545   7.439  0.1525  0.0426 -0.4228
   46CHL1  H15B 3350   6.384   2.404   7.394  2.0089  0.2348 -1.7175
   46CHL1   C16 3351   6.417   2.501   7.594 -0.4950  0.4145 -0.0377
   46CHL1  H16A 3352   6.329   2.522   7.659 -1.2500 -0.1623 -0.8577
   46CHL1  H16B 3353   6.448   2.397   7.617 -0.7944  0.2335 -0.4381
   46CHL1   C17 3354   6.524   2.613   7.619  0.4179 -0.3065 -0.2003
   46CHL1   H17 3355   6.628   2.576   7.608  0.8028  0.4364  0.7623
   46CHL1   C13 3356   6.497   2.712   7.507 -0.5348  0.1133  0.3271
   46CHL1   C18 3357   6.363   2.785   7.542  0.4422  0.1470  0.6226
   46CHL1  H18A 3358   6.325   2.830   7.448 -0.2890 -1.3745  0.1519
   46CHL1  H18B 3359   6.283   2.717   7.578 -0.3587  0.8230  0.1678
   46CHL1  H18C 3360   6.381   2.865   7.618  1.2831  1.0125 -0.4592
   46CHL1   C12 3361   6.595   2.822   7.479 -0.0334  0.5106  0.9724
   46CHL1  H12A 3362   6.602   2.899   7.558 -2.4499  2.2830 -0.3900
   46CHL1  H12B 3363   6.698   2.781   7.472  0.7987  2.6824 -1.5341
   46CHL1   C11 3364   6.560   2.893   7.352  0.0621 -0.5651  0.2357
   46CHL1  H11A 3365   6.465   2.947   7.373  0.8937  0.5316  1.3659
   46CHL1  H11B 3366   6.639   2.967   7.325  0.0301 -0.4765  0.3841
   46CHL1    C9 3367   6.533   2.800   7.229 -0.5517  0.1606 -0.1790
   46CHL1    H9 3368   6.629   2.751   7.205  0.0841  1.2231  0.1239
   46CHL1   C10 3369   6.483   2.885   7.101 -0.4666  0.8902 -0.0499
   46CHL1   C19 3370   6.366   2.976   7.130  0.1766  0.1117 -0.1030
   46CHL1  H19A 3371   6.342   3.038   7.041  0.8787 -1.8427 -1.7470
   46CHL1  H19B 3372   6.277   2.916   7.159 -0.2336  0.3898 -0.7747
   46CHL1  H19C 3373   6.389   3.048   7.211 -0.9440  0.1217  0.2321
   46CHL1    C1 3374   6.602   2.979   7.051 -0.2335 -0.1723 -0.5113
   46CHL1   H1A 3375   6.619   3.060   7.124  2.6751 -1.1278  0.0368
   46CHL1   H1B 3376   6.689   2.909   7.041  1.0442  1.2722  0.0486
   46CHL1    C2 3377   6.585   3.035   6.913  0.3952  0.4536  0.9616
   46CHL1   H2A 3378   6.682   3.081   6.884  0.9543 -2.2242 -2.0919
   46CHL1   H2B 3379   6.509   3.115   6.907  2.0602  2.0084 -0.8532
   46CHL1   C20 3380   6.511   2.659   7.770  0.4556  0.0304 -0.0165
   46CHL1   H20 3381   6.402   2.679   7.784  0.2286 -1.8621  1.2723
   46CHL1   C21 3382   6.589   2.786   7.812 -0.6255  0.3639  0.4802
   46CHL1  H21A 3383   6.560   2.805   7.918 -1.4625  3.3139 -0.1943
   46CHL1  H21B 3384   6.559   2.875   7.754 -0.7031  1.0566  1.5505
   46CHL1  H21C 3385   6.696   2.766   7.791 -0.5689  1.4676 -0.3177
   46CHL1   C22 3386   6.546   2.538   7.863 -0.5161  0.5624 -0.3870
   46CHL1  H22A 3387   6.515   2.441   7.818 -0.5730  0.0831  0.6402
   46CHL1  H22B 3388   6.656   2.541   7.879 -0.3583  0.4114 -1.4118
   46CHL1   C23 3389   6.472   2.556   8.000  0.0450  0.4434  0.6101
   46CHL1  H23A 3390   6.492   2.656   8.044  2.3768 -0.2302  1.2094
   46CHL1  H23B 3391   6.362   2.556   7.983  0.1164 -1.1456  0.0334
   46CHL1   C24 3392   6.513   2.439   8.093  0.0229 -0.1851  0.4541
   46CHL1  H24A 3393   6.527   2.356   8.021 -0.4511  0.7099 -0.7011
   46CHL1  H24B 3394   6.607   2.459   8.148  0.0385 -2.6872  1.4537
   46CHL1   C25 3395   6.403   2.389   8.186 -0.6713  0.2133 -0.3112
   46CHL1   H25 3396   6.314   2.395   8.120 -0.2719 -0.6652 -0.9495
   46CHL1   C26 3397   6.422   2.241   8.220  0.5392 -0.2001  0.6968
   46CHL1  H26A 3398   6.444   2.178   8.131 -0.9106  0.6645 -0.3094
   46CHL1  H26B 3399   6.509   2.219   8.286  1.0267 -0.8734 -0.1514
   46CHL1  H26C 3400   6.328   2.205   8.265  0.3340 -2.4685 -1.3529
   46CHL1   C27 3401   6.385   2.483   8.304  0.3608 -0.5056 -0.4352
   46CHL1  H27A 3402   6.471   2.468   8.372 -0.5795  2.1705  1.5217
   46CHL1  H27B 3403   6.372   2.592   8.288 -1.5106 -0.6831 -0.3965
   46CHL1  H27C 3404   6.300   2.444   8.366  0.9956  0.5888  1.1851
   47CHL1    C3 3405   0.488   3.424   6.588  0.0395 -0.4506  0.2687
   47CHL1    H3 3406   0.554   3.486   6.651  1.4937  1.7584 -3.1353
   47CHL1    O3 3407   0.527   3.447   6.457  0.1176 -0.5228  0.0248
   47CHL1   H3' 3408   0.476   3.395   6.394  1.3525 -0.8477 -0.7394
   47CHL1    C4 3409   0.511   3.282   6.620 -0.0990  0.5205  0.3446
   47CHL1   H4A 3410   0.448   3.222   6.552  0.0991  0.8548 -0.1398
   47CHL1   H4B 3411   0.619   3.259   6.610 -0.0512  0.3661  1.1638
   47CHL1    C5 3412   0.469   3.257   6.767  0.2416 -0.7222  0.4009
   47CHL1    C6 3413   0.555   3.214   6.860  0.0592 -0.1917  0.2383
   47CHL1    H6 3414   0.658   3.192   6.827 -0.4505 -0.9693 -0.9251
   47CHL1    C7 3415   0.532   3.203   7.006 -0.1899 -0.0714 -0.2747
   47CHL1   H7A 3416   0.581   3.113   7.047 -1.7486  0.5223  3.3428
   47CHL1   H7B 3417   0.577   3.291   7.058  0.0556 -0.2239 -0.2313
   47CHL1    C8 3418   0.389   3.220   7.053 -0.3703 -0.1013 -0.2044
   47CHL1    H8 3419   0.342   3.121   7.040 -0.1873 -0.1467 -0.5149
   47CHL1   C14 3420   0.373   3.259   7.200  0.4251 -0.8269 -0.0126
   47CHL1   H14 3421   0.406   3.365   7.204  1.5695 -1.1091 -1.1008
   47CHL1   C15 3422   0.459   3.187   7.303  0.8003 -0.6767 -0.0039
   47CHL1  H15A 3423   0.451   3.081   7.271  0.7582 -0.8146  0.4604
   47CHL1  H15B 3424   0.559   3.235   7.294  0.1223  0.9578  0.7092
   47CHL1   C16 3425   0.399   3.220   7.443  0.2369 -0.3335  0.2090
   47CHL1  H16A 3426   0.401   3.123   7.497  0.9744  0.7017  2.1314
   47CHL1  H16B 3427   0.468   3.291   7.492  0.6973 -1.2986  0.9830
   47CHL1   C17 3428   0.262   3.284   7.408  1.0643  0.1942 -0.1335
   47CHL1   H17 3429   0.282   3.393   7.422 -0.0909  0.4168 -0.1447
   47CHL1   C13 3430   0.232   3.257   7.258  0.8306 -0.4584  0.3295
   47CHL1   C18 3431   0.168   3.119   7.247 -0.1465  0.8823 -0.2701
   47CHL1  H18A 3432   0.167   3.089   7.140 -2.4826 -2.2480  0.4862
   47CHL1  H18B 3433   0.224   3.045   7.308 -0.4599  2.5158  2.1903
   47CHL1  H18C 3434   0.060   3.127   7.273 -0.1161  1.6437 -0.3575
   47CHL1   C12 3435   0.157   3.368   7.177 -0.5021 -0.2359 -0.2811
   47CHL1  H12A 3436   0.054   3.377   7.219  0.5331 -0.3034  2.4781
   47CHL1  H12B 3437   0.207   3.465   7.197 -3.5366  1.2507  0.6810
   47CHL1   C11 3438   0.168   3.349   7.023  0.6296  0.7572 -0.0555
   47CHL1  H11A 3439   0.098   3.266   7.003  1.9670 -0.2451 -0.6672
   47CHL1  H11B 3440   0.117   3.431   6.967 -0.6804 -0.7459 -1.1331
   47CHL1    C9 3441   0.312   3.318   6.972  0.1333 -0.4578  0.5369
   47CHL1    H9 3442   0.362   3.413   7.000  0.2592 -0.6867  1.1194
   47CHL1   C10 3443   0.329   3.305   6.815  0.0261  0.4112  0.0224
   47CHL1   C19 3444   0.224   3.204   6.770  0.3133 -0.2728 -0.1338
   47CHL1  H19A 3445   0.235   3.190   6.660  2.6245  1.2502 -0.1775
   47CHL1  H19B 3446   0.244   3.116   6.834 -2.4142  0.8320  2.4467
   47CHL1  H19C 3447   0.122   3.245   6.782  0.6580  0.0915  1.9980
   47CHL1    C1 3448   0.302   3.439   6.758 -0.0153  0.0730  0.0716
   47CHL1   H1A 3449   0.203   3.484   6.778 -0.5312 -0.2236 -1.6306
   47CHL1   H1B 3450   0.363   3.517   6.807 -1.7585  2.0330 -0.7422
   47CHL1    C2 3451   0.341   3.463   6.609 -0.5323  0.2961  0.3474
   47CHL1   H2A 3452   0.324   3.570   6.582 -1.0129  0.5416  1.5416
   47CHL1   H2B 3453   0.268   3.407   6.547 -0.1778  2.6294 -2.3750
   47CHL1   C20 3454   0.149   3.257   7.518  0.2512  0.3812  0.9777
   47CHL1   H20 3455   0.128   3.148   7.516  0.3384  0.3611 -0.6118
   47CHL1   C21 3456   0.020   3.328   7.473  0.2566  0.0436 -0.5513
   47CHL1  H21A 3457   0.052   3.434   7.458  1.3498 -0.3691 -1.2409
   47CHL1  H21B 3458  -0.051   3.327   7.559 -0.2855  1.8659 -0.9171
   47CHL1  H21C 3459  -0.022   3.289   7.378 -1.7912  2.9690 -0.9974
   47CHL1   C22 3460   0.181   3.310   7.656  0.3381  0.4878 -0.1674
   47CHL1  H22A 3461   0.283   3.272   7.677  1.0621 -0.0018 -3.8165
   47CHL1  H22B 3462   0.174   3.421   7.658 -0.0281  0.4574  0.8674
   47CHL1   C23 3463   0.085   3.262   7.769  0.6851 -0.1739 -0.0676
   47CHL1  H23A 3464  -0.018   3.299   7.745  0.0294  0.1405  2.9025
   47CHL1  H23B 3465   0.070   3.152   7.768  0.3374 -0.2181 -3.7451
   47CHL1   C24 3466   0.121   3.310   7.905 -0.3122  0.6780 -0.4303
   47CHL1  H24A 3467   0.223   3.275   7.931 -0.3755  1.2269  0.6019
   47CHL1  H24B 3468   0.122   3.421   7.910 -1.2085  0.6415  0.9237
   47CHL1   C25 3469   0.024   3.259   8.017 -0.2387 -0.3640  0.1616
   47CHL1   H25 3470   0.032   3.149   8.032 -0.1487 -0.2047  1.4122
   47CHL1   C26 3471   0.072   3.313   8.157  0.2065  0.0975  0.2815
   47CHL1  H26A 3472   0.097   3.421   8.143 -2.8922  1.1227  1.7692
   47CHL1  H26B 3473  -0.017   3.302   8.222  0.1806 -1.9318 -0.0369
   47CHL1  H26C 3474   0.162   3.263   8.199 -0.4170 -1.2962  0.0124
   47CHL1   C27 3475  -0.124   3.301   7.986 -0.0402 -0.4898 -0.1212
   47CHL1  H27A 3476  -0.194   3.262   8.063  0.1185 -0.8063 -0.1372
   47CHL1  H27B 3477  -0.141   3.411   7.985  0.7292 -0.1822  3.6237
   47CHL1  H27C 3478  -0.167   3.263   7.891  0.4060  1.3948 -1.1360
   48CHL1    C3 3479   2.353   5.963   6.572  0.0815 -0.0202  0.6178
   48CHL1    H3 3480   2.319   5.866   6.613  1.2457 -0.8751 -0.3670
   48CHL1    O3 3481   2.308   5.969   6.437  0.2062 -0.4332  0.3952
   48CHL1   H3' 3482   2.385   5.951   6.383 -0.1160  1.1204 -0.6578
   48CHL1    C4 3483   2.269   6.075   6.641 -0.3410 -0.8435 -0.0137
   48CHL1   H4A 3484   2.278   6.164   6.575  0.6162 -1.4060 -0.6612
   48CHL1   H4B 3485   2.163   6.042   6.642 -1.4898  2.4265 -1.0932
   48CHL1    C5 3486   2.315   6.116   6.777 -0.2968  0.6398  0.0949
   48CHL1    C6 3487   2.218   6.110   6.877  0.2139  0.1603  0.7725
   48CHL1    H6 3488   2.117   6.077   6.848  0.4416  0.4968 -0.4742
   48CHL1    C7 3489   2.248   6.130   7.024 -0.4377  0.6425  0.9397
   48CHL1   H7A 3490   2.170   6.199   7.064 -3.1056 -0.3869 -2.0587
   48CHL1   H7B 3491   2.248   6.036   7.083 -0.8380 -1.4557 -2.1778
   48CHL1    C8 3492   2.385   6.199   7.030 -0.3463  0.0689 -0.2751
   48CHL1    H8 3493   2.374   6.303   6.993  0.7056 -0.1827 -1.4032
   48CHL1   C14 3494   2.440   6.202   7.175 -0.4093  0.2311 -0.6828
   48CHL1   H14 3495   2.435   6.094   7.201 -1.0653  0.3268 -0.3931
   48CHL1   C15 3496   2.342   6.265   7.275 -0.2550  0.6041 -1.0861
   48CHL1  H15A 3497   2.301   6.366   7.255 -1.4247  0.8342  1.9388
   48CHL1  H15B 3498   2.259   6.197   7.304 -0.8127  1.7137  0.0219
   48CHL1   C16 3499   2.425   6.283   7.407 -0.3849 -0.0034  0.5604
   48CHL1  H16A 3500   2.408   6.383   7.454 -2.7304 -0.0452 -0.0830
   48CHL1  H16B 3501   2.402   6.199   7.476  1.0840  0.0501  1.1497
   48CHL1   C17 3502   2.575   6.256   7.366 -0.2498 -0.3060  0.6868
   48CHL1   H17 3503   2.601   6.151   7.390 -1.5226 -0.5547  1.0665
   48CHL1   C13 3504   2.572   6.254   7.206 -1.1522  0.3168  0.6676
   48CHL1   C18 3505   2.595   6.402   7.158 -0.2015 -0.0598  0.0640
   48CHL1  H18A 3506   2.701   6.436   7.168 -0.5644  0.5981  2.2402
   48CHL1  H18B 3507   2.570   6.415   7.051  1.3508  0.0596 -0.3188
   48CHL1  H18C 3508   2.531   6.472   7.216 -0.7596 -1.2047  0.8676
   48CHL1   C12 3509   2.679   6.170   7.127  0.1123 -0.1757  0.9322
   48CHL1  H12A 3510   2.786   6.198   7.133  0.6108 -1.8170  0.1018
   48CHL1  H12B 3511   2.674   6.065   7.164  1.2110  0.3457  2.7152
   48CHL1   C11 3512   2.637   6.163   6.983  0.5171  0.2300  0.9746
   48CHL1  H11A 3513   2.657   6.268   6.950 -0.2016 -0.0248 -0.3367
   48CHL1  H11B 3514   2.708   6.099   6.926  3.1639  2.5862  1.3519
   48CHL1    C9 3515   2.493   6.126   6.945 -0.0468 -0.7712  0.7128
   48CHL1    H9 3516   2.482   6.020   6.975 -1.2352 -0.3392  1.9627
   48CHL1   C10 3517   2.466   6.133   6.797  0.0962  0.1894  0.1974
   48CHL1   C19 3518   2.508   6.270   6.745 -0.4134 -0.6508  0.0796
   48CHL1  H19A 3519   2.618   6.284   6.753 -0.6687  0.4465  2.2998
   48CHL1  H19B 3520   2.475   6.285   6.640 -0.2495 -1.1907 -0.0516
   48CHL1  H19C 3521   2.476   6.357   6.806  0.5654  0.6570 -1.1904
   48CHL1    C1 3522   2.549   6.029   6.724 -0.6145 -0.0779 -0.9718
   48CHL1   H1A 3523   2.655   6.061   6.721 -0.5819  0.0650  0.7509
   48CHL1   H1B 3524   2.544   5.932   6.777  1.4967  0.4790  0.3370
   48CHL1    C2 3525   2.501   5.999   6.585  0.0100  0.2297 -0.5286
   48CHL1   H2A 3526   2.558   5.908   6.555  1.1689 -0.1956  2.5980
   48CHL1   H2B 3527   2.520   6.086   6.519  2.5869 -0.8394 -1.3280
   48CHL1   C20 3528   2.691   6.337   7.440  0.4837  0.3110  0.2702
   48CHL1   H20 3529   2.692   6.437   7.392 -0.2514  0.1165 -0.1636
   48CHL1   C21 3530   2.825   6.266   7.412 -0.1640 -0.4898 -0.8911
   48CHL1  H21A 3531   2.849   6.255   7.304  1.3882  1.0087 -0.7379
   48CHL1  H21B 3532   2.815   6.162   7.448  3.1671 -1.4739 -2.4723
   48CHL1  H21C 3533   2.910   6.315   7.465 -0.0223 -1.9096  0.2509
   48CHL1   C22 3534   2.655   6.349   7.595  0.1915  0.6725  0.1715
   48CHL1  H22A 3535   2.555   6.398   7.602 -0.7038 -0.6614 -2.3473
   48CHL1  H22B 3536   2.638   6.250   7.642  1.4763  0.6133  0.5498
   48CHL1   C23 3537   2.749   6.435   7.679  0.5582 -0.1355 -0.5262
   48CHL1  H23A 3538   2.858   6.418   7.661  1.1712  0.4284  2.2507
   48CHL1  H23B 3539   2.741   6.540   7.644 -0.1042 -0.0232 -0.0608
   48CHL1   C24 3540   2.714   6.451   7.828 -0.3187  0.0091  0.1704
   48CHL1  H24A 3541   2.793   6.513   7.875  0.2669 -1.2397  0.9126
   48CHL1  H24B 3542   2.612   6.493   7.839 -0.3616 -0.1114  0.2350
   48CHL1   C25 3543   2.722   6.323   7.911 -0.2481 -0.4889 -0.5599
   48CHL1   H25 3544   2.638   6.261   7.872 -0.2228 -0.3532 -0.8356
   48CHL1   C26 3545   2.850   6.238   7.884  0.5891 -0.0339  0.6159
   48CHL1  H26A 3546   2.869   6.160   7.961  2.7246  0.3090  0.4707
   48CHL1  H26B 3547   2.827   6.190   7.787 -0.4249  0.5852  0.5260
   48CHL1  H26C 3548   2.937   6.306   7.876 -0.7146  2.4366  4.3555
   48CHL1   C27 3549   2.710   6.349   8.068 -0.6362  0.6757  1.0199
   48CHL1  H27A 3550   2.701   6.251   8.119  1.5369  0.9137  1.9601
   48CHL1  H27B 3551   2.806   6.395   8.101  0.3436  0.4497 -1.3345
   48CHL1  H27C 3552   2.624   6.416   8.092 -0.7082  1.6454 -1.6267
   49CHL1    C3 3553   0.549   5.908   6.884 -0.1467  0.5400 -1.1669
   49CHL1    H3 3554   0.517   5.802   6.896  0.6305  0.3135 -1.0898
   49CHL1    O3 3555   0.566   5.952   6.751 -0.4857 -0.1122 -0.4497
   49CHL1   H3' 3556   0.654   5.924   6.725  0.0904  0.3538  0.9129
   49CHL1    C4 3557   0.448   6.001   6.947 -0.7314 -0.2213 -0.3027
   49CHL1   H4A 3558   0.486   6.104   6.928  1.3641 -0.5564  1.5158
   49CHL1   H4B 3559   0.352   5.980   6.896 -0.0955 -2.9536 -0.5574
   49CHL1    C5 3560   0.436   5.988   7.095  0.6490  0.8671 -0.1237
   49CHL1    C6 3561   0.315   5.970   7.152  0.1827 -0.2401  0.5312
   49CHL1    H6 3562   0.227   5.973   7.086 -0.3617  1.0965  1.2694
   49CHL1    C7 3563   0.290   5.945   7.302  1.1938 -0.3398 -0.4103
   49CHL1   H7A 3564   0.198   5.999   7.334  1.2321 -0.6584  0.2683
   49CHL1   H7B 3565   0.277   5.836   7.321 -1.7562  0.4814  3.5520
   49CHL1    C8 3566   0.409   5.995   7.390  0.4234  0.0365 -0.0709
   49CHL1    H8 3567   0.393   6.104   7.377 -0.5148 -0.1727 -0.8091
   49CHL1   C14 3568   0.392   5.944   7.529  0.2780 -0.2190  0.3613
   49CHL1   H14 3569   0.371   5.835   7.528 -2.5628  0.1850  2.4077
   49CHL1   C15 3570   0.278   6.005   7.619 -0.0216 -0.2462  0.7319
   49CHL1  H15A 3571   0.267   6.108   7.578 -1.4188 -0.8874 -0.5745
   49CHL1  H15B 3572   0.184   5.952   7.594 -0.3316  0.7971 -0.4073
   49CHL1   C16 3573   0.330   5.998   7.766  0.2497 -0.5568  0.4749
   49CHL1  H16A 3574   0.333   6.099   7.810 -1.6358 -0.8039  1.2592
   49CHL1  H16B 3575   0.256   5.934   7.819 -1.1645  2.5586  2.5358
   49CHL1   C17 3576   0.474   5.941   7.761  0.1767  0.1552  0.3074
   49CHL1   H17 3577   0.463   5.830   7.767  1.7815 -0.0045  0.5173
   49CHL1   C13 3578   0.519   5.966   7.614  0.7514 -0.5479  0.0087
   49CHL1   C18 3579   0.562   6.116   7.607  0.6767  0.3759 -0.1618
   49CHL1  H18A 3580   0.656   6.123   7.666 -1.7557  0.1017  4.1513
   49CHL1  H18B 3581   0.586   6.139   7.501  2.8327 -0.3379  0.1125
   49CHL1  H18C 3582   0.482   6.181   7.649  0.7809 -0.0969  0.7961
   49CHL1   C12 3583   0.624   5.874   7.551 -0.8084  0.2752 -0.1580
   49CHL1  H12A 3584   0.719   5.881   7.608  0.1804  1.4823 -1.8585
   49CHL1  H12B 3585   0.581   5.771   7.557 -1.4515  0.6345  1.9735
   49CHL1   C11 3586   0.660   5.908   7.410  0.3758  0.8293  0.9514
   49CHL1  H11A 3587   0.711   6.007   7.415 -0.1370  1.2050 -0.6172
   49CHL1  H11B 3588   0.722   5.826   7.368 -1.8160 -1.5634  2.1259
   49CHL1    C9 3589   0.530   5.931   7.325  0.3962  0.1900  0.4236
   49CHL1    H9 3590   0.498   5.826   7.306  0.2600  0.5448 -1.5945
   49CHL1   C10 3591   0.562   5.992   7.179 -0.3281  0.1560  0.2985
   49CHL1   C19 3592   0.617   6.136   7.188  0.3876  0.8421 -0.4450
   49CHL1  H19A 3593   0.723   6.133   7.222  0.7119 -0.6666 -1.4660
   49CHL1  H19B 3594   0.611   6.183   7.088  4.2975 -1.3161 -1.9071
   49CHL1  H19C 3595   0.555   6.190   7.262  1.7154  0.5879  0.9111
   49CHL1    C1 3596   0.668   5.909   7.106 -1.3409  0.0900  0.0482
   49CHL1   H1A 3597   0.771   5.923   7.147 -1.5117  2.0692 -0.1417
   49CHL1   H1B 3598   0.629   5.809   7.137 -3.1083  0.4146 -1.0308
   49CHL1    C2 3599   0.683   5.922   6.957  0.9855 -0.7949  0.5619
   49CHL1   H2A 3600   0.746   5.846   6.907 -1.3743 -2.0317 -0.6849
   49CHL1   H2B 3601   0.719   6.026   6.937  2.7421 -1.1926  1.4668
   49CHL1   C20 3602   0.562   5.979   7.884 -0.0666 -0.5005  0.6075
   49CHL1   H20 3603   0.581   6.089   7.881  3.6979 -1.0214 -0.2613
   49CHL1   C21 3604   0.699   5.909   7.887  0.2698 -0.1594 -0.0693
   49CHL1  H21A 3605   0.756   5.930   7.793 -0.5289 -1.1117 -0.7938
   49CHL1  H21B 3606   0.673   5.801   7.887 -0.4252  0.0037 -0.0972
   49CHL1  H21C 3607   0.762   5.931   7.975  2.4312  2.4678 -2.0994
   49CHL1   C22 3608   0.492   5.940   8.016 -0.3396  0.3827 -0.3216
   49CHL1  H22A 3609   0.427   5.850   8.007  1.3673 -1.4615  3.3790
   49CHL1  H22B 3610   0.573   5.904   8.083 -1.7191  0.6827  1.5674
   49CHL1   C23 3611   0.422   6.057   8.088  0.0075  0.2727 -0.6392
   49CHL1  H23A 3612   0.502   6.119   8.136 -2.2292  1.4321  1.8076
   49CHL1  H23B 3613   0.379   6.138   8.026  1.2484  1.0329 -0.5521
   49CHL1   C24 3614   0.336   6.001   8.197 -0.3388  0.2031  0.8898
   49CHL1  H24A 3615   0.264   5.928   8.153  1.8992 -0.7630 -1.3702
   49CHL1  H24B 3616   0.403   5.938   8.259 -0.4076 -1.6329 -0.8190
   49CHL1   C25 3617   0.274   6.105   8.296 -0.1105 -0.2919  0.5212
   49CHL1   H25 3618   0.212   6.171   8.233 -2.4888 -1.4669  1.4965
   49CHL1   C26 3619   0.184   6.043   8.407  0.0189  0.0113  0.4205
   49CHL1  H26A 3620   0.111   5.965   8.378  0.4174 -0.3606  0.4016
   49CHL1  H26B 3621   0.250   6.000   8.486 -0.3058 -0.0782  0.6456
   49CHL1  H26C 3622   0.129   6.133   8.441 -0.0489  0.4434 -0.7956
   49CHL1   C27 3623   0.376   6.201   8.366 -0.9648  0.5851 -0.2604
   49CHL1  H27A 3624   0.447   6.143   8.430 -1.2737 -0.0349 -0.4691
   49CHL1  H27B 3625   0.444   6.254   8.296 -0.2980  0.5958  0.3777
   49CHL1  H27C 3626   0.335   6.283   8.428 -2.3331 -0.5766  0.4288
   50CHL1    C3 3627   2.386   2.222   6.952 -1.1074 -0.0332  0.0492
   50CHL1    H3 3628   2.473   2.291   6.956 -0.9417 -0.3119  2.7123
   50CHL1    O3 3629   2.391   2.159   6.823 -0.3573 -0.3820 -0.3109
   50CHL1   H3' 3630   2.316   2.099   6.831 -1.3785  0.9948  1.3382
   50CHL1    C4 3631   2.389   2.124   7.065 -0.4280  0.2934 -0.4630
   50CHL1   H4A 3632   2.303   2.053   7.059 -0.1903  0.0823 -1.7216
   50CHL1   H4B 3633   2.479   2.060   7.059 -0.0537  0.8343 -0.6426
   50CHL1    C5 3634   2.384   2.191   7.202 -1.0318  0.1919 -0.1462
   50CHL1    C6 3635   2.484   2.180   7.291  0.1983 -0.1478 -0.4955
   50CHL1    H6 3636   2.565   2.112   7.258  2.5720  2.1639  0.2329
   50CHL1    C7 3637   2.506   2.254   7.424  0.6141 -0.0694 -0.4111
   50CHL1   H7A 3638   2.560   2.194   7.500  1.0413  1.4373  0.5205
   50CHL1   H7B 3639   2.575   2.340   7.414 -1.1223  1.3194 -1.0759
   50CHL1    C8 3640   2.363   2.304   7.466  0.1668  0.2180  0.6937
   50CHL1    H8 3641   2.303   2.214   7.489  1.9703 -1.5708 -1.1993
   50CHL1   C14 3642   2.377   2.398   7.579  0.6545  0.3854 -0.3963
   50CHL1   H14 3643   2.428   2.484   7.530  0.5442  0.2223 -0.7992
   50CHL1   C15 3644   2.468   2.360   7.697 -0.1335  0.0746 -0.0797
   50CHL1  H15A 3645   2.473   2.251   7.714 -2.2321 -0.1398 -0.5593
   50CHL1  H15B 3646   2.571   2.393   7.673 -0.7999  1.1093 -1.7898
   50CHL1   C16 3647   2.412   2.437   7.815  0.2556 -0.2644  0.5517
   50CHL1  H16A 3648   2.377   2.363   7.891 -1.4851 -0.7886 -0.7176
   50CHL1  H16B 3649   2.480   2.519   7.849 -0.2826  0.8033 -0.8563
   50CHL1   C17 3650   2.301   2.519   7.753 -0.1869 -0.4088 -0.3181
   50CHL1   H17 3651   2.342   2.613   7.712  1.1016 -1.0625 -0.5864
   50CHL1   C13 3652   2.250   2.447   7.629 -0.2882 -0.1865  0.0948
   50CHL1   C18 3653   2.158   2.336   7.689 -0.0616 -0.1568 -0.2025
   50CHL1  H18A 3654   2.064   2.383   7.724 -0.1159 -1.0340  0.8957
   50CHL1  H18B 3655   2.134   2.275   7.600  1.2800  1.9808 -2.1529
   50CHL1  H18C 3656   2.203   2.269   7.766  0.9269  0.0830 -0.5568
   50CHL1   C12 3657   2.184   2.538   7.522 -1.1259  0.9867 -0.1678
   50CHL1  H12A 3658   2.092   2.586   7.561 -0.9518  1.9723 -0.9294
   50CHL1  H12B 3659   2.259   2.618   7.502  0.0877 -0.1230 -0.2058
   50CHL1   C11 3660   2.159   2.447   7.398 -0.4123 -0.2092  0.4184
   50CHL1  H11A 3661   2.075   2.378   7.419  0.2706 -1.0833  0.3541
   50CHL1  H11B 3662   2.131   2.510   7.310 -0.6693 -1.7545 -0.6533
   50CHL1    C9 3663   2.285   2.373   7.349 -0.3261  0.0636 -0.1598
   50CHL1    H9 3664   2.366   2.444   7.326  1.1051 -1.5512 -0.3311
   50CHL1   C10 3665   2.263   2.289   7.224  0.2160  0.0776  0.1539
   50CHL1   C19 3666   2.127   2.210   7.235 -0.3831 -0.0467 -0.3820
   50CHL1  H19A 3667   2.033   2.268   7.246 -0.5131 -0.5053  1.0085
   50CHL1  H19B 3668   2.114   2.156   7.139 -2.2163 -0.8636  0.2855
   50CHL1  H19C 3669   2.130   2.140   7.320 -0.0161 -1.6137 -1.6432
   50CHL1    C1 3670   2.253   2.386   7.103  0.2522 -0.1304  0.3167
   50CHL1   H1A 3671   2.157   2.442   7.111  0.8657  0.7623  1.8428
   50CHL1   H1B 3672   2.333   2.463   7.104  1.5154 -1.3757 -0.8961
   50CHL1    C2 3673   2.262   2.312   6.967  0.1575 -0.0052  0.1524
   50CHL1   H2A 3674   2.273   2.386   6.884 -0.8588 -0.3133 -0.2691
   50CHL1   H2B 3675   2.177   2.249   6.934  0.7132  0.0739 -1.5033
   50CHL1   C20 3676   2.202   2.584   7.852 -0.4900  0.2299  0.4766
   50CHL1   H20 3677   2.108   2.602   7.797  0.3596  1.5063 -0.6559
   50CHL1   C21 3678   2.251   2.725   7.890  0.9248 -0.3903  0.5191
   50CHL1  H21A 3679   2.352   2.727   7.937  1.5321 -1.2398 -0.7024
   50CHL1  H21B 3680   2.179   2.787   7.948  1.0283  1.0761 -0.8287
   50CHL1  H21C 3681   2.249   2.782   7.795 -4.1577  0.5976  0.9052
   50CHL1   C22 3682   2.149   2.501   7.978  1.5971  0.1726 -0.7778
   50CHL1  H22A 3683   2.113   2.400   7.951 -2.6857  1.8672 -2.2291
   50CHL1  H22B 3684   2.236   2.485   8.046  1.4437 -1.0549 -0.8423
   50CHL1   C23 3685   2.023   2.563   8.053  0.1471 -0.4355  0.0972
   50CHL1  H23A 3686   2.055   2.666   8.080 -0.0013 -0.7635  1.6275
   50CHL1  H23B 3687   1.943   2.562   7.976 -0.2093 -3.3171  0.4116
   50CHL1   C24 3688   1.991   2.484   8.189 -0.1617 -0.4415  0.6327
   50CHL1  H24A 3689   1.984   2.375   8.172  1.3262 -0.2413 -1.8536
   50CHL1  H24B 3690   2.065   2.501   8.270 -1.6705 -1.4161  2.2655
   50CHL1   C25 3691   1.859   2.529   8.253  0.8975 -0.3990 -0.1852
   50CHL1   H25 3692   1.772   2.514   8.185  0.1204 -0.1244  0.7309
   50CHL1   C26 3693   1.833   2.442   8.384 -0.0405 -0.6094  0.2345
   50CHL1  H26A 3694   1.740   2.479   8.432  0.1150 -1.3956  1.1689
   50CHL1  H26B 3695   1.823   2.333   8.365 -0.2974 -0.7912  1.3241
   50CHL1  H26C 3696   1.915   2.444   8.459  1.0237 -3.3971 -0.7095
   50CHL1   C27 3697   1.867   2.678   8.288  0.7162 -0.2724 -0.1267
   50CHL1  H27A 3698   1.777   2.720   8.338  0.0333 -2.0915  0.2698
   50CHL1  H27B 3699   1.950   2.687   8.360  1.1579 -0.2328 -0.6385
   50CHL1  H27C 3700   1.885   2.746   8.202  0.7524 -0.5662 -0.3543
   51CHL1    C3 3701   1.870   6.319   6.464  0.6465  0.2478 -0.4487
   51CHL1    H3 3702   1.843   6.212   6.483  0.3280  0.2144 -1.0547
   51CHL1    O3 3703   1.889   6.333   6.323  0.1607 -0.1089 -0.3039
   51CHL1   H3' 3704   1.961   6.395   6.309 -0.0690 -0.3479 -3.1311
   51CHL1    C4 3705   1.754   6.407   6.503 -0.2969 -0.0394 -0.6054
   51CHL1   H4A 3706   1.772   6.511   6.469 -0.5762 -0.4682 -2.1441
   51CHL1   H4B 3707   1.664   6.366   6.451  0.1942 -1.7138 -0.1761
   51CHL1    C5 3708   1.738   6.415   6.649  0.2410 -0.4059  0.1321
   51CHL1    C6 3709   1.618   6.394   6.701  0.5610  0.1279  0.5445
   51CHL1    H6 3710   1.540   6.388   6.624  0.9938  1.0607  0.0196
   51CHL1    C7 3711   1.578   6.391   6.842 -0.1661  0.1375 -0.5073
   51CHL1   H7A 3712   1.485   6.449   6.858 -1.0766 -1.4068  0.0619
   51CHL1   H7B 3713   1.561   6.287   6.878 -0.1705  1.4478  3.8583
   51CHL1    C8 3714   1.692   6.449   6.939 -0.2342  0.3179 -0.1989
   51CHL1    H8 3715   1.692   6.559   6.925  2.0175  0.1330 -2.3994
   51CHL1   C14 3716   1.682   6.396   7.084  0.6582 -0.2838 -0.4321
   51CHL1   H14 3717   1.687   6.285   7.081  1.0125 -0.2789 -0.1372
   51CHL1   C15 3718   1.546   6.433   7.158 -0.4845  0.6779  0.9902
   51CHL1  H15A 3719   1.510   6.533   7.126 -0.7714  0.3756  0.3292
   51CHL1  H15B 3720   1.468   6.364   7.117 -2.0436  2.9788 -0.0947
   51CHL1   C16 3721   1.569   6.425   7.310  0.0179  0.0534 -0.3533
   51CHL1  H16A 3722   1.539   6.526   7.344 -1.0385 -0.9024  1.7395
   51CHL1  H16B 3723   1.500   6.360   7.367 -0.7558  1.7491  0.7233
   51CHL1   C17 3724   1.720   6.402   7.328  0.5291  0.2257  0.4600
   51CHL1   H17 3725   1.730   6.291   7.338  0.1193 -0.1135 -2.0865
   51CHL1   C13 3726   1.784   6.447   7.189  0.3233  0.0818  0.2317
   51CHL1   C18 3727   1.781   6.602   7.192 -0.1262 -0.1245 -0.1505
   51CHL1  H18A 3728   1.794   6.655   7.095  0.7206 -0.0695 -0.0180
   51CHL1  H18B 3729   1.696   6.651   7.243  1.2823  2.1396  0.1334
   51CHL1  H18C 3730   1.871   6.617   7.255  0.5619 -2.2931 -0.5288
   51CHL1   C12 3731   1.921   6.391   7.143 -0.3667 -0.1329  0.3414
   51CHL1  H12A 3732   2.002   6.434   7.206 -0.1110 -1.5594  1.0286
   51CHL1  H12B 3733   1.927   6.281   7.148  1.0529 -0.0950 -0.2671
   51CHL1   C11 3734   1.948   6.430   6.992  0.1969 -0.2797 -0.7412
   51CHL1  H11A 3735   1.955   6.541   6.985 -0.8040 -0.0244  1.4283
   51CHL1  H11B 3736   2.049   6.392   6.968  0.4422  0.4233 -0.8605
   51CHL1    C9 3737   1.834   6.392   6.893  0.7318  0.4628  0.5162
   51CHL1    H9 3738   1.825   6.281   6.892 -1.5657  0.5155  2.6064
   51CHL1   C10 3739   1.856   6.425   6.746 -0.8432 -0.4813 -0.5047
   51CHL1   C19 3740   1.894   6.578   6.739 -0.3059 -0.3294 -0.4548
   51CHL1  H19A 3741   1.814   6.644   6.779  0.1968 -0.2345  0.4185
   51CHL1  H19B 3742   1.986   6.588   6.801  0.6779  1.1180 -2.0489
   51CHL1  H19C 3743   1.916   6.616   6.637  0.6122 -0.8424 -0.4521
   51CHL1    C1 3744   1.980   6.349   6.692  0.6722  0.0155  0.5919
   51CHL1   H1A 3745   2.072   6.374   6.749  1.2588 -0.2063 -0.2322
   51CHL1   H1B 3746   1.966   6.245   6.727 -0.0992  0.8173  2.8463
   51CHL1    C2 3747   2.001   6.358   6.537 -0.4040  0.5166  0.2167
   51CHL1   H2A 3748   2.090   6.298   6.505  0.4850  0.8213  1.9593
   51CHL1   H2B 3749   2.020   6.465   6.515 -1.8750  0.9216  0.8170
   51CHL1   C20 3750   1.776   6.455   7.464  0.1865 -0.0091  0.1781
   51CHL1   H20 3751   1.747   6.560   7.487  0.0089 -0.1830  0.7578
   51CHL1   C21 3752   1.932   6.437   7.465  0.1682  0.4942  0.9037
   51CHL1  H21A 3753   1.965   6.351   7.404  0.2724  0.2201  1.3419
   51CHL1  H21B 3754   1.975   6.436   7.567  2.1513  3.6801  0.2461
   51CHL1  H21C 3755   1.990   6.522   7.424 -0.7358  0.6500 -0.1046
   51CHL1   C22 3756   1.716   6.381   7.587 -0.3334  0.4257  0.1960
   51CHL1  H22A 3757   1.617   6.338   7.560 -0.9564 -1.7029  4.8911
   51CHL1  H22B 3758   1.794   6.303   7.601 -0.3683  0.5402  1.0518
   51CHL1   C23 3759   1.714   6.461   7.712 -0.3130  0.7223 -0.1982
   51CHL1  H23A 3760   1.810   6.517   7.720  0.9389 -1.1188 -1.4864
   51CHL1  H23B 3761   1.629   6.532   7.708 -1.4652 -0.5479  0.8665
   51CHL1   C24 3762   1.705   6.379   7.840 -0.1006  0.2815  0.1239
   51CHL1  H24A 3763   1.613   6.317   7.834 -0.6355  1.0577  0.2594
   51CHL1  H24B 3764   1.797   6.319   7.854 -1.8381 -2.3215  1.1521
   51CHL1   C25 3765   1.685   6.459   7.972  0.1232  0.4749  0.7003
   51CHL1   H25 3766   1.593   6.520   7.966  2.1185  3.6797  0.1524
   51CHL1   C26 3767   1.691   6.369   8.088  0.8364 -0.1099 -0.0806
   51CHL1  H26A 3768   1.608   6.295   8.089  2.5881 -2.1974  1.9867
   51CHL1  H26B 3769   1.789   6.317   8.091  0.4265 -0.8898  2.7922
   51CHL1  H26C 3770   1.674   6.434   8.177  0.2842  1.3677 -1.2292
   51CHL1   C27 3771   1.790   6.569   7.993  0.3272  0.2470 -0.0020
   51CHL1  H27A 3772   1.774   6.653   7.923  1.9039  0.8066  0.2654
   51CHL1  H27B 3773   1.790   6.600   8.100 -0.0066 -1.1809  0.4342
   51CHL1  H27C 3774   1.888   6.516   7.990 -1.4326 -3.3200 -0.1795
   52CHL1    C3 3775   3.731   1.196   7.076  0.7970  0.2627 -0.4843
   52CHL1    H3 3776   3.836   1.161   7.070  0.2104 -1.3236 -2.4718
   52CHL1    O3 3777   3.685   1.226   6.942 -0.1901 -0.1708  0.3000
   52CHL1   H3' 3778   3.594   1.258   6.938  0.8826  3.1432 -0.6289
   52CHL1    C4 3779   3.633   1.093   7.142  0.5999 -0.2257  0.2178
   52CHL1   H4A 3780   3.531   1.133   7.130  0.1759 -1.3743 -0.1226
   52CHL1   H4B 3781   3.645   1.006   7.074 -0.3579 -0.2516  0.0702
   52CHL1    C5 3782   3.658   1.061   7.289 -0.0382  0.2810  0.7281
   52CHL1    C6 3783   3.700   0.940   7.333  0.0594 -0.1364 -0.6100
   52CHL1    H6 3784   3.709   0.860   7.258  2.3733 -1.1980  0.6956
   52CHL1    C7 3785   3.710   0.897   7.478  0.1638 -0.0229  0.0241
   52CHL1   H7A 3786   3.652   0.804   7.497  0.4751 -0.1717  0.2650
   52CHL1   H7B 3787   3.818   0.883   7.502 -0.1793  0.0771  1.7477
   52CHL1    C8 3788   3.664   1.011   7.572 -0.2927  0.2232 -0.1651
   52CHL1    H8 3789   3.555   1.015   7.593 -0.2336  1.7951 -0.0631
   52CHL1   C14 3790   3.730   0.984   7.706  0.2805  0.2807  0.1645
   52CHL1   H14 3791   3.837   0.987   7.678  0.2739  0.5793  0.1677
   52CHL1   C15 3792   3.699   0.847   7.771  0.1914  0.2312 -0.6396
   52CHL1  H15A 3793   3.592   0.829   7.749 -0.1003 -0.2207  0.9836
   52CHL1  H15B 3794   3.764   0.767   7.730 -1.2255 -2.6562  2.2946
   52CHL1   C16 3795   3.732   0.859   7.921 -0.2975 -0.4497 -1.2051
   52CHL1  H16A 3796   3.654   0.837   7.996  2.2039 -0.2390  1.6396
   52CHL1  H16B 3797   3.818   0.790   7.935  0.5829 -0.4091 -5.0828
   52CHL1   C17 3798   3.775   1.014   7.930  0.7717  0.7133 -0.7211
   52CHL1   H17 3799   3.882   1.011   7.899  0.9898 -2.9036 -0.0219
   52CHL1   C13 3800   3.700   1.090   7.811  0.8362 -0.0884  0.3343
   52CHL1   C18 3801   3.549   1.098   7.856 -0.1282  0.2495  0.4364
   52CHL1  H18A 3802   3.545   1.180   7.931 -0.7100 -0.0375  0.7319
   52CHL1  H18B 3803   3.485   1.122   7.769 -0.8846  0.5767  1.0650
   52CHL1  H18C 3804   3.512   1.003   7.900 -2.3298  0.3986 -0.9304
   52CHL1   C12 3805   3.759   1.224   7.756 -0.4436  0.2264  0.5019
   52CHL1  H12A 3806   3.754   1.317   7.815  2.2407  3.4079 -3.6906
   52CHL1  H12B 3807   3.868   1.204   7.745 -0.8778 -3.3530  1.3546
   52CHL1   C11 3808   3.695   1.260   7.623  0.1788 -0.1939  0.1190
   52CHL1  H11A 3809   3.590   1.292   7.644  0.4587  0.8540 -0.0325
   52CHL1  H11B 3810   3.744   1.352   7.586  1.8606 -0.8723  0.5727
   52CHL1    C9 3811   3.712   1.149   7.513 -0.2293  0.0550 -0.6682
   52CHL1    H9 3812   3.821   1.137   7.497 -0.3392 -0.4454 -1.0555
   52CHL1   C10 3813   3.649   1.183   7.376 -0.4357  0.3154  0.3410
   52CHL1   C19 3814   3.504   1.223   7.403  0.9935 -0.7399  0.3166
   52CHL1  H19A 3815   3.449   1.140   7.453  0.7122 -1.1807 -0.7020
   52CHL1  H19B 3816   3.492   1.319   7.459 -0.3818 -1.6554  1.6912
   52CHL1  H19C 3817   3.455   1.239   7.304  0.9315  0.5763  0.5329
   52CHL1    C1 3818   3.740   1.292   7.308 -0.4812 -0.8427  0.1476
   52CHL1   H1A 3819   3.723   1.388   7.363 -2.5912 -0.1705 -1.5387
   52CHL1   H1B 3820   3.848   1.269   7.319 -0.4444 -0.7672 -0.0528
   52CHL1    C2 3821   3.721   1.325   7.159 -0.2235 -0.1923 -1.1611
   52CHL1   H2A 3822   3.793   1.404   7.129 -1.0493  1.4092  0.8464
   52CHL1   H2B 3823   3.618   1.364   7.148  1.2268  4.1804 -1.3201
   52CHL1   C20 3824   3.761   1.070   8.073  0.3032  1.0343  0.2655
   52CHL1   H20 3825   3.656   1.073   8.110  0.0140  0.3651 -0.4840
   52CHL1   C21 3826   3.806   1.213   8.066  0.4409  0.3533 -0.6885
   52CHL1  H21A 3827   3.843   1.242   8.167  1.9770  0.2178 -1.1885
   52CHL1  H21B 3828   3.716   1.270   8.034 -0.8334 -1.4951 -0.5282
   52CHL1  H21C 3829   3.899   1.219   8.007  1.8941  0.9835  1.5400
   52CHL1   C22 3830   3.842   1.000   8.184 -0.1791 -0.0795  1.1071
   52CHL1  H22A 3831   3.838   1.057   8.279  1.4380  2.5495 -0.2736
   52CHL1  H22B 3832   3.793   0.902   8.203  0.2546 -0.3829  0.6803
   52CHL1   C23 3833   3.994   0.977   8.161  0.1000 -0.3157  0.6711
   52CHL1  H23A 3834   4.014   0.893   8.091  0.4172  0.5689 -0.3382
   52CHL1  H23B 3835   4.041   1.064   8.110 -0.5996  0.2336  0.9474
   52CHL1   C24 3836   4.063   0.967   8.298 -0.1624 -0.4909  0.2298
   52CHL1  H24A 3837   4.054   1.065   8.351 -0.3762 -1.0710  1.2888
   52CHL1  H24B 3838   4.006   0.888   8.352 -0.4974  0.6113  1.5456
   52CHL1   C25 3839   4.213   0.921   8.301  1.3220  0.2332  0.7914
   52CHL1   H25 3840   4.221   0.822   8.251 -0.5466 -1.3443  3.3517
   52CHL1   C26 3841   4.305   1.013   8.212 -0.4639  0.4045  0.2810
   52CHL1  H26A 3842   4.404   0.962   8.210 -0.0330  1.1850  1.4411
   52CHL1  H26B 3843   4.264   1.025   8.109 -1.9125 -2.4211  0.3989
   52CHL1  H26C 3844   4.319   1.112   8.258 -0.3474  0.4163  0.2193
   52CHL1   C27 3845   4.256   0.911   8.441  0.1264  0.3362 -0.5971
   52CHL1  H27A 3846   4.366   0.893   8.447 -0.0594 -0.7992 -0.1983
   52CHL1  H27B 3847   4.239   0.999   8.506  2.4341  0.2308  0.2515
   52CHL1  H27C 3848   4.199   0.827   8.487  0.5820  1.0001  1.2625
   53CHL1    C3 3849   1.049   3.509   6.865 -0.3571  0.3778 -0.4924
   53CHL1    H3 3850   1.107   3.601   6.888  0.4549 -0.6206  1.7635
   53CHL1    O3 3851   1.042   3.470   6.727 -0.1466 -0.2223 -0.2792
   53CHL1   H3' 3852   1.012   3.378   6.724  2.0254 -0.9623 -1.3017
   53CHL1    C4 3853   1.106   3.382   6.931  0.7348  0.4357 -0.2043
   53CHL1   H4A 3854   1.047   3.295   6.897  1.9337 -0.7593  0.6398
   53CHL1   H4B 3855   1.210   3.358   6.901  0.8280 -1.9771  1.7746
   53CHL1    C5 3856   1.095   3.383   7.081  0.4017  0.4263  0.1249
   53CHL1    C6 3857   1.203   3.338   7.151 -0.0349  0.1653 -0.1456
   53CHL1    H6 3858   1.292   3.297   7.102  0.6905  0.7716  0.6280
   53CHL1    C7 3859   1.214   3.342   7.301  0.0957  0.0469 -0.4259
   53CHL1   H7A 3860   1.244   3.246   7.346 -3.6050 -0.2604  1.7961
   53CHL1   H7B 3861   1.284   3.425   7.322  0.1539 -0.0801 -0.1174
   53CHL1    C8 3862   1.084   3.390   7.377 -0.4302  0.0439  0.4891
   53CHL1    H8 3863   1.027   3.296   7.395  0.9206 -1.3452 -1.9496
   53CHL1   C14 3864   1.118   3.443   7.518  0.2219 -0.6068 -0.3784
   53CHL1   H14 3865   1.181   3.533   7.498 -0.6834 -0.0371 -0.7245
   53CHL1   C15 3866   1.202   3.361   7.614 -0.0542 -0.1359  0.1562
   53CHL1  H15A 3867   1.168   3.256   7.618 -1.1666  0.1588 -1.1278
   53CHL1  H15B 3868   1.312   3.371   7.596 -0.1176  0.1496 -0.0850
   53CHL1   C16 3869   1.166   3.431   7.755 -0.3575  0.0952  1.0378
   53CHL1  H16A 3870   1.132   3.349   7.822 -0.1380 -1.1239 -0.2856
   53CHL1  H16B 3871   1.256   3.461   7.812  0.6963  1.6826 -1.2951
   53CHL1   C17 3872   1.058   3.539   7.733 -0.4209  0.1989  0.7014
   53CHL1   H17 3873   1.106   3.635   7.706 -1.8205  0.2761 -1.8502
   53CHL1   C13 3874   0.997   3.501   7.596 -0.0516 -0.2141  0.7357
   53CHL1   C18 3875   0.886   3.397   7.622 -0.4513  0.1310  0.3795
   53CHL1  H18A 3876   0.871   3.333   7.532  0.7355  2.1451 -1.3469
   53CHL1  H18B 3877   0.919   3.331   7.705 -1.4994  0.0805  0.7732
   53CHL1  H18C 3878   0.800   3.460   7.653 -0.0228  1.1203 -0.4169
   53CHL1   C12 3879   0.941   3.619   7.507  0.3630  0.1124  0.3563
   53CHL1  H12A 3880   0.844   3.651   7.549  1.0012  1.7440  0.6712
   53CHL1  H12B 3881   1.013   3.704   7.503  2.3233 -1.3502  2.1366
   53CHL1   C11 3882   0.898   3.563   7.374 -0.0394  1.0000 -0.0383
   53CHL1  H11A 3883   0.812   3.494   7.386 -0.3291  1.0320 -1.7156
   53CHL1  H11B 3884   0.863   3.641   7.303 -0.0201 -0.3404 -1.6017
   53CHL1    C9 3885   1.016   3.497   7.297  0.1235 -0.1979  0.2282
   53CHL1    H9 3886   1.081   3.586   7.287 -2.8323  2.2629  1.5865
   53CHL1   C10 3887   0.977   3.449   7.153  0.8397 -0.1184  0.2668
   53CHL1   C19 3888   0.871   3.338   7.166 -0.7496 -0.5001 -0.6009
   53CHL1  H19A 3889   0.772   3.373   7.202 -0.7132  0.0948 -1.0609
   53CHL1  H19B 3890   0.846   3.299   7.065  0.6624 -2.3014 -0.3161
   53CHL1  H19C 3891   0.908   3.261   7.237 -0.9283  0.8955  1.0695
   53CHL1    C1 3892   0.914   3.562   7.064 -0.1676  0.5287 -1.3764
   53CHL1   H1A 3893   0.818   3.578   7.116  0.7594  0.9375  0.2523
   53CHL1   H1B 3894   0.970   3.648   7.106  1.9355 -2.0250  1.4636
   53CHL1    C2 3895   0.908   3.542   6.915 -0.0612  0.2825  0.8549
   53CHL1   H2A 3896   0.867   3.635   6.870 -0.3953 -1.1279 -2.0399
   53CHL1   H2B 3897   0.839   3.458   6.892  0.9012 -0.2095 -0.3071
   53CHL1   C20 3898   0.976   3.567   7.849  0.2932  0.3759 -0.3883
   53CHL1   H20 3899   0.876   3.520   7.859  0.7427 -0.3359  1.2025
   53CHL1   C21 3900   0.918   3.715   7.841 -0.2177  0.5183  0.0939
   53CHL1  H21A 3901   0.986   3.793   7.880 -1.9903  0.3281  4.0653
   53CHL1  H21B 3902   0.830   3.725   7.909 -0.2013 -1.9502  0.5926
   53CHL1  H21C 3903   0.874   3.728   7.740 -1.0864  0.2797  0.4327
   53CHL1   C22 3904   1.043   3.545   7.989  0.3775 -0.7554 -0.5089
   53CHL1  H22A 3905   1.093   3.447   8.000  0.8046 -0.5651 -0.7243
   53CHL1  H22B 3906   1.134   3.609   7.990 -0.5627  0.6127 -0.2959
   53CHL1   C23 3907   0.952   3.580   8.103  0.0007  0.2813  1.0512
   53CHL1  H23A 3908   0.899   3.675   8.082 -2.8506 -0.4376  4.0973
   53CHL1  H23B 3909   0.883   3.494   8.120  1.1651 -0.9482 -0.1369
   53CHL1   C24 3910   1.037   3.612   8.224  0.2637  0.3415 -0.8370
   53CHL1  H24A 3911   1.098   3.519   8.231  0.3834  0.4171 -0.8595
   53CHL1  H24B 3912   1.107   3.697   8.210  0.4881  0.3368  0.1379
   53CHL1   C25 3913   0.965   3.631   8.366 -0.3877 -0.0411 -1.2932
   53CHL1   H25 3914   1.049   3.633   8.438 -0.3237 -1.1739 -1.3218
   53CHL1   C26 3915   0.889   3.767   8.376 -0.1595  0.0747  0.3868
   53CHL1  H26A 3916   0.816   3.778   8.292  0.4520 -1.7988 -0.4330
   53CHL1  H26B 3917   0.837   3.793   8.471  1.5976  1.9166  0.9064
   53CHL1  H26C 3918   0.949   3.860   8.362 -1.2228  1.1227  2.3754
   53CHL1   C27 3919   0.876   3.512   8.415 -0.3324  0.2149  0.2060
   53CHL1  H27A 3920   0.940   3.421   8.419  0.7346  0.9194 -0.5122
   53CHL1  H27B 3921   0.837   3.539   8.516 -1.3742  1.6288 -0.5390
   53CHL1  H27C 3922   0.792   3.500   8.343  1.7516  0.9590 -2.5227
   54CHL1    C3 3923   1.118   6.168   6.785 -0.3319  1.3975  0.3610
   54CHL1    H3 3924   1.160   6.269   6.797  1.2296  0.7779  0.3073
   54CHL1    O3 3925   1.087   6.157   6.644 -0.1574  0.1953  0.3013
   54CHL1   H3' 3926   1.096   6.063   6.625 -1.0807 -0.7479  3.8571
   54CHL1    C4 3927   1.219   6.064   6.824  0.5722  0.1772 -0.5631
   54CHL1   H4A 3928   1.183   5.961   6.804  0.5781  0.3521 -1.4869
   54CHL1   H4B 3929   1.308   6.071   6.758  1.3658 -0.4781  0.3966
   54CHL1    C5 3930   1.257   6.056   6.973 -0.2200  0.4238  0.7804
   54CHL1    C6 3931   1.384   6.077   7.016  0.3526  0.0350 -0.0785
   54CHL1    H6 3932   1.462   6.094   6.940 -0.6804  2.5566 -0.6737
   54CHL1    C7 3933   1.424   6.059   7.163  0.2234 -0.1226 -0.9766
   54CHL1   H7A 3934   1.500   5.980   7.183  0.9701  0.9147  0.4932
   54CHL1   H7B 3935   1.450   6.160   7.201 -0.1209 -0.6105  0.6576
   54CHL1    C8 3936   1.302   6.013   7.249  0.1615  0.4903  0.0634
   54CHL1    H8 3937   1.297   5.902   7.238 -1.1012  0.7219 -2.9121
   54CHL1   C14 3938   1.323   6.052   7.395  0.0866  0.0167  0.5416
   54CHL1   H14 3939   1.333   6.163   7.388 -1.7927  0.1505 -0.6496
   54CHL1   C15 3940   1.454   6.011   7.458 -0.8010  0.2031  0.3672
   54CHL1  H15A 3941   1.482   5.905   7.446  0.4695  0.3408  1.7805
   54CHL1  H15B 3942   1.528   6.073   7.403 -0.3220  0.7687  1.5886
   54CHL1   C16 3943   1.444   6.054   7.604 -0.4766  0.4475  0.2982
   54CHL1  H16A 3944   1.480   5.972   7.669 -0.0805  0.7746  0.4997
   54CHL1  H16B 3945   1.509   6.144   7.612  0.1731 -0.0860  1.0848
   54CHL1   C17 3946   1.293   6.078   7.628  0.3600 -0.7331  0.1558
   54CHL1   H17 3947   1.280   6.188   7.620  0.5637 -0.6187  1.2190
   54CHL1   C13 3948   1.223   6.015   7.503 -0.2731  0.4860 -0.1196
   54CHL1   C18 3949   1.225   5.860   7.509  0.7024 -0.7642  0.0402
   54CHL1  H18A 3950   1.306   5.818   7.573 -0.3677 -1.7099  0.8214
   54CHL1  H18B 3951   1.126   5.832   7.553 -0.6697  2.4827 -0.7126
   54CHL1  H18C 3952   1.218   5.808   7.411 -5.3131 -2.7687  1.0932
   54CHL1   C12 3953   1.094   6.082   7.451  0.6556 -0.1200  0.2399
   54CHL1  H12A 3954   1.007   6.060   7.516  0.3524 -2.3466 -0.8215
   54CHL1  H12B 3955   1.117   6.191   7.457  0.6302  0.2391 -3.6905
   54CHL1   C11 3956   1.064   6.046   7.308  0.2738 -0.6241  0.1284
   54CHL1  H11A 3957   1.059   5.935   7.301 -2.1874 -0.6790  1.5945
   54CHL1  H11B 3958   0.974   6.102   7.275  1.1443  1.3190  0.8865
   54CHL1    C9 3959   1.177   6.080   7.203 -0.2694 -0.5196 -0.1676
   54CHL1    H9 3960   1.185   6.191   7.206 -1.4400 -0.3697 -1.4219
   54CHL1   C10 3961   1.133   6.045   7.064 -0.4165  0.2102  0.6453
   54CHL1   C19 3962   1.075   5.894   7.067  0.4085  0.5081  0.0604
   54CHL1  H19A 3963   1.146   5.830   7.122 -0.9650 -1.3594 -0.2165
   54CHL1  H19B 3964   0.974   5.884   7.113 -0.5051 -0.5472 -2.0061
   54CHL1  H19C 3965   1.066   5.855   6.963  0.1761 -1.4466  0.7645
   54CHL1    C1 3966   1.023   6.141   7.017  0.4351  0.2023 -0.1189
   54CHL1   H1A 3967   0.932   6.122   7.076  0.7801  2.6473  1.3542
   54CHL1   H1B 3968   1.046   6.246   7.047  1.9264 -0.0529 -0.2949
   54CHL1    C2 3969   0.990   6.147   6.868 -0.1338 -0.4795 -0.8989
   54CHL1   H2A 3970   0.912   6.225   6.851 -1.5507 -0.4036  4.1464
   54CHL1   H2B 3971   0.937   6.054   6.838 -0.3007  0.0069 -2.1699
   54CHL1   C20 3972   1.238   6.030   7.766  0.6212 -0.6504 -0.0595
   54CHL1   H20 3973   1.263   5.923   7.783  0.2598 -1.2393 -2.7881
   54CHL1   C21 3974   1.087   6.041   7.776 -0.3139  0.0075 -0.2243
   54CHL1  H21A 3975   1.051   6.007   7.876  0.6890  2.0248  0.8852
   54CHL1  H21B 3976   1.042   5.978   7.697 -1.8026  3.2676 -2.1797
   54CHL1  H21C 3977   1.036   6.138   7.759 -2.4890 -0.9273  0.6167
   54CHL1   C22 3978   1.307   6.104   7.877  0.8415  0.3544  0.5843
   54CHL1  H22A 3979   1.414   6.077   7.862  0.6173 -0.8816  1.1123
   54CHL1  H22B 3980   1.300   6.215   7.868 -0.3050  0.1561 -1.7009
   54CHL1   C23 3981   1.272   6.062   8.019 -0.2742 -1.0868  0.1990
   54CHL1  H23A 3982   1.172   6.104   8.042  0.4786  0.9698 -0.0872
   54CHL1  H23B 3983   1.273   5.951   8.030  2.2395 -1.6688 -3.8488
   54CHL1   C24 3984   1.368   6.136   8.122 -0.3823 -0.1850 -0.1326
   54CHL1  H24A 3985   1.470   6.117   8.084 -0.8348 -1.7876 -0.6060
   54CHL1  H24B 3986   1.368   6.245   8.099  0.9957  0.0375  0.7920
   54CHL1   C25 3987   1.351   6.110   8.279 -0.4020 -0.3040  0.1287
   54CHL1   H25 3988   1.255   6.156   8.311  0.1449  0.4274  0.7654
   54CHL1   C26 3989   1.354   5.962   8.314  0.6471  0.1192 -0.0547
   54CHL1  H26A 3990   1.449   5.921   8.273  0.1239 -0.0381 -1.1460
   54CHL1  H26B 3991   1.356   5.951   8.424 -0.3490 -1.2085 -0.1397
   54CHL1  H26C 3992   1.262   5.919   8.266  0.4382  2.0045 -1.4601
   54CHL1   C27 3993   1.456   6.189   8.351  0.6103 -0.4437 -1.0694
   54CHL1  H27A 3994   1.447   6.167   8.460  2.0081  0.3043 -0.7851
   54CHL1  H27B 3995   1.554   6.146   8.321  0.8793 -0.5492 -0.0636
   54CHL1  H27C 3996   1.447   6.299   8.341  4.2496  0.0540 -0.3103
   55CHL1    C3 3997   6.467   6.650   6.778 -0.7535  0.0786  0.2011
   55CHL1    H3 3998   6.459   6.540   6.776 -2.9981  0.2020 -1.6630
   55CHL1    O3 3999   6.460   6.689   6.640 -0.4241  0.6521  0.0696
   55CHL1   H3' 4000   6.378   6.657   6.602 -0.9382  1.2727  0.6297
   55CHL1    C4 4001   6.349   6.701   6.863 -0.3728 -0.6145 -0.4392
   55CHL1   H4A 4002   6.334   6.809   6.842  3.0362  0.6180  2.4887
   55CHL1   H4B 4003   6.266   6.639   6.821 -1.0828 -0.6388  0.9277
   55CHL1    C5 4004   6.364   6.674   7.012 -0.5889 -0.3462  0.2039
   55CHL1    C6 4005   6.267   6.609   7.080  0.2238  0.4310  0.3806
   55CHL1    H6 4006   6.177   6.571   7.030 -0.3751 -0.3214  1.9841
   55CHL1    C7 4007   6.274   6.584   7.224 -0.0221  0.7326 -0.3485
   55CHL1   H7A 4008   6.171   6.589   7.264 -0.9190 -0.3119 -2.3708
   55CHL1   H7B 4009   6.299   6.476   7.227  0.3117  0.7988  2.9701
   55CHL1    C8 4010   6.375   6.675   7.303  0.0691  0.9415  0.4725
   55CHL1    H8 4011   6.336   6.779   7.300  0.2638  0.9902 -1.7474
   55CHL1   C14 4012   6.393   6.636   7.450  0.1506  0.2037 -0.3383
   55CHL1   H14 4013   6.441   6.535   7.455  0.8193  0.5080 -0.5317
   55CHL1   C15 4014   6.265   6.623   7.536 -0.3418 -1.3133  0.0483
   55CHL1  H15A 4015   6.214   6.722   7.532  0.7731 -0.7630 -1.6235
   55CHL1  H15B 4016   6.189   6.545   7.515 -1.5008 -0.1444 -0.2793
   55CHL1   C16 4017   6.321   6.620   7.676 -0.9020  0.1603  0.6622
   55CHL1  H16A 4018   6.261   6.691   7.737 -0.5257  0.2514  0.9328
   55CHL1  H16B 4019   6.296   6.528   7.733 -1.1404  0.4682  1.0603
   55CHL1   C17 4020   6.474   6.662   7.670  0.5578  0.3313 -0.0004
   55CHL1   H17 4021   6.530   6.567   7.660 -1.6628 -1.0249 -0.2261
   55CHL1   C13 4022   6.490   6.727   7.526 -0.4648  0.2942 -0.0253
   55CHL1   C18 4023   6.450   6.878   7.525  0.0788  0.4973  0.2512
   55CHL1  H18A 4024   6.341   6.891   7.546 -0.2599  1.8789 -2.0130
   55CHL1  H18B 4025   6.510   6.945   7.590 -1.7750  0.9245  1.6116
   55CHL1  H18C 4026   6.476   6.928   7.429  2.2376  1.3021  1.1941
   55CHL1   C12 4027   6.626   6.703   7.465  0.6670  0.1600 -0.1387
   55CHL1  H12A 4028   6.706   6.758   7.520  1.4631 -1.6441  0.6026
   55CHL1  H12B 4029   6.674   6.603   7.470 -0.9103 -0.5887  0.6225
   55CHL1   C11 4030   6.627   6.746   7.315 -0.6186  0.3960  0.4878
   55CHL1  H11A 4031   6.632   6.856   7.300 -1.1006  0.3268 -0.2405
   55CHL1  H11B 4032   6.721   6.704   7.273 -1.0970  1.5962 -1.9496
   55CHL1    C9 4033   6.510   6.678   7.229  0.8315  0.2716 -0.1930
   55CHL1    H9 4034   6.543   6.572   7.222 -1.4818 -0.3980 -2.5199
   55CHL1   C10 4035   6.495   6.726   7.082  0.3387  0.3453 -0.0740
   55CHL1   C19 4036   6.486   6.881   7.091  0.6385  0.4103  0.7733
   55CHL1  H19A 4037   6.580   6.936   7.111  0.9113  0.1389  0.2918
   55CHL1  H19B 4038   6.464   6.918   6.988 -0.5835  1.3745  1.3590
   55CHL1  H19C 4039   6.398   6.922   7.146  0.2794 -0.3032  0.7489
   55CHL1    C1 4040   6.609   6.677   6.994 -0.4528  0.8142  0.0029
   55CHL1   H1A 4041   6.702   6.728   7.029  1.0373 -2.3067  0.8918
   55CHL1   H1B 4042   6.619   6.567   7.004  2.1439  0.8952 -1.0236
   55CHL1    C2 4043   6.604   6.699   6.837 -0.8591  0.1851 -0.0469
   55CHL1   H2A 4044   6.693   6.665   6.780  0.0780  1.5983  0.5250
   55CHL1   H2B 4045   6.608   6.810   6.831 -1.8196  0.1870 -0.9302
   55CHL1   C20 4046   6.521   6.733   7.794 -0.0401  0.4043  0.3187
   55CHL1   H20 4047   6.460   6.825   7.804  1.6255  1.3364  3.1100
   55CHL1   C21 4048   6.663   6.790   7.788  1.3914  0.0066  0.5120
   55CHL1  H21A 4049   6.689   6.854   7.875  1.0561  0.8430  0.0146
   55CHL1  H21B 4050   6.665   6.864   7.705 -1.4641 -0.1696  0.2103
   55CHL1  H21C 4051   6.737   6.707   7.775 -1.0586 -2.1700 -0.3581
   55CHL1   C22 4052   6.498   6.646   7.918 -0.3926 -0.6586 -0.7021
   55CHL1  H22A 4053   6.391   6.614   7.916 -0.6328 -0.2803  1.9575
   55CHL1  H22B 4054   6.571   6.563   7.922  3.4839  2.3397  4.6033
   55CHL1   C23 4055   6.520   6.726   8.050 -1.1658 -0.3804  0.0569
   55CHL1  H23A 4056   6.623   6.766   8.068 -1.0785 -0.5894  0.0297
   55CHL1  H23B 4057   6.447   6.809   8.053 -0.5042  0.3362 -2.1356
   55CHL1   C24 4058   6.495   6.646   8.179  0.1672 -0.1875 -0.5350
   55CHL1  H24A 4059   6.539   6.548   8.150 -1.4653 -1.7857  1.9691
   55CHL1  H24B 4060   6.564   6.690   8.253  2.3302  1.5810 -3.4028
   55CHL1   C25 4061   6.345   6.625   8.216 -0.0572  0.4436  0.2023
   55CHL1   H25 4062   6.291   6.633   8.119 -2.1375 -4.1588  0.7110
   55CHL1   C26 4063   6.301   6.489   8.260  0.5148  0.2085 -0.7301
   55CHL1  H26A 4064   6.341   6.464   8.361 -1.7988 -0.5403  0.0736
   55CHL1  H26B 4065   6.193   6.480   8.286  0.5064 -2.5705 -1.4184
   55CHL1  H26C 4066   6.327   6.403   8.194 -2.5690 -0.4302 -1.2602
   55CHL1   C27 4067   6.267   6.737   8.293 -0.6712 -0.3410 -0.6192
   55CHL1  H27A 4068   6.313   6.747   8.394  0.3569 -0.7280 -1.0368
   55CHL1  H27B 4069   6.272   6.839   8.248  0.4240  0.0825  0.4010
   55CHL1  H27C 4070   6.163   6.700   8.306 -0.7202  0.0791  0.2671
   56CHL1    C3 4071   0.991   5.451   6.755 -0.2203  0.1145 -0.2387
   56CHL1    H3 4072   1.100   5.473   6.756 -0.1310 -0.3349  0.5312
   56CHL1    O3 4073   0.957   5.449   6.618 -0.0951  0.3337  0.3551
   56CHL1   H3' 4074   0.861   5.444   6.615 -0.1064  0.7992 -0.1504
   56CHL1    C4 4075   0.942   5.322   6.818  1.0028  0.0044  0.0130
   56CHL1   H4A 4076   0.831   5.323   6.811  1.0262 -0.4695 -0.4731
   56CHL1   H4B 4077   0.966   5.227   6.764 -1.4097 -0.0205 -1.1445
   56CHL1    C5 4078   0.973   5.336   6.967 -0.5172 -0.1690  0.6921
   56CHL1    C6 4079   1.052   5.246   7.020 -0.6095 -0.5972 -0.5715
   56CHL1    H6 4080   1.086   5.156   6.968  0.4603 -0.2500 -0.5036
   56CHL1    C7 4081   1.083   5.246   7.170 -0.2127 -0.1476 -0.6833
   56CHL1   H7A 4082   1.083   5.141   7.207  0.2483  0.6551  1.7658
   56CHL1   H7B 4083   1.184   5.290   7.185 -0.4701  1.4947 -3.2323
   56CHL1    C8 4084   0.986   5.336   7.257 -0.0875 -0.2849 -0.3624
   56CHL1    H8 4085   0.889   5.283   7.261  0.4428 -1.5420 -2.6591
   56CHL1   C14 4086   1.048   5.354   7.401 -0.1648  0.1017 -0.5451
   56CHL1   H14 4087   1.143   5.410   7.394 -0.8950  1.3092 -1.2014
   56CHL1   C15 4088   1.065   5.224   7.482 -0.1648 -0.2499 -0.0501
   56CHL1  H15A 4089   0.989   5.155   7.441  1.3602 -0.0801 -3.4828
   56CHL1  H15B 4090   1.167   5.182   7.466  0.8501  1.4195  1.5627
   56CHL1   C16 4091   1.058   5.275   7.630  0.3299 -0.0216  0.4187
   56CHL1  H16A 4092   0.971   5.229   7.681 -0.5951 -1.2460 -2.0675
   56CHL1  H16B 4093   1.156   5.255   7.678 -0.6691 -1.7419  1.8767
   56CHL1   C17 4094   1.034   5.433   7.619  0.7984  0.4769 -0.1177
   56CHL1   H17 4095   1.134   5.481   7.610  0.7882  0.3875 -0.7796
   56CHL1   C13 4096   0.966   5.450   7.484  0.5105  0.6466  0.0166
   56CHL1   C18 4097   0.822   5.397   7.499 -0.6115  0.0846 -0.2628
   56CHL1  H18A 4098   0.769   5.401   7.402  1.3194  1.0420 -1.3514
   56CHL1  H18B 4099   0.818   5.291   7.532  1.1172 -0.6987 -2.3453
   56CHL1  H18C 4100   0.767   5.456   7.576 -0.8194 -0.0979 -0.2719
   56CHL1   C12 4101   0.961   5.587   7.420  0.7459 -1.0129 -0.2208
   56CHL1  H12A 4102   0.898   5.662   7.474  1.2256  1.0410 -2.3355
   56CHL1  H12B 4103   1.067   5.621   7.421  1.3085 -2.6561  1.5913
   56CHL1   C11 4104   0.903   5.584   7.277 -0.5902  0.2838 -0.2245
   56CHL1  H11A 4105   0.792   5.572   7.279 -0.3711 -2.0702  0.7048
   56CHL1  H11B 4106   0.931   5.680   7.229 -0.1550 -0.0425 -0.6301
   56CHL1    C9 4107   0.973   5.473   7.191  0.4088  0.0047 -0.0660
   56CHL1    H9 4108   1.078   5.506   7.187  0.5934 -0.6575 -1.9876
   56CHL1   C10 4109   0.916   5.460   7.043 -0.2973 -0.0391  0.8942
   56CHL1   C19 4110   0.764   5.442   7.058 -0.6766  0.3566  0.0603
   56CHL1  H19A 4111   0.720   5.409   6.961 -2.6929  0.0845  1.0286
   56CHL1  H19B 4112   0.747   5.365   7.136 -2.1289 -0.6329 -1.1700
   56CHL1  H19C 4113   0.721   5.542   7.078  0.1633  0.8225 -0.3688
   56CHL1    C1 4114   0.950   5.587   6.962 -0.3137  0.4941 -0.8573
   56CHL1   H1A 4115   0.895   5.676   7.000 -0.9394 -0.5741  0.7936
   56CHL1   H1B 4116   1.059   5.600   6.984 -0.3111 -1.4904  0.5318
   56CHL1    C2 4117   0.924   5.575   6.816  0.0781  0.1795 -0.0087
   56CHL1   H2A 4118   0.961   5.666   6.763 -0.5629  0.3609 -0.1494
   56CHL1   H2B 4119   0.815   5.565   6.797  0.0433  1.1867 -0.4312
   56CHL1   C20 4120   0.968   5.507   7.744 -0.8152  0.0829  0.5256
   56CHL1   H20 4121   0.868   5.465   7.766 -1.4043  1.6089  0.8346
   56CHL1   C21 4122   0.950   5.656   7.732  0.1213 -0.3060 -0.1871
   56CHL1  H21A 4123   0.932   5.708   7.828 -0.9306  1.8292 -1.4627
   56CHL1  H21B 4124   0.870   5.691   7.663  2.2987  0.3100 -2.5543
   56CHL1  H21C 4125   1.047   5.700   7.700 -0.3799 -0.2584 -1.7598
   56CHL1   C22 4126   1.042   5.467   7.867 -0.0217 -0.4920 -0.7890
   56CHL1  H22A 4127   0.981   5.507   7.951 -0.3950  0.5095 -1.5299
   56CHL1  H22B 4128   1.027   5.359   7.888  0.2906 -0.3520  0.2144
   56CHL1   C23 4129   1.189   5.499   7.862 -0.2179 -0.4489 -0.8622
   56CHL1  H23A 4130   1.240   5.440   7.783  0.9150  0.4066 -0.7921
   56CHL1  H23B 4131   1.196   5.609   7.847  0.2962 -0.1754  1.0768
   56CHL1   C24 4132   1.249   5.470   8.003  0.5759 -0.3545  0.1795
   56CHL1  H24A 4133   1.182   5.510   8.082 -0.9051 -1.7175 -0.3323
   56CHL1  H24B 4134   1.244   5.360   8.017  0.7559 -0.1587  2.1565
   56CHL1   C25 4135   1.393   5.524   8.012 -0.2022  0.7587 -0.1481
   56CHL1   H25 4136   1.449   5.469   7.932 -0.0846 -2.2997  1.8706
   56CHL1   C26 4137   1.407   5.673   7.996  0.4049  0.1961  0.6955
   56CHL1  H26A 4138   1.332   5.729   8.056  0.3581  1.2086 -0.2610
   56CHL1  H26B 4139   1.368   5.686   7.892 -2.5596 -2.5898  1.2814
   56CHL1  H26C 4140   1.507   5.716   8.017  0.4931 -1.0339  3.0818
   56CHL1   C27 4141   1.463   5.477   8.142  0.3400 -0.5581 -0.6420
   56CHL1  H27A 4142   1.517   5.560   8.191  1.8131 -1.4115 -0.7714
   56CHL1  H27B 4143   1.382   5.427   8.199  0.7402 -1.0207 -0.4713
   56CHL1  H27C 4144   1.537   5.396   8.124  1.1572  0.1884 -0.6868
   57SAPC     N 4145   6.530   1.479  10.916  0.3725  0.8758  0.1020
   57SAPC   C12 4146   6.460   1.434  10.788 -0.3043 -0.5330 -0.7930
   57SAPC  H12A 4147   6.433   1.520  10.729  1.2272 -0.4152 -1.3554
   57SAPC  H12B 4148   6.369   1.384  10.818  0.1020 -2.1528 -2.1134
   57SAPC   C13 4149   6.425   1.550  10.998 -0.2768  0.0263 -0.5197
   57SAPC  H13A 4150   6.456   1.554  11.101  0.7652 -0.8182 -0.7769
   57SAPC  H13B 4151   6.413   1.651  10.962 -0.7953 -0.1101 -0.7383
   57SAPC  H13C 4152   6.332   1.497  10.985 -1.0876  1.5046 -0.9224
   57SAPC   C14 4153   6.574   1.355  10.988  0.6128  0.3008 -0.5899
   57SAPC  H14A 4154   6.487   1.294  11.007 -0.4327  1.4371 -1.5476
   57SAPC  H14B 4155   6.645   1.295  10.933  3.3465  0.7845  2.1530
   57SAPC  H14C 4156   6.622   1.385  11.080 -0.7861 -0.3426  0.3782
   57SAPC   C15 4157   6.646   1.562  10.894  0.1121 -0.6493  0.0976
   57SAPC  H15A 4158   6.697   1.520  10.809 -3.1177 -3.0624 -0.8432
   57SAPC  H15B 4159   6.630   1.664  10.863  4.0736 -0.2664 -1.2100
   57SAPC  H15C 4160   6.710   1.563  10.981 -0.2027  1.0059  0.3503
   57SAPC   C11 4161   6.541   1.340  10.690 -0.3481  0.0519  0.2401
   57SAPC  H11A 4162   6.468   1.351  10.607 -2.4518  2.6099  2.2422
   57SAPC  H11B 4163   6.531   1.238  10.734 -2.0405  0.4452  0.8543
   57SAPC     P 4164   6.796   1.296  10.652  0.0023 -0.6277  0.0901
   57SAPC   O13 4165   6.910   1.373  10.702  0.0507  0.1735 -0.2395
   57SAPC   O14 4166   6.756   1.177  10.734  0.1765  0.2339  0.3639
   57SAPC   O12 4167   6.667   1.392  10.647 -0.1776  0.0441 -0.9491
   57SAPC   O11 4168   6.827   1.251  10.504 -0.1170 -0.3502 -0.0881
   57SAPC    C1 4169   6.729   1.206  10.422  0.9032 -0.5139  0.7873
   57SAPC    HA 4170   6.689   1.108  10.455 -0.7550  0.2055  1.0525
   57SAPC    HB 4171   6.643   1.275  10.406  1.2363 -0.7372 -2.6095
   57SAPC    C2 4172   6.784   1.195  10.276  0.5359 -0.6736 -0.1153
   57SAPC    HS 4173   6.875   1.132  10.278 -0.9032 -2.9625 -1.6151
   57SAPC   O21 4174   6.823   1.327  10.226  0.5276 -0.1449 -0.2571
   57SAPC   C21 4175   6.916   1.328  10.131  0.3216 -0.2657  0.9555
   57SAPC   O22 4176   6.981   1.227  10.105 -0.1154  0.6593 -0.1324
   57SAPC   C22 4177   6.924   1.467  10.055  0.0847 -0.5494 -0.2949
   57SAPC   H2R 4178   6.903   1.448   9.948  0.3628  1.1806 -0.6897
   57SAPC   H2S 4179   6.844   1.529  10.100  0.0153 -1.4748  0.9147
   57SAPC    C3 4180   6.679   1.136  10.179 -0.6075 -0.7974  0.0215
   57SAPC    HX 4181   6.598   1.212  10.171 -0.4853 -0.7183 -0.5014
   57SAPC    HY 4182   6.635   1.047  10.229 -3.0607 -0.0141 -0.6076
   57SAPC   O31 4183   6.739   1.099  10.056  0.0284 -0.1274 -0.5815
   57SAPC   C31 4184   6.634   1.066   9.974  0.3578 -0.1649 -0.0390
   57SAPC   O32 4185   6.519   1.051  10.004  0.8737 -0.0711 -0.1558
   57SAPC   C32 4186   6.694   1.051   9.838  0.1097  0.9357  0.3628
   57SAPC   H2X 4187   6.757   0.960   9.838 -3.1910 -1.5079  1.6733
   57SAPC   H2Y 4188   6.745   1.145   9.807 -1.9029  2.2722  0.9054
   57SAPC   C23 4189   7.058   1.531  10.093  0.6482  0.1692 -0.5203
   57SAPC   H3R 4190   7.147   1.466  10.082  0.9655 -0.0267  2.5377
   57SAPC   H3S 4191   7.060   1.562  10.199 -0.9575 -1.8802  0.1686
   57SAPC   C24 4192   7.108   1.653  10.005 -0.0463 -0.0940 -0.3882
   57SAPC   H4R 4193   7.096   1.639   9.896 -0.7381 -1.3731 -0.1669
   57SAPC   H4S 4194   7.218   1.645  10.020  0.0502  1.4502 -0.0891
   57SAPC   C25 4195   7.060   1.788  10.048  0.8959 -0.0856  0.3666
   57SAPC   H5R 4196   6.957   1.796  10.084  0.4698  0.5880 -0.9535
   57SAPC   C26 4197   7.129   1.896  10.044 -0.2225 -0.4026  0.6705
   57SAPC   H6R 4198   7.072   1.989  10.060 -1.1062 -0.4240 -1.8914
   57SAPC   C27 4199   7.271   1.904   9.992  0.2460  0.3547  0.2641
   57SAPC   H7R 4200   7.304   1.824   9.922  0.9181  0.6144  0.2814
   57SAPC   H7S 4201   7.355   1.887  10.062  1.6961  0.3044 -1.4391
   57SAPC   C28 4202   7.296   2.039   9.934 -0.8552 -0.1748 -0.6541
   57SAPC   H8R 4203   7.280   2.124  10.001 -0.5049 -1.2428  0.8344
   57SAPC   C29 4204   7.293   2.072   9.801 -0.0988 -0.9055 -0.0659
   57SAPC   H9R 4205   7.309   2.180   9.792 -0.8497 -0.5482  2.2318
   57SAPC  C210 4206   7.293   1.971   9.683  0.1733 -0.1072  0.2169
   57SAPC  H10R 4207   7.242   1.877   9.714 -1.3687  1.1765  1.7551
   57SAPC  H10S 4208   7.398   1.945   9.659 -0.3534  0.0578 -2.5957
   57SAPC  C211 4209   7.221   2.015   9.557 -0.5976 -0.0163 -0.1482
   57SAPC  H11R 4210   7.263   2.101   9.503  3.3492 -2.3504 -1.1835
   57SAPC  C212 4211   7.107   1.958   9.514 -0.0872 -0.1245 -0.2207
   57SAPC  H12R 4212   7.069   1.989   9.415  0.1708 -0.5070 -0.4408
   57SAPC  C213 4213   7.026   1.841   9.568 -0.0393 -0.2135  0.2510
   57SAPC  H13R 4214   6.925   1.888   9.573 -0.3912 -0.6401 -1.8109
   57SAPC  H13S 4215   7.055   1.828   9.674 -0.6744 -0.1093  0.4408
   57SAPC  C214 4216   7.014   1.715   9.485 -0.4079 -0.3311 -0.5676
   57SAPC  H14R 4217   7.033   1.726   9.377 -3.2439  2.8741 -0.9072
   57SAPC  C215 4218   6.968   1.596   9.536 -0.8266 -0.5690  0.2518
   57SAPC  H15R 4219   6.959   1.504   9.475 -0.8605 -1.6375  1.8116
   57SAPC  C216 4220   6.929   1.579   9.679 -0.6686 -0.5047 -0.0522
   57SAPC  H16R 4221   6.968   1.660   9.744  2.6726 -0.8785 -1.4236
   57SAPC  H16S 4222   6.978   1.486   9.713 -2.3151 -1.6150 -0.6006
   57SAPC  C217 4223   6.778   1.560   9.697  0.1875 -0.1110 -0.1261
   57SAPC  H17R 4224   6.721   1.650   9.664  1.5010  1.0126  0.5857
   57SAPC  H17S 4225   6.761   1.565   9.807  1.9417  0.6761  0.1438
   57SAPC  C218 4226   6.722   1.421   9.654 -0.4673 -0.2676  0.1661
   57SAPC  H18R 4227   6.778   1.340   9.705  1.2109  0.2448 -0.7835
   57SAPC  H18S 4228   6.741   1.417   9.545 -1.4454  0.2823 -0.0331
   57SAPC  C219 4229   6.566   1.424   9.655 -0.3599 -0.0814  0.2881
   57SAPC  H19R 4230   6.537   1.333   9.599  0.4226 -0.7234  0.8923
   57SAPC  H19S 4231   6.533   1.513   9.597 -1.7615 -1.4297 -1.0726
   57SAPC  C220 4232   6.505   1.428   9.791  0.2429  0.1987  0.0622
   57SAPC  H20R 4233   6.556   1.352   9.854  0.5916 -1.7878 -2.4811
   57SAPC  H20S 4234   6.396   1.404   9.789 -0.4190  2.9633 -0.5849
   57SAPC  H20T 4235   6.518   1.529   9.835  1.7182 -0.1461  0.4742
   57SAPC   C33 4236   6.591   1.026   9.725 -0.2704 -0.1553  0.1575
   57SAPC   H3X 4237   6.517   1.108   9.709 -0.1336  0.5673  2.8589
   57SAPC   H3Y 4238   6.533   0.943   9.770  1.4305 -1.0073  0.8741
   57SAPC   C34 4239   6.658   0.976   9.593 -0.2349 -0.5045 -0.1867
   57SAPC   H4X 4240   6.576   0.923   9.539  0.3393 -1.4340 -0.1618
   57SAPC   H4Y 4241   6.752   0.918   9.604 -0.0883 -0.1406  0.5085
   57SAPC   C35 4242   6.697   1.099   9.506 -0.9340 -0.3702 -0.3819
   57SAPC   H5X 4243   6.768   1.162   9.565 -1.7012 -0.4696  0.6891
   57SAPC   H5Y 4244   6.602   1.154   9.488 -1.3425 -0.9176  0.0603
   57SAPC   C36 4245   6.759   1.063   9.374  0.9358 -0.0755 -0.3338
   57SAPC   H6X 4246   6.687   1.008   9.309 -0.4175 -1.1264  1.9367
   57SAPC   H6Y 4247   6.836   0.986   9.395 -1.0761 -1.7680  1.3301
   57SAPC   C37 4248   6.812   1.181   9.291 -0.3814  0.2557  0.4963
   57SAPC   H7X 4249   6.738   1.262   9.307  0.7427  1.1656  1.2316
   57SAPC   H7Y 4250   6.801   1.148   9.186  2.0505 -2.7925  1.0632
   57SAPC   C38 4251   6.954   1.220   9.303  0.0738  0.7069  0.0728
   57SAPC   H8X 4252   7.015   1.142   9.253  1.4443  1.8737 -0.1269
   57SAPC   H8Y 4253   6.987   1.230   9.409 -0.4010 -2.6334  0.6303
   57SAPC   C39 4254   6.968   1.347   9.226  0.1184  0.4866 -0.0398
   57SAPC   H9X 4255   6.891   1.417   9.266 -6.1766 -3.2805 -3.8560
   57SAPC   H9Y 4256   6.946   1.330   9.118  1.0534 -0.6980 -0.0633
   57SAPC  C310 4257   7.115   1.402   9.221 -0.4083  0.2199  0.6873
   57SAPC  H10X 4258   7.188   1.319   9.218 -0.1732  0.4065  1.1605
   57SAPC  H10Y 4259   7.127   1.469   9.309  3.2546  0.4926  0.1227
   57SAPC  C311 4260   7.138   1.496   9.103 -0.0280  0.1115 -0.5936
   57SAPC  H11X 4261   7.230   1.556   9.124  1.1304 -2.1503  1.2061
   57SAPC  H11Y 4262   7.050   1.564   9.110 -0.6631 -0.7143 -0.4256
   57SAPC  C312 4263   7.155   1.417   8.968 -0.1069  0.0457 -0.4324
   57SAPC  H12X 4264   7.055   1.370   8.956 -0.5088  0.7596  0.0124
   57SAPC  H12Y 4265   7.223   1.335   8.998  0.1602  0.2620 -0.4378
   57SAPC  C313 4266   7.196   1.498   8.852 -0.6944  0.2665 -0.2626
   57SAPC  H13X 4267   7.190   1.427   8.767 -1.6957 -1.8906  1.5189
   57SAPC  H13Y 4268   7.292   1.555   8.863  0.0663 -1.0176 -0.0563
   57SAPC  C314 4269   7.099   1.612   8.829 -0.0260 -0.3494  0.2943
   57SAPC  H14X 4270   7.088   1.670   8.923  0.0128 -0.1594  0.1809
   57SAPC  H14Y 4271   6.999   1.571   8.801 -0.5286  1.7331 -1.2194
   57SAPC  C315 4272   7.131   1.706   8.716  0.1832  0.0072 -0.7234
   57SAPC  H15X 4273   7.228   1.760   8.714  0.4519 -0.3923  0.6518
   57SAPC  H15Y 4274   7.053   1.786   8.708  0.4149  0.1345 -2.0400
   57SAPC  C316 4275   7.119   1.642   8.575  0.2212  0.4862  0.0377
   57SAPC  H16X 4276   7.013   1.623   8.546  0.5717  1.2892 -1.9012
   57SAPC  H16Y 4277   7.177   1.547   8.570 -1.6743 -0.6874 -1.2995
   57SAPC  C317 4278   7.182   1.732   8.468  0.2494 -0.4854 -0.9365
   57SAPC  H17X 4279   7.290   1.722   8.492 -0.1482 -0.8672  0.7853
   57SAPC  H17Y 4280   7.134   1.832   8.467 -1.2219 -1.1768 -1.0196
   57SAPC  C318 4281   7.158   1.688   8.328  0.0288  0.3366 -0.1736
   57SAPC  H18X 4282   7.213   1.762   8.265  0.8360 -2.8240 -3.5103
   57SAPC  H18Y 4283   7.049   1.695   8.309  0.1702  1.6412 -0.6207
   57SAPC  H18Z 4284   7.207   1.590   8.312 -0.8575 -0.5433  2.1244
   58SAPC     N 4285   3.710   1.201   2.608  0.0133 -0.5803  0.3753
   58SAPC   C12 4286   3.681   1.224   2.755 -0.0258 -0.1737  0.6393
   58SAPC  H12A 4287   3.635   1.137   2.800  0.7144 -0.8567  0.1106
   58SAPC  H12B 4288   3.610   1.305   2.756 -0.8981 -0.9287  1.3987
   58SAPC   C13 4289   3.768   1.331   2.553  1.0226 -0.1083  0.0824
   58SAPC  H13A 4290   3.867   1.342   2.596  0.8828  0.2763  0.3122
   58SAPC  H13B 4291   3.773   1.330   2.445  0.7989 -1.5403  0.0628
   58SAPC  H13C 4292   3.710   1.415   2.588  1.9373 -0.3681  2.4332
   58SAPC   C14 4293   3.803   1.094   2.576  0.2856  0.1362  0.2978
   58SAPC  H14A 4294   3.892   1.103   2.636  0.5490 -3.6249  0.7027
   58SAPC  H14B 4295   3.771   0.993   2.598  0.2864  0.0718  0.0086
   58SAPC  H14C 4296   3.834   1.104   2.473 -1.6856 -0.9946 -0.4562
   58SAPC   C15 4297   3.578   1.179   2.532  0.0100  0.5784  0.0710
   58SAPC  H15A 4298   3.520   1.098   2.573  1.6198 -0.7076 -0.0938
   58SAPC  H15B 4299   3.518   1.268   2.543 -2.5327 -1.2982  2.5435
   58SAPC  H15C 4300   3.600   1.162   2.427 -0.4247 -1.1593  0.2395
   58SAPC   C11 4301   3.792   1.268   2.854  0.2158  0.4904  0.2943
   58SAPC  H11A 4302   3.751   1.279   2.956  1.6402 -1.1509  1.0857
   58SAPC  H11B 4303   3.829   1.370   2.827 -1.9902  0.8404 -1.7404
   58SAPC     P 4304   3.911   1.072   2.979 -0.0382 -0.0140  0.4496
   58SAPC   O13 4305   3.786   0.987   2.993 -0.5156  0.3652 -0.4488
   58SAPC   O14 4306   4.037   0.993   2.960  0.4666 -0.2461 -0.0904
   58SAPC   O12 4307   3.905   1.182   2.858  0.3089  0.2631  0.0558
   58SAPC   O11 4308   3.917   1.158   3.110 -0.5267  0.3586  0.0046
   58SAPC    C1 4309   4.017   1.258   3.122 -0.2107  0.5655 -0.1736
   58SAPC    HA 4310   4.055   1.287   3.022 -0.8003  1.7356 -0.0739
   58SAPC    HB 4311   3.960   1.349   3.152 -1.3081 -0.1753  0.0397
   58SAPC    C2 4312   4.135   1.238   3.222 -0.4084 -0.2273 -0.2760
   58SAPC    HS 4313   4.193   1.333   3.218 -1.9061  0.7284 -0.0111
   58SAPC   O21 4314   4.225   1.137   3.176  0.2291  0.3392  0.2176
   58SAPC   C21 4315   4.283   1.158   3.058 -0.4972 -0.8694 -0.0599
   58SAPC   O22 4316   4.292   1.267   3.000  0.7468  0.8114 -0.0483
   58SAPC   C22 4317   4.362   1.039   3.022  0.1763  0.0290  0.5031
   58SAPC   H2R 4318   4.419   0.995   3.107  0.5013  0.1743  0.3658
   58SAPC   H2S 4319   4.292   0.967   2.975 -1.0506  0.7879  1.1205
   58SAPC    C3 4320   4.097   1.228   3.372  0.4702  0.4053 -0.2681
   58SAPC    HX 4321   4.032   1.139   3.387  0.0803  0.3310 -2.2066
   58SAPC    HY 4322   4.026   1.311   3.388 -0.9389 -0.4768 -1.6622
   58SAPC   O31 4323   4.211   1.231   3.466 -0.0703 -0.1656 -0.0744
   58SAPC   C31 4324   4.268   1.112   3.491  0.3952  0.6974 -0.7890
   58SAPC   O32 4325   4.215   1.002   3.464  0.3980  0.2027  1.0928
   58SAPC   C32 4326   4.393   1.121   3.576 -0.6331  0.7268 -0.2249
   58SAPC   H2X 4327   4.376   1.111   3.686  2.1335  0.6436  0.2642
   58SAPC   H2Y 4328   4.434   1.224   3.568  2.3991 -0.3883 -0.4587
   58SAPC   C23 4329   4.478   1.087   2.934 -0.6155 -0.2048 -0.6316
   58SAPC   H3R 4330   4.551   1.154   2.984 -0.5930 -1.3665  0.9270
   58SAPC   H3S 4331   4.432   1.147   2.852 -0.7248  2.5839  1.3225
   58SAPC   C24 4332   4.552   0.971   2.863 -0.0488  0.1091 -0.5723
   58SAPC   H4R 4333   4.619   0.997   2.779  1.1871  0.4541  0.4902
   58SAPC   H4S 4334   4.472   0.910   2.815 -1.6722  0.6778  1.2383
   58SAPC   C25 4335   4.629   0.885   2.962 -0.0282  1.1059 -0.8543
   58SAPC   H5R 4336   4.573   0.823   3.033  2.2528 -2.6137 -2.0688
   58SAPC   C26 4337   4.760   0.877   2.971  0.1329  0.6299 -0.1454
   58SAPC   H6R 4338   4.781   0.804   3.050 -0.0677  0.6345 -0.0876
   58SAPC   C27 4339   4.866   0.953   2.891  0.0139  0.5530  0.1950
   58SAPC   H7R 4340   4.885   1.043   2.952  0.0826  0.6127  0.0849
   58SAPC   H7S 4341   4.839   0.995   2.792  1.5589  2.8643  0.6752
   58SAPC   C28 4342   4.989   0.868   2.884  0.6991  0.7526  0.2452
   58SAPC   H8R 4343   5.005   0.823   2.785  0.4066  0.9724  0.0967
   58SAPC   C29 4344   5.084   0.847   2.982  0.9593  0.5058  0.0263
   58SAPC   H9R 4345   5.161   0.773   2.956 -1.2877 -2.0699  0.1402
   58SAPC  C210 4346   5.082   0.887   3.128  0.0769 -0.2698 -0.2341
   58SAPC  H10R 4347   4.975   0.901   3.152 -0.4986 -0.1628 -2.6349
   58SAPC  H10S 4348   5.136   0.982   3.149 -2.8486  0.6758  4.3301
   58SAPC  C211 4349   5.137   0.777   3.209 -0.0152 -0.0971 -0.3224
   58SAPC  H11R 4350   5.092   0.678   3.192  1.6545 -1.0524  0.5368
   58SAPC  C212 4351   5.242   0.776   3.302  0.5446 -0.4859  0.8637
   58SAPC  H12R 4352   5.282   0.688   3.354  2.9365  0.5851  0.9734
   58SAPC  C213 4353   5.317   0.899   3.351  0.7962 -0.0800  0.0562
   58SAPC  H13R 4354   5.386   0.867   3.432  0.1549 -0.7790  0.3419
   58SAPC  H13S 4355   5.237   0.959   3.399 -0.1404  0.1083 -1.6482
   58SAPC  C214 4356   5.391   0.985   3.249 -0.0102  0.8979 -0.0015
   58SAPC  H14R 4357   5.330   1.022   3.165 -1.7453  0.4796  1.0186
   58SAPC  C215 4358   5.515   1.019   3.272  0.2921 -0.0582 -0.0538
   58SAPC  H15R 4359   5.564   1.086   3.200  0.7491 -0.7911 -0.4420
   58SAPC  C216 4360   5.606   0.981   3.389 -0.0342  0.8718  0.2993
   58SAPC  H16R 4361   5.555   0.973   3.487  0.3374 -0.7222  0.3846
   58SAPC  H16S 4362   5.670   1.072   3.394 -1.1375  1.7137 -0.2550
   58SAPC  C217 4363   5.705   0.864   3.368 -0.2973 -0.4295 -0.0541
   58SAPC  H17R 4364   5.801   0.872   3.424 -0.3097  0.7618 -0.1746
   58SAPC  H17S 4365   5.736   0.850   3.262 -0.8747  0.0121 -0.2891
   58SAPC  C218 4366   5.653   0.729   3.415 -0.0571 -0.5520  0.2100
   58SAPC  H18R 4367   5.555   0.715   3.365  1.0605 -2.0722 -1.7180
   58SAPC  H18S 4368   5.648   0.738   3.526  0.9246  0.1615  0.2095
   58SAPC  C219 4369   5.739   0.613   3.385  0.5700  0.2170 -0.2371
   58SAPC  H19R 4370   5.835   0.641   3.432  0.4470 -0.1379  0.2396
   58SAPC  H19S 4371   5.754   0.589   3.277  0.0857 -0.2985 -0.1955
   58SAPC  C220 4372   5.686   0.484   3.448  0.4423  0.0189 -0.3504
   58SAPC  H20R 4373   5.690   0.488   3.559  2.2913 -1.7066 -0.2929
   58SAPC  H20S 4374   5.738   0.400   3.396 -0.1277  1.3539 -3.2425
   58SAPC  H20T 4375   5.578   0.477   3.425  0.0824 -2.3550  1.5880
   58SAPC   C33 4376   4.502   1.012   3.554  0.0800 -0.9567  0.6680
   58SAPC   H3X 4377   4.445   0.917   3.565  0.7838 -1.7871 -2.0385
   58SAPC   H3Y 4378   4.583   1.019   3.629 -0.1196  0.3200  0.7931
   58SAPC   C34 4379   4.564   1.024   3.415 -0.3199 -0.1621 -0.2492
   58SAPC   H4X 4380   4.491   1.007   3.333 -0.1571 -0.3009 -0.3663
   58SAPC   H4Y 4381   4.644   0.949   3.401 -2.3659 -2.0345 -3.1410
   58SAPC   C35 4382   4.628   1.166   3.388  0.0020  0.4381 -0.1689
   58SAPC   H5X 4383   4.706   1.190   3.463  2.3728 -3.7080 -0.9438
   58SAPC   H5Y 4384   4.559   1.252   3.393 -1.2803 -0.5987  1.0579
   58SAPC   C36 4385   4.699   1.161   3.257 -0.2875 -0.3759  0.4365
   58SAPC   H6X 4386   4.627   1.165   3.173  0.7248 -0.3194 -0.4568
   58SAPC   H6Y 4387   4.751   1.063   3.245  1.0498  0.5298 -2.0264
   58SAPC   C37 4388   4.788   1.280   3.233 -0.4087  0.1350 -0.3697
   58SAPC   H7X 4389   4.849   1.310   3.321 -0.0688  1.8523 -1.1495
   58SAPC   H7Y 4390   4.725   1.369   3.209 -1.8874  0.2333  3.2016
   58SAPC   C38 4391   4.881   1.251   3.117  0.5147 -0.0358  0.1523
   58SAPC   H8X 4392   4.817   1.231   3.028  0.9631 -0.7555 -0.0144
   58SAPC   H8Y 4393   4.939   1.159   3.142  0.5977 -0.1845 -0.5578
   58SAPC   C39 4394   4.976   1.364   3.082 -0.4388  0.6462  0.0710
   58SAPC   H9X 4395   5.041   1.393   3.167  0.9782 -1.3309 -0.2657
   58SAPC   H9Y 4396   4.921   1.454   3.048  1.1000  2.3130  1.7827
   58SAPC  C310 4397   5.070   1.313   2.969  0.3451  0.1377 -0.3287
   58SAPC  H10X 4398   5.016   1.320   2.873  3.4440 -0.3308 -2.2666
   58SAPC  H10Y 4399   5.089   1.206   2.994  1.3373  0.0934 -1.1777
   58SAPC  C311 4400   5.204   1.385   2.955 -0.9639  0.5983 -0.4499
   58SAPC  H11X 4401   5.253   1.391   3.055 -0.7366  1.6940 -0.6188
   58SAPC  H11Y 4402   5.192   1.491   2.924  1.2586  1.0072 -0.0584
   58SAPC  C312 4403   5.300   1.319   2.856  0.0904 -0.4328  0.8298
   58SAPC  H12X 4404   5.387   1.387   2.867  1.1302 -1.1906 -1.7465
   58SAPC  H12Y 4405   5.284   1.326   2.746  1.2304 -1.1784  0.5983
   58SAPC  C313 4406   5.342   1.174   2.886  0.2805 -0.2515 -0.2080
   58SAPC  H13X 4407   5.257   1.103   2.882  0.2455 -0.1400 -2.0422
   58SAPC  H13Y 4408   5.376   1.163   2.992  0.9000  0.0258 -0.3697
   58SAPC  C314 4409   5.461   1.122   2.803 -0.1830 -0.0033  0.0904
   58SAPC  H14X 4410   5.543   1.197   2.805 -0.8874  0.9390 -2.5849
   58SAPC  H14Y 4411   5.433   1.109   2.696 -0.7192  2.4144 -0.1134
   58SAPC  C315 4412   5.538   0.997   2.848  0.0193 -0.7735 -0.1849
   58SAPC  H15X 4413   5.591   1.008   2.945  0.3963  0.1370 -0.4800
   58SAPC  H15Y 4414   5.622   0.980   2.777 -0.6739 -1.3596 -0.8678
   58SAPC  C316 4415   5.443   0.881   2.865 -0.5480 -0.2199  0.0614
   58SAPC  H16X 4416   5.378   0.860   2.777 -1.1122 -0.9205  0.6293
   58SAPC  H16Y 4417   5.369   0.911   2.943  1.3375  1.7239  1.2133
   58SAPC  C317 4418   5.509   0.756   2.931 -0.2854  0.4303  0.2129
   58SAPC  H17X 4419   5.560   0.781   3.026 -0.8545  0.5853  0.4823
   58SAPC  H17Y 4420   5.587   0.722   2.860 -1.4341 -0.0655 -0.8673
   58SAPC  C318 4421   5.403   0.646   2.955 -0.1852  0.5770 -0.1159
   58SAPC  H18X 4422   5.349   0.618   2.862 -0.4045 -0.7275  0.3798
   58SAPC  H18Y 4423   5.334   0.679   3.035  1.0185  0.3946  1.0409
   58SAPC  H18Z 4424   5.450   0.549   2.982  1.3825  1.6816  1.3919
   59SAPC     N 4425   1.572   0.939  10.559  0.3251  0.1359  0.5601
   59SAPC   C12 4426   1.490   0.986  10.680  0.4671 -0.6363  0.6626
   59SAPC  H12A 4427   1.472   1.091  10.667  0.5652 -0.4990  1.5725
   59SAPC  H12B 4428   1.555   0.979  10.766  0.5738 -4.9240  0.4475
   59SAPC   C13 4429   1.492   0.919  10.432 -0.5935  0.4515  0.4251
   59SAPC  H13A 4430   1.546   0.862  10.358 -2.6991 -0.1239 -0.7580
   59SAPC  H13B 4431   1.394   0.878  10.454 -1.5463 -0.1348 -4.0153
   59SAPC  H13C 4432   1.465   1.010  10.381 -0.0765 -1.3018 -3.2995
   59SAPC   C14 4433   1.686   1.030  10.541  0.4861 -0.4500  0.0491
   59SAPC  H14A 4434   1.745   1.049  10.630 -0.9442  2.9781  0.4414
   59SAPC  H14B 4435   1.757   0.994  10.469  1.7225  1.0955  0.4346
   59SAPC  H14C 4436   1.654   1.127  10.506  0.7222 -0.4041 -0.0388
   59SAPC   C15 4437   1.622   0.802  10.604 -0.0859 -0.3939  0.0599
   59SAPC  H15A 4438   1.688   0.760  10.530 -0.4949 -0.9742  0.0160
   59SAPC  H15B 4439   1.675   0.821  10.697 -1.6228  0.6353  0.7728
   59SAPC  H15C 4440   1.540   0.732  10.606  0.0684 -0.5735  0.1529
   59SAPC   C11 4441   1.348   0.917  10.715 -0.1059  0.0378 -0.3824
   59SAPC  H11A 4442   1.297   0.983  10.788  0.4884 -0.8891  0.9144
   59SAPC  H11B 4443   1.363   0.823  10.772  0.7503  1.1122  1.2458
   59SAPC     P 4444   1.136   0.807  10.605  0.2741  0.2416 -0.3005
   59SAPC   O13 4445   1.171   0.667  10.615 -0.1836 -0.3769 -0.0476
   59SAPC   O14 4446   1.043   0.856  10.710 -0.6344  0.6395 -1.1262
   59SAPC   O12 4447   1.262   0.912  10.599 -0.3048 -0.1200  0.3029
   59SAPC   O11 4448   1.070   0.832  10.458  0.2246 -0.1883  0.5395
   59SAPC    C1 4449   1.141   0.797  10.343  0.3736  0.2373  0.5409
   59SAPC    HA 4450   1.251   0.813  10.343  0.5160  0.4798 -3.7609
   59SAPC    HB 4451   1.128   0.688  10.328 -0.4817  0.2305  1.2802
   59SAPC    C2 4452   1.092   0.857  10.209  0.5818  0.4044  0.8635
   59SAPC    HS 4453   1.136   0.795  10.128  2.3995 -0.4307  2.4177
   59SAPC   O21 4454   1.140   0.993  10.195 -0.8907  0.2643 -0.0022
   59SAPC   C21 4455   1.243   1.005  10.106  0.6641 -0.0233 -0.6010
   59SAPC   O22 4456   1.322   0.914  10.069  0.5389 -0.4275 -0.3639
   59SAPC   C22 4457   1.255   1.149  10.064  0.6359  0.3945 -0.3287
   59SAPC   H2R 4458   1.224   1.212  10.150  0.7263  1.2243 -0.8938
   59SAPC   H2S 4459   1.365   1.167  10.060  0.8901 -0.9204  0.2157
   59SAPC    C3 4460   0.939   0.837  10.180 -0.5719  0.3473  0.0489
   59SAPC    HX 4461   0.883   0.899  10.253 -0.9051  0.5532 -0.3768
   59SAPC    HY 4462   0.914   0.731  10.203  0.1074  0.2187  0.2054
   59SAPC   O31 4463   0.909   0.856  10.033  0.2675 -0.5268 -0.3270
   59SAPC   C31 4464   0.841   0.965  10.003  0.3190 -0.6490 -0.0248
   59SAPC   O32 4465   0.823   1.056  10.085 -0.2026  0.0882  0.3513
   59SAPC   C32 4466   0.818   0.976   9.854 -0.1331  0.6094  0.1782
   59SAPC   H2X 4467   0.741   1.052   9.829 -2.2431 -1.4014  0.2135
   59SAPC   H2Y 4468   0.758   0.886   9.829 -1.2564  1.3176  0.2718
   59SAPC   C23 4469   1.184   1.188   9.934 -0.4765  0.1557  0.1043
   59SAPC   H3R 4470   1.075   1.180   9.954 -0.8835  0.3227 -1.8612
   59SAPC   H3S 4471   1.200   1.119   9.848 -0.6174  0.0783  0.1399
   59SAPC   C24 4472   1.209   1.335   9.899  0.5227 -0.0935 -0.4338
   59SAPC   H4R 4473   1.173   1.408   9.975 -1.3686 -2.5808  1.1855
   59SAPC   H4S 4474   1.140   1.357   9.814 -0.3438  0.6021  0.4219
   59SAPC   C25 4475   1.354   1.361   9.855  0.0159  0.2445 -0.5821
   59SAPC   H5R 4476   1.421   1.359   9.943  0.3759  0.7734 -0.8403
   59SAPC   C26 4477   1.404   1.376   9.738 -0.4896 -0.6198  1.5536
   59SAPC   H6R 4478   1.508   1.409   9.732  0.0590 -1.6165  4.2707
   59SAPC   C27 4479   1.343   1.378   9.599 -0.1982 -0.5719 -0.7283
   59SAPC   H7R 4480   1.235   1.400   9.611 -0.0615 -0.4987  0.5010
   59SAPC   H7S 4481   1.353   1.274   9.561 -0.1051 -0.7656 -0.1895
   59SAPC   C28 4482   1.412   1.485   9.523  0.6123  0.1670  0.4625
   59SAPC   H8R 4483   1.429   1.582   9.571 -0.8292 -0.5730  2.6566
   59SAPC   C29 4484   1.448   1.470   9.392 -0.1919 -0.1789 -0.7958
   59SAPC   H9R 4485   1.500   1.550   9.337 -0.8449  1.3565  0.7436
   59SAPC  C210 4486   1.429   1.347   9.315 -0.2860  0.5607 -0.0317
   59SAPC  H10R 4487   1.440   1.258   9.382  0.0415  0.3932 -0.3055
   59SAPC  H10S 4488   1.519   1.342   9.249 -0.5826 -0.1448 -0.3942
   59SAPC  C211 4489   1.304   1.333   9.240  0.7863  0.2153 -0.2623
   59SAPC  H11R 4490   1.209   1.332   9.295  1.5272  3.3353  1.2420
   59SAPC  C212 4491   1.294   1.339   9.109  0.5353  0.1741 -0.0801
   59SAPC  H12R 4492   1.192   1.334   9.067 -0.1090 -1.1189  1.5151
   59SAPC  C213 4493   1.403   1.351   9.003  0.3659  0.0472 -0.6206
   59SAPC  H13R 4494   1.501   1.379   9.049 -0.0684 -1.4493  1.3453
   59SAPC  H13S 4495   1.385   1.435   8.932 -0.7941  0.8592  0.6012
   59SAPC  C214 4496   1.429   1.227   8.925  0.0730 -0.4366 -0.0249
   59SAPC  H14R 4497   1.511   1.157   8.946  1.9818  0.3820 -3.7591
   59SAPC  C215 4498   1.362   1.210   8.805 -0.2190 -0.0048 -0.1069
   59SAPC  H15R 4499   1.388   1.119   8.749 -4.7225 -1.3916 -0.3180
   59SAPC  C216 4500   1.264   1.302   8.730 -0.3193  0.1919  0.3980
   59SAPC  H16R 4501   1.313   1.397   8.701 -1.6937  0.9916  0.6417
   59SAPC  H16S 4502   1.165   1.322   8.775 -0.9691 -0.2400 -0.8135
   59SAPC  C217 4503   1.246   1.232   8.588 -0.7433 -0.5875 -0.3877
   59SAPC  H17R 4504   1.345   1.212   8.541  1.5462  0.7681  3.3616
   59SAPC  H17S 4505   1.198   1.307   8.522  1.7070 -0.3698 -2.0628
   59SAPC  C218 4506   1.176   1.096   8.588 -0.2364 -0.0417  0.2823
   59SAPC  H18R 4507   1.068   1.120   8.599 -0.4072 -0.2284 -0.9250
   59SAPC  H18S 4508   1.223   1.043   8.674  1.8458  1.4645  0.1310
   59SAPC  C219 4509   1.183   1.004   8.463 -0.3979  1.1290 -0.5008
   59SAPC  H19R 4510   1.285   0.962   8.451 -0.9107  0.3677 -2.6576
   59SAPC  H19S 4511   1.155   1.058   8.370 -1.4370 -1.3594 -1.7157
   59SAPC  C220 4512   1.081   0.894   8.464 -1.0071 -0.0274  0.0130
   59SAPC  H20R 4513   1.082   0.832   8.372 -0.3681  0.1561 -0.1120
   59SAPC  H20S 4514   0.979   0.929   8.492 -1.1910 -1.8255  1.8980
   59SAPC  H20T 4515   1.112   0.833   8.552 -1.6650  0.6359  0.7146
   59SAPC   C33 4516   0.943   0.976   9.761 -0.0822 -0.0591  0.2323
   59SAPC   H3X 4517   1.038   0.938   9.803  0.2436 -0.1922 -0.6152
   59SAPC   H3Y 4518   0.964   1.083   9.741  0.7125  0.0343  1.5035
   59SAPC   C34 4519   0.895   0.924   9.630  0.0227  0.0015  0.1131
   59SAPC   H4X 4520   0.815   0.986   9.584 -2.2704 -2.6999  0.2221
   59SAPC   H4Y 4521   0.857   0.821   9.641 -2.5374  0.8764  0.1185
   59SAPC   C35 4522   1.013   0.907   9.528 -0.1499  0.3491 -0.2479
   59SAPC   H5X 4523   0.963   0.873   9.435  0.2539 -0.7285 -0.0796
   59SAPC   H5Y 4524   1.082   0.826   9.559  1.8296  1.1150 -2.3884
   59SAPC   C36 4525   1.090   1.028   9.485 -0.0842  0.1970  0.6914
   59SAPC   H6X 4526   1.119   1.089   9.573  0.4674  0.3398  0.4143
   59SAPC   H6Y 4527   1.020   1.101   9.438 -0.5620 -1.2235 -0.9122
   59SAPC   C37 4528   1.200   0.989   9.390 -0.6585 -0.0035  1.0997
   59SAPC   H7X 4529   1.288   0.936   9.431  0.6542 -0.9365 -2.5110
   59SAPC   H7Y 4530   1.238   1.079   9.338  3.2229 -1.7403  0.6002
   59SAPC   C38 4531   1.159   0.898   9.261 -0.6470  0.3658  0.4520
   59SAPC   H8X 4532   1.064   0.941   9.221  1.2590  2.1635 -2.5803
   59SAPC   H8Y 4533   1.147   0.793   9.293  2.9116 -0.6943 -1.2248
   59SAPC   C39 4534   1.261   0.915   9.152  0.4249  0.3737  0.3317
   59SAPC   H9X 4535   1.360   0.873   9.180  0.7229  0.8435 -0.0026
   59SAPC   H9Y 4536   1.266   1.019   9.112 -1.6012 -0.3355 -2.0196
   59SAPC  C310 4537   1.214   0.826   9.037  0.3087 -0.4330 -0.4510
   59SAPC  H10X 4538   1.104   0.837   9.025  0.3783 -1.1469 -2.0802
   59SAPC  H10Y 4539   1.219   0.725   9.082  1.1426 -0.0960  0.2195
   59SAPC  C311 4540   1.286   0.840   8.903  0.2847  0.4792 -0.1872
   59SAPC  H11X 4541   1.386   0.803   8.933 -1.4465 -3.0797  1.8597
   59SAPC  H11Y 4542   1.283   0.946   8.870  2.0847  0.2575 -1.1509
   59SAPC  C312 4543   1.233   0.750   8.796 -0.2703 -0.3309  0.3934
   59SAPC  H12X 4544   1.152   0.806   8.744 -0.2986 -0.6682  0.0630
   59SAPC  H12Y 4545   1.186   0.665   8.850 -0.2938  0.1855  1.2045
   59SAPC  C313 4546   1.336   0.695   8.704  0.4750  0.0157  0.1063
   59SAPC  H13X 4547   1.283   0.659   8.613  0.2882 -1.1290  0.6387
   59SAPC  H13Y 4548   1.393   0.608   8.743  0.5608  1.3050  3.1079
   59SAPC  C314 4549   1.446   0.793   8.650 -1.0986  0.3965  0.2894
   59SAPC  H14X 4550   1.497   0.828   8.742 -0.6706 -3.8180  1.8755
   59SAPC  H14Y 4551   1.394   0.873   8.591  0.9852 -0.4397 -2.9485
   59SAPC  C315 4552   1.540   0.719   8.552 -0.4166  0.6842 -1.2630
   59SAPC  H15X 4553   1.483   0.640   8.500  0.1350 -0.6716  0.1182
   59SAPC  H15Y 4554   1.613   0.653   8.603 -1.3557  0.6030  0.0205
   59SAPC  C316 4555   1.618   0.805   8.454  0.1366 -0.3606 -0.7420
   59SAPC  H16X 4556   1.666   0.886   8.512  0.4282 -1.1332  0.1204
   59SAPC  H16Y 4557   1.546   0.845   8.379 -0.1581 -0.4479 -0.5047
   59SAPC  C317 4558   1.724   0.728   8.382  0.0894 -0.5885 -0.7614
   59SAPC  H17X 4559   1.681   0.630   8.354 -1.0434 -0.1600 -0.5956
   59SAPC  H17Y 4560   1.805   0.710   8.456 -1.4671 -0.0827  1.1635
   59SAPC  C318 4561   1.781   0.802   8.261  0.4053 -0.4667  0.2397
   59SAPC  H18X 4562   1.701   0.842   8.196  1.1535  1.7541  0.6018
   59SAPC  H18Y 4563   1.843   0.730   8.203 -0.0294 -0.8600  0.2548
   59SAPC  H18Z 4564   1.833   0.895   8.292 -0.3275  0.1219 -0.2826
   60SAPC     N 4565   4.405   1.109  11.420 -0.2519  0.0869 -0.3664
   60SAPC   C12 4566   4.357   1.064  11.279  0.4394 -0.0185  0.1964
   60SAPC  H12A 4567   4.327   0.960  11.279 -0.2372  0.1679  1.0272
   60SAPC  H12B 4568   4.445   1.068  11.216  2.2158  2.2337  2.6236
   60SAPC   C13 4569   4.442   1.247  11.406  0.1020 -0.3056  0.3460
   60SAPC  H13A 4570   4.518   1.271  11.333 -0.5165  0.4375 -0.0720
   60SAPC  H13B 4571   4.358   1.309  11.380 -0.2683 -1.5696 -1.6619
   60SAPC  H13C 4572   4.479   1.293  11.496  0.4092  0.6179 -0.2418
   60SAPC   C14 4573   4.294   1.102  11.521 -0.2033  0.0922 -0.0514
   60SAPC  H14A 4574   4.202   1.150  11.489 -0.6650  0.1616  1.3402
   60SAPC  H14B 4575   4.273   0.999  11.547 -0.6465  0.2869  0.3713
   60SAPC  H14C 4576   4.312   1.149  11.616  0.4029 -0.1397 -0.0466
   60SAPC   C15 4577   4.518   1.026  11.480  0.3110  0.2893  0.8475
   60SAPC  H15A 4578   4.607   1.022  11.418  0.1177 -0.3713  0.5973
   60SAPC  H15B 4579   4.534   1.066  11.579  1.4149  1.5225  0.2015
   60SAPC  H15C 4580   4.495   0.920  11.483  0.0566  0.2199 -1.3865
   60SAPC   C11 4581   4.238   1.147  11.212 -0.3571  0.7610 -0.0923
   60SAPC  H11A 4582   4.210   1.102  11.114 -1.2640 -2.3382  1.4566
   60SAPC  H11B 4583   4.275   1.252  11.207 -0.4271  0.8112  0.3782
   60SAPC     P 4584   4.028   1.016  11.286  0.2575  0.3123 -0.3414
   60SAPC   O13 4585   4.108   0.895  11.316 -0.3351  0.3953  0.1122
   60SAPC   O14 4586   3.914   1.046  11.369 -0.4403 -0.5880  0.2316
   60SAPC   O12 4587   4.123   1.145  11.296  0.1716 -0.8766 -0.3197
   60SAPC   O11 4588   3.980   1.014  11.138  0.3066  0.3203 -0.1737
   60SAPC    C1 4589   3.893   1.119  11.088 -0.1664 -0.1635 -0.1739
   60SAPC    HA 4590   3.787   1.092  11.104  0.0210  0.3046  2.1017
   60SAPC    HB 4591   3.903   1.215  11.143  0.2447 -0.7359  0.7694
   60SAPC    C2 4592   3.929   1.134  10.936 -0.0974  0.3855 -0.0387
   60SAPC    HS 4593   3.894   1.048  10.874 -0.3614  2.3044 -2.6867
   60SAPC   O21 4594   4.074   1.145  10.910 -0.1952 -0.1502  0.0410
   60SAPC   C21 4595   4.119   1.095  10.796 -0.7690 -0.1613 -0.4529
   60SAPC   O22 4596   4.047   1.050  10.709 -0.0071 -0.4914  0.0385
   60SAPC   C22 4597   4.269   1.103  10.793  0.1264 -0.1704 -0.2490
   60SAPC   H2R 4598   4.293   1.212  10.789 -2.5869  0.4720 -1.6424
   60SAPC   H2S 4599   4.313   1.056  10.884 -0.0641  0.1676  0.0233
   60SAPC    C3 4600   3.869   1.269  10.873  1.1492 -0.5732 -0.6483
   60SAPC    HX 4601   3.935   1.346  10.919 -0.6924  0.4328  0.3903
   60SAPC    HY 4602   3.768   1.292  10.913  1.2446  1.0444 -1.2608
   60SAPC   O31 4603   3.875   1.274  10.728  0.0876  0.0131  0.9791
   60SAPC   C31 4604   3.774   1.202  10.676  0.8549 -0.4200  0.1140
   60SAPC   O32 4605   3.699   1.132  10.732  0.0598 -0.0671  0.7305
   60SAPC   C32 4606   3.774   1.239  10.525  0.0177 -0.0852 -0.6351
   60SAPC   H2X 4607   3.872   1.281  10.493 -0.1558 -1.8959 -4.0215
   60SAPC   H2Y 4608   3.694   1.315  10.508  0.1131  0.7638  2.1984
   60SAPC   C23 4609   4.327   1.018  10.680 -0.2382  0.2334  0.1739
   60SAPC   H3R 4610   4.276   0.919  10.682  0.0294  0.0865 -0.2118
   60SAPC   H3S 4611   4.435   0.998  10.690 -0.0932  0.1852 -1.3789
   60SAPC   C24 4612   4.310   1.075  10.541 -0.8262 -0.0455  0.7720
   60SAPC   H4R 4613   4.212   1.048  10.497  0.1253 -0.3239 -1.3240
   60SAPC   H4S 4614   4.379   1.014  10.479 -2.2788  0.0033 -0.9722
   60SAPC   C25 4615   4.353   1.219  10.539 -0.5679 -0.2307 -0.1815
   60SAPC   H5R 4616   4.459   1.243  10.555 -0.5285  0.7306 -1.6856
   60SAPC   C26 4617   4.273   1.327  10.534  0.4576 -0.1619 -0.0624
   60SAPC   H6R 4618   4.316   1.428  10.535  1.0537 -0.4093 -0.2789
   60SAPC   C27 4619   4.127   1.338  10.500 -1.0941 -0.1229 -0.5434
   60SAPC   H7R 4620   4.072   1.352  10.595 -0.7685  0.4520 -0.4384
   60SAPC   H7S 4621   4.095   1.239  10.459  0.8667 -2.3638  2.8096
   60SAPC   C28 4622   4.100   1.451  10.399 -0.3966  0.4433 -0.2202
   60SAPC   H8R 4623   4.093   1.550  10.448  0.1165  0.3609  0.0252
   60SAPC   C29 4624   4.125   1.447  10.263 -0.2595  0.3278  0.1731
   60SAPC   H9R 4625   4.105   1.534  10.198  3.1583 -0.9252 -2.8409
   60SAPC  C210 4626   4.170   1.326  10.187  0.4692  0.4978 -0.0386
   60SAPC  H10R 4627   4.205   1.248  10.258  1.1450  1.0646  0.2574
   60SAPC  H10S 4628   4.255   1.365  10.128  1.1960 -1.0361 -0.0530
   60SAPC  C211 4629   4.056   1.276  10.093  0.2073 -0.1462  0.1096
   60SAPC  H11R 4630   4.005   1.187  10.134  0.9522 -0.7276 -0.2139
   60SAPC  C212 4631   4.035   1.305   9.960  0.3608 -0.8414  0.4131
   60SAPC  H12R 4632   3.949   1.252   9.917 -1.3474  0.0740  2.5241
   60SAPC  C213 4633   4.111   1.399   9.866  0.3854 -0.9507  0.3627
   60SAPC  H13R 4634   4.148   1.491   9.916 -0.1465 -0.0940 -0.7519
   60SAPC  H13S 4635   4.032   1.442   9.801 -0.5920 -2.3057  0.6132
   60SAPC  C214 4636   4.226   1.342   9.782 -0.4809  0.1693 -0.2735
   60SAPC  H14R 4637   4.306   1.294   9.840 -2.1219 -3.4145 -0.6585
   60SAPC  C215 4638   4.242   1.336   9.646 -0.9021  0.2944 -0.4607
   60SAPC  H15R 4639   4.343   1.319   9.606 -1.8618 -0.1474 -2.8480
   60SAPC  C216 4640   4.147   1.379   9.543  1.0486 -0.2132  0.5183
   60SAPC  H16R 4641   4.046   1.393   9.588  0.7037 -0.7973 -0.0408
   60SAPC  H16S 4642   4.140   1.301   9.464 -0.3186  0.8301 -0.4569
   60SAPC  C217 4643   4.181   1.514   9.473 -0.1830 -0.0148 -1.0027
   60SAPC  H17R 4644   4.258   1.502   9.394  0.1240  0.2732 -0.7484
   60SAPC  H17S 4645   4.203   1.588   9.552  2.4341  0.3031 -1.9182
   60SAPC  C218 4646   4.053   1.572   9.413 -0.0791  0.1398  0.0687
   60SAPC  H18R 4647   3.972   1.575   9.489  0.4775  0.0081  0.6805
   60SAPC  H18S 4648   4.025   1.495   9.338  2.2597 -0.0548 -0.6886
   60SAPC  C219 4649   4.066   1.711   9.339 -0.3196 -0.0360 -0.2636
   60SAPC  H19R 4650   4.100   1.699   9.234 -2.3753  0.4259 -1.0287
   60SAPC  H19S 4651   4.135   1.774   9.398 -1.0460  0.1266  0.4321
   60SAPC  C220 4652   3.936   1.785   9.331 -0.1772 -0.0026  0.1109
   60SAPC  H20R 4653   3.935   1.891   9.296 -1.5874 -0.2002 -0.5166
   60SAPC  H20S 4654   3.881   1.778   9.427  1.1978  1.6294  1.0599
   60SAPC  H20T 4655   3.878   1.731   9.252  0.5608 -0.0985 -0.3736
   60SAPC   C33 4656   3.732   1.127  10.428 -0.6290  0.6814  0.1841
   60SAPC   H3X 4657   3.706   1.174  10.331  0.4229  1.1255  0.1064
   60SAPC   H3Y 4658   3.640   1.071  10.453  0.6877 -0.7613  2.0608
   60SAPC   C34 4659   3.847   1.023  10.397 -0.3872  0.2273 -0.2110
   60SAPC   H4X 4660   3.851   0.971  10.495  1.3529 -1.2775 -1.0113
   60SAPC   H4Y 4661   3.944   1.076  10.380  0.0378  0.0419  1.4389
   60SAPC   C35 4662   3.803   0.924  10.296 -0.0128  0.4645 -0.0271
   60SAPC   H5X 4663   3.702   0.887  10.327  0.0466 -0.2751 -0.6749
   60SAPC   H5Y 4664   3.877   0.842  10.288 -0.4135  0.0509  0.4853
   60SAPC   C36 4665   3.795   0.971  10.157  0.4115  0.0355 -0.6098
   60SAPC   H6X 4666   3.894   1.006  10.120 -0.7906  1.7205 -2.4956
   60SAPC   H6Y 4667   3.726   1.058  10.147 -0.8126 -0.7262  0.8600
   60SAPC   C37 4668   3.739   0.872  10.055  0.4725 -0.0262  0.3017
   60SAPC   H7X 4669   3.631   0.855  10.071  0.4688 -1.0659 -0.6313
   60SAPC   H7Y 4670   3.799   0.780  10.076  1.9674  0.8811  0.1437
   60SAPC   C38 4671   3.766   0.916   9.912  0.4362 -0.3477 -0.0196
   60SAPC   H8X 4672   3.727   0.832   9.851  0.9611 -2.0472  1.8988
   60SAPC   H8Y 4673   3.875   0.913   9.893  0.3849  0.9313 -0.6149
   60SAPC   C39 4674   3.706   1.054   9.878 -0.2284  0.0657 -0.5133
   60SAPC   H9X 4675   3.755   1.137   9.934  0.7758 -0.3853 -0.7042
   60SAPC   H9Y 4676   3.599   1.040   9.905 -0.4954  0.7458 -1.2070
   60SAPC  C310 4677   3.712   1.101   9.735 -0.2475 -0.2805 -0.0942
   60SAPC  H10X 4678   3.612   1.105   9.685 -0.1932 -0.7698 -0.2492
   60SAPC  H10Y 4679   3.760   1.024   9.671  0.2169  1.0441 -1.3960
   60SAPC  C311 4680   3.770   1.244   9.709  0.1109 -0.5001  0.2524
   60SAPC  H11X 4681   3.881   1.239   9.722  0.2968  0.5167 -0.8290
   60SAPC  H11Y 4682   3.729   1.312   9.788 -1.4607 -2.1401  0.9009
   60SAPC  C312 4683   3.746   1.300   9.571  0.7833  0.0064 -0.0140
   60SAPC  H12X 4684   3.790   1.400   9.553 -1.1096  0.5436 -2.0739
   60SAPC  H12Y 4685   3.637   1.320   9.573  0.8046  0.8458 -2.7237
   60SAPC  C313 4686   3.784   1.211   9.452 -0.1798  0.3173  0.3637
   60SAPC  H13X 4687   3.737   1.111   9.466  0.3266 -0.2234 -1.4930
   60SAPC  H13Y 4688   3.894   1.201   9.467 -0.0633 -0.5490 -0.9346
   60SAPC  C314 4689   3.753   1.278   9.322 -0.1876 -0.4353 -0.0064
   60SAPC  H14X 4690   3.817   1.368   9.334 -0.9280  0.1224 -0.1490
   60SAPC  H14Y 4691   3.648   1.316   9.325 -1.2670 -3.0089 -1.4712
   60SAPC  C315 4692   3.795   1.199   9.196  0.8769  0.1250 -0.3766
   60SAPC  H15X 4693   3.735   1.106   9.194  1.6982 -0.4061 -1.0925
   60SAPC  H15Y 4694   3.902   1.169   9.189  0.4701 -1.3258 -0.7827
   60SAPC  C316 4695   3.754   1.277   9.071 -0.3028  0.3556  0.0757
   60SAPC  H16X 4696   3.645   1.297   9.075  0.0280  2.3613 -0.0466
   60SAPC  H16Y 4697   3.779   1.211   8.985 -0.9668 -1.3608  1.1367
   60SAPC  C317 4698   3.837   1.410   9.064  0.2365  0.7145 -0.0444
   60SAPC  H17X 4699   3.942   1.378   9.048  1.1016  1.9284  2.5745
   60SAPC  H17Y 4700   3.833   1.471   9.157  2.9570  2.3035 -0.8465
   60SAPC  C318 4701   3.787   1.494   8.946  0.9598  0.0568  0.0294
   60SAPC  H18X 4702   3.676   1.493   8.939  0.9995 -2.7244 -2.6434
   60SAPC  H18Y 4703   3.813   1.448   8.848  2.4583 -0.9850  0.8833
   60SAPC  H18Z 4704   3.815   1.601   8.955 -0.1576  0.3977 -0.3500
   61SAPC     N 4705   4.031   5.779  11.052  0.2288  0.3052  0.3906
   61SAPC   C12 4706   4.000   5.910  11.107  0.4405 -0.0891 -0.4168
   61SAPC  H12A 4707   3.992   5.906  11.215  0.5308 -2.1072 -0.4474
   61SAPC  H12B 4708   3.899   5.931  11.075  0.0166 -3.4132 -1.6326
   61SAPC   C13 4709   4.007   5.773  10.902  0.4927  0.3384  1.1109
   61SAPC  H13A 4710   3.906   5.806  10.879  1.1310 -0.2575 -3.4273
   61SAPC  H13B 4711   4.071   5.834  10.841 -1.4013 -0.4511 -1.9044
   61SAPC  H13C 4712   4.021   5.671  10.871  2.8071  0.5828  1.1917
   61SAPC   C14 4713   4.173   5.744  11.073 -0.5724  0.5038 -0.6438
   61SAPC  H14A 4714   4.223   5.829  11.028  1.9580  0.0419  1.0662
   61SAPC  H14B 4715   4.199   5.748  11.177 -0.5108  4.5897 -0.6614
   61SAPC  H14C 4716   4.200   5.651  11.024  1.4645  0.6843  0.0392
   61SAPC   C15 4717   3.953   5.671  11.122  0.1496 -0.2484 -0.0409
   61SAPC  H15A 4718   3.962   5.570  11.085  4.8231 -0.9101  2.1445
   61SAPC  H15B 4719   3.993   5.662  11.221  0.9113 -2.3081 -0.4891
   61SAPC  H15C 4720   3.851   5.701  11.141  0.1969 -1.1206  1.7067
   61SAPC   C11 4721   4.097   6.020  11.074  0.0647  0.2372 -0.1052
   61SAPC  H11A 4722   4.202   5.992  11.094 -0.6894 -3.3069 -0.4842
   61SAPC  H11B 4723   4.073   6.096  11.152  1.4696  1.0022 -0.3940
   61SAPC     P 4724   4.010   6.217  10.916  0.3608  0.0550  0.2413
   61SAPC   O13 4725   3.885   6.236  10.980  0.9352  0.3461 -0.4048
   61SAPC   O14 4726   4.119   6.309  10.935 -0.4696 -0.2745  0.1063
   61SAPC   O12 4727   4.067   6.072  10.941  0.0063 -0.0593  0.0662
   61SAPC   O11 4728   3.977   6.207  10.765 -0.4257 -0.9268 -0.3326
   61SAPC    C1 4729   3.883   6.109  10.721  0.0732 -0.6587  0.1708
   61SAPC    HA 4730   3.899   6.010  10.769  0.0819 -0.8574 -0.2367
   61SAPC    HB 4731   3.784   6.142  10.758 -0.1390 -0.2061 -0.7605
   61SAPC    C2 4732   3.883   6.102  10.566  0.1265  0.1637  0.3668
   61SAPC    HS 4733   3.813   6.017  10.548 -0.2019  0.4901  0.0981
   61SAPC   O21 4734   4.015   6.089  10.515  0.2371  0.1803  0.3680
   61SAPC   C21 4735   4.051   5.961  10.511 -0.2568 -0.0167  0.6553
   61SAPC   O22 4736   3.981   5.873  10.556  0.1190  0.7374  0.4971
   61SAPC   C22 4737   4.192   5.952  10.456 -0.6725 -0.2783  0.4593
   61SAPC   H2R 4738   4.210   6.003  10.359  0.6143  0.0547  0.8523
   61SAPC   H2S 4739   4.262   6.007  10.523  0.2678 -2.5545  1.4308
   61SAPC    C3 4740   3.813   6.231  10.508  0.3394  0.0489  0.2058
   61SAPC    HX 4741   3.866   6.321  10.546  1.8255 -1.0333  0.8406
   61SAPC    HY 4742   3.713   6.218  10.554  0.2226  2.0293  0.6068
   61SAPC   O31 4743   3.813   6.226  10.363 -0.0459 -0.6329  0.2774
   61SAPC   C31 4744   3.725   6.143  10.310 -0.6110  0.4194 -0.0469
   61SAPC   O32 4745   3.653   6.065  10.374 -0.0011  0.2036  0.1825
   61SAPC   C32 4746   3.736   6.150  10.154  0.2169 -0.3139 -0.4675
   61SAPC   H2X 4747   3.710   6.257  10.137  0.0721  0.2930  3.0092
   61SAPC   H2Y 4748   3.661   6.080  10.113 -0.9817  0.8831 -0.3764
   61SAPC   C23 4749   4.242   5.813  10.423  0.1412 -0.7166 -0.4764
   61SAPC   H3R 4750   4.178   5.794  10.334 -0.1669  0.5212 -0.5359
   61SAPC   H3S 4751   4.215   5.738  10.501  0.8818 -0.6161 -0.1186
   61SAPC   C24 4752   4.389   5.809  10.372 -0.4727  0.3642 -0.4340
   61SAPC   H4R 4753   4.454   5.811  10.462 -0.9335  0.2467 -0.0985
   61SAPC   H4S 4754   4.410   5.893  10.302 -1.4513  1.5223  0.6071
   61SAPC   C25 4755   4.401   5.666  10.313  0.2372 -0.6994 -0.5223
   61SAPC   H5R 4756   4.419   5.591  10.391 -1.6463 -0.8681 -0.1856
   61SAPC   C26 4757   4.390   5.640  10.179  0.2564 -0.0853 -0.4413
   61SAPC   H6R 4758   4.385   5.534  10.149  2.1024  0.1845 -1.8833
   61SAPC   C27 4759   4.367   5.734  10.064 -0.9445  0.3722  0.0504
   61SAPC   H7R 4760   4.437   5.819  10.077 -0.9462  0.3741  0.0491
   61SAPC   H7S 4761   4.260   5.760  10.064 -0.5662  2.1217  1.2310
   61SAPC   C28 4762   4.398   5.681   9.922 -0.3474  0.2464  0.0366
   61SAPC   H8R 4763   4.424   5.574   9.926 -2.1927 -0.2654 -0.7154
   61SAPC   C29 4764   4.422   5.744   9.805 -0.1345  0.4940 -0.7989
   61SAPC   H9R 4765   4.443   5.676   9.721 -0.9686 -2.1474  1.0034
   61SAPC  C210 4766   4.408   5.890   9.783 -0.5367  0.0363 -0.4712
   61SAPC  H10R 4767   4.403   5.940   9.882 -0.2278 -0.4948 -0.1820
   61SAPC  H10S 4768   4.307   5.907   9.740  0.8447  2.2215 -3.0962
   61SAPC  C211 4769   4.490   5.967   9.683 -0.0897  0.0992  0.2090
   61SAPC  H11R 4770   4.573   6.027   9.724  1.2810  0.8061 -3.2216
   61SAPC  C212 4771   4.493   5.955   9.550  1.0014 -0.6150 -0.4045
   61SAPC  H12R 4772   4.566   6.014   9.493  0.5223  0.5436  0.1501
   61SAPC  C213 4773   4.409   5.864   9.467  0.4565 -0.1594  0.4292
   61SAPC  H13R 4774   4.350   5.790   9.525  0.9165 -1.2852 -0.4910
   61SAPC  H13S 4775   4.471   5.802   9.398  1.2874  2.5774 -1.4222
   61SAPC  C214 4776   4.305   5.946   9.393  0.0194  0.1519 -0.3582
   61SAPC  H14R 4777   4.272   6.035   9.450  2.5115  1.6330 -1.0657
   61SAPC  C215 4778   4.265   5.932   9.272  1.0649 -0.2577  0.9344
   61SAPC  H15R 4779   4.198   6.005   9.225  1.2045 -0.6475  0.1054
   61SAPC  C216 4780   4.295   5.813   9.179 -0.2361 -0.6585 -0.0700
   61SAPC  H16R 4781   4.203   5.755   9.159 -0.5380  0.3232 -1.7612
   61SAPC  H16S 4782   4.371   5.742   9.219  1.3028  0.7044 -0.4716
   61SAPC  C217 4783   4.346   5.858   9.040 -0.0464  0.5856 -0.2361
   61SAPC  H17R 4784   4.442   5.909   9.062 -0.9508  0.8713  4.0068
   61SAPC  H17S 4785   4.270   5.927   8.996 -1.2467 -0.5741 -0.0609
   61SAPC  C218 4786   4.367   5.744   8.949 -0.1948  0.3015  0.0839
   61SAPC  H18R 4787   4.270   5.696   8.922  0.7968 -1.9208  0.2596
   61SAPC  H18S 4788   4.434   5.673   9.002  1.0541  2.5710  1.7575
   61SAPC  C219 4789   4.422   5.786   8.816 -0.4918  0.4998  0.0599
   61SAPC  H19R 4790   4.369   5.881   8.794 -2.5084 -0.0618  2.1414
   61SAPC  H19S 4791   4.395   5.708   8.741  0.6125 -2.4671  2.5071
   61SAPC  C220 4792   4.571   5.813   8.816 -0.6102 -0.2712 -0.1178
   61SAPC  H20R 4793   4.603   5.850   8.717 -3.2547  1.7046 -0.3445
   61SAPC  H20S 4794   4.627   5.725   8.854 -0.6809  1.0136  3.3013
   61SAPC  H20T 4795   4.599   5.890   8.891 -1.0295 -0.4780  0.2572
   61SAPC   C33 4796   3.877   6.126  10.099 -0.0940  0.4287 -0.8685
   61SAPC   H3X 4797   3.934   6.038  10.138 -2.6450 -0.2873  1.5784
   61SAPC   H3Y 4798   3.935   6.216  10.129  2.4971 -0.7994 -1.8433
   61SAPC   C34 4799   3.881   6.125   9.951  0.1505  0.1066  0.8046
   61SAPC   H4X 4800   3.800   6.193   9.918 -0.5228 -0.7762  0.6171
   61SAPC   H4Y 4801   3.854   6.026   9.910  1.0156 -0.5843  1.8504
   61SAPC   C35 4802   4.022   6.174   9.895 -0.1893 -0.3033  0.3632
   61SAPC   H5X 4803   4.093   6.110   9.952 -0.6992 -0.4195  0.8688
   61SAPC   H5Y 4804   4.042   6.278   9.929  2.4991 -1.4562  2.7125
   61SAPC   C36 4805   4.039   6.150   9.747  0.4373  0.2903 -0.3427
   61SAPC   H6X 4806   3.987   6.055   9.724 -0.8741 -0.2808  4.0239
   61SAPC   H6Y 4807   4.147   6.160   9.726  0.3657  0.4762 -0.6290
   61SAPC   C37 4808   3.970   6.268   9.670  0.0497  0.0460  0.9089
   61SAPC   H7X 4809   4.019   6.366   9.687 -2.7379  2.2924 -2.7164
   61SAPC   H7Y 4810   3.861   6.281   9.683 -0.2703 -1.2491 -0.1899
   61SAPC   C38 4811   3.983   6.248   9.519 -0.0166 -0.1136 -0.8084
   61SAPC   H8X 4812   4.093   6.244   9.501 -0.0237  1.3183 -1.3450
   61SAPC   H8Y 4813   3.953   6.340   9.463 -0.5514 -0.8316 -1.7171
   61SAPC   C39 4814   3.910   6.129   9.464  0.3313 -0.1046  0.2120
   61SAPC   H9X 4815   3.809   6.136   9.509  0.2685  0.2405  0.0236
   61SAPC   H9Y 4816   3.947   6.032   9.502  0.6644 -0.8703 -1.9079
   61SAPC  C310 4817   3.900   6.121   9.313 -0.3923 -0.6506  0.4803
   61SAPC  H10X 4818   4.000   6.148   9.273 -0.9363  3.2970  1.4590
   61SAPC  H10Y 4819   3.833   6.203   9.281  0.5757  0.3855  1.0200
   61SAPC  C311 4820   3.854   5.992   9.243  0.3604  0.5667  0.2435
   61SAPC  H11X 4821   3.761   5.955   9.291  0.1159 -0.7508 -1.1835
   61SAPC  H11Y 4822   3.930   5.914   9.262  0.4773  0.8846  1.1352
   61SAPC  C312 4823   3.822   6.012   9.092 -0.8225 -0.3886 -0.0503
   61SAPC  H12X 4824   3.781   6.114   9.075 -0.1208 -0.1537 -0.3466
   61SAPC  H12Y 4825   3.749   5.940   9.048  0.3203 -0.2006 -2.4034
   61SAPC  C313 4826   3.939   5.999   8.995 -0.3062 -0.2895 -0.3417
   61SAPC  H13X 4827   3.989   5.902   9.015 -0.4323  0.2199  2.8784
   61SAPC  H13Y 4828   4.009   6.084   9.010  0.8444 -1.1055 -0.9155
   61SAPC  C314 4829   3.881   6.007   8.853 -0.7819 -0.7752  0.9452
   61SAPC  H14X 4830   3.843   6.109   8.830  0.2415 -0.4054  0.7967
   61SAPC  H14Y 4831   3.805   5.929   8.835 -0.1104 -1.4737  1.0768
   61SAPC  C315 4832   3.986   5.984   8.737  0.2031 -0.4509 -0.2545
   61SAPC  H15X 4833   4.051   5.899   8.769  0.9908  0.5227  0.8232
   61SAPC  H15Y 4834   4.051   6.074   8.731 -2.0107  1.2526  0.3019
   61SAPC  C316 4835   3.921   5.923   8.618  0.3078  0.2630  1.3631
   61SAPC  H16X 4836   3.847   6.000   8.585  1.1130  1.5947  2.5444
   61SAPC  H16Y 4837   3.870   5.828   8.644 -3.9425  1.1358 -2.2934
   61SAPC  C317 4838   4.015   5.897   8.500 -0.2774 -0.2628 -0.1447
   61SAPC  H17X 4839   4.081   5.809   8.517  0.5072  0.0592 -1.4046
   61SAPC  H17Y 4840   4.070   5.993   8.495 -1.0874  0.2900  1.0521
   61SAPC  C318 4841   3.933   5.876   8.370 -0.1269 -0.4067  0.0604
   61SAPC  H18X 4842   3.987   5.828   8.286 -0.1085 -1.2253  0.5283
   61SAPC  H18Y 4843   3.877   5.969   8.343 -2.5826 -1.7651  0.1738
   61SAPC  H18Z 4844   3.841   5.814   8.376 -0.2677 -0.6775 -3.2191
   62SAPC     N 4845   3.821   3.494  10.721  0.5046 -0.5476 -0.1977
   62SAPC   C12 4846   3.859   3.455  10.860 -0.7488  0.3718 -0.4713
   62SAPC  H12A 4847   3.858   3.348  10.868 -0.2457  0.3201 -0.9795
   62SAPC  H12B 4848   3.789   3.492  10.934 -0.6950 -0.2242 -0.1163
   62SAPC   C13 4849   3.696   3.411  10.681 -0.7789 -0.1912  0.5558
   62SAPC  H13A 4850   3.716   3.307  10.662  0.7575  0.2590 -0.4640
   62SAPC  H13B 4851   3.624   3.404  10.761  0.5141 -1.1340  1.6729
   62SAPC  H13C 4852   3.636   3.459  10.605 -1.7156 -0.3523  1.1706
   62SAPC   C14 4853   3.774   3.635  10.709  0.3282 -0.1451  0.0912
   62SAPC  H14A 4854   3.745   3.666  10.610 -1.7347 -0.8373  0.4426
   62SAPC  H14B 4855   3.697   3.656  10.782 -1.6422  1.0107 -2.1930
   62SAPC  H14C 4856   3.851   3.700  10.749 -1.8003  0.8968  2.7738
   62SAPC   C15 4857   3.929   3.466  10.617  0.4535  0.1209  0.4352
   62SAPC  H15A 4858   3.952   3.363  10.591 -1.4462  0.2261 -2.0378
   62SAPC  H15B 4859   3.910   3.517  10.524  2.1761  0.5558  0.2873
   62SAPC  H15C 4860   4.021   3.512  10.650  0.7615 -0.4166  0.3403
   62SAPC   C11 4861   4.004   3.503  10.901  0.5936  0.2858 -0.1700
   62SAPC  H11A 4862   4.074   3.423  10.871 -1.6196 -1.2973 -1.4457
   62SAPC  H11B 4863   4.002   3.495  11.012 -0.8184 -2.4912 -0.2966
   62SAPC     P 4864   4.193   3.667  10.856  0.3846 -0.0630 -0.2883
   62SAPC   O13 4865   4.199   3.798  10.782 -0.3876  0.2303  0.0748
   62SAPC   O14 4866   4.266   3.662  10.985  0.3331 -0.6794  0.5157
   62SAPC   O12 4867   4.039   3.630  10.861  0.3087 -0.2755 -0.4398
   62SAPC   O11 4868   4.248   3.552  10.771  0.1738  0.2039 -0.1455
   62SAPC    C1 4869   4.366   3.583  10.691 -0.1955  0.2184  0.1086
   62SAPC    HA 4870   4.387   3.690  10.674 -1.7440  0.4822 -0.3532
   62SAPC    HB 4871   4.459   3.539  10.731  0.7022 -0.2040 -2.2805
   62SAPC    C2 4872   4.341   3.524  10.544  0.6131 -0.3475  0.6530
   62SAPC    HS 4873   4.432   3.532  10.481  0.2973  1.6192  0.3917
   62SAPC   O21 4874   4.226   3.589  10.480 -0.2964 -0.6041 -0.0866
   62SAPC   C21 4875   4.260   3.703  10.418 -0.1061  0.5041  0.2074
   62SAPC   O22 4876   4.378   3.745  10.417 -0.2193  0.3113  0.2983
   62SAPC   C22 4877   4.138   3.767  10.358  0.1216  0.3790 -0.7636
   62SAPC   H2R 4878   4.053   3.728  10.418  1.0461  0.9475  0.9931
   62SAPC   H2S 4879   4.142   3.878  10.367  2.5613  0.4122 -1.7013
   62SAPC    C3 4880   4.304   3.373  10.560  0.2957 -0.0569  0.1293
   62SAPC    HX 4881   4.210   3.364  10.618 -0.1800 -0.8099 -0.7138
   62SAPC    HY 4882   4.389   3.339  10.622  1.3168  0.1481 -1.1116
   62SAPC   O31 4883   4.300   3.306  10.432 -0.3344 -0.3831 -0.1188
   62SAPC   C31 4884   4.185   3.256  10.398 -0.0726 -0.8471  0.1367
   62SAPC   O32 4885   4.087   3.254  10.464 -0.3607 -0.0966 -0.2328
   62SAPC   C32 4886   4.198   3.227  10.251 -0.5110  0.2938  0.4716
   62SAPC   H2X 4887   4.274   3.147  10.249 -3.0917 -2.3362 -0.6296
   62SAPC   H2Y 4888   4.239   3.320  10.206 -1.9009  0.5223 -0.4047
   62SAPC   C23 4889   4.123   3.745  10.215 -0.0229 -0.2024 -0.5394
   62SAPC   H3R 4890   4.214   3.764  10.153  0.9627 -0.7022  0.6929
   62SAPC   H3S 4891   4.042   3.811  10.178  0.7996 -0.8516 -3.7929
   62SAPC   C24 4892   4.058   3.609  10.181 -0.5246  1.0494 -0.5517
   62SAPC   H4R 4893   4.112   3.530  10.237 -1.3558 -0.2804 -1.5549
   62SAPC   H4S 4894   4.065   3.594  10.071 -2.2696  0.2762 -0.5964
   62SAPC   C25 4895   3.913   3.587  10.224  0.0828  0.1664  0.1202
   62SAPC   H5R 4896   3.893   3.578  10.332 -0.8359 -0.2335 -0.0718
   62SAPC   C26 4897   3.807   3.558  10.144  0.0510  0.3985 -0.7034
   62SAPC   H6R 4898   3.709   3.537  10.190  0.3382  0.3988 -0.0778
   62SAPC   C27 4899   3.803   3.553   9.992 -0.2466  0.3005  0.3188
   62SAPC   H7R 4900   3.874   3.623   9.943  0.4838 -0.2981  0.5204
   62SAPC   H7S 4901   3.707   3.600   9.961 -0.9871 -0.9373  0.6765
   62SAPC   C28 4902   3.812   3.420   9.922  0.4300  0.0617  0.0327
   62SAPC   H8R 4903   3.746   3.344   9.967 -1.3047 -0.0450 -2.4611
   62SAPC   C29 4904   3.890   3.388   9.818 -0.4171  0.1824  0.0955
   62SAPC   H9R 4905   3.869   3.291   9.772  0.9358  0.0197 -0.2237
   62SAPC  C210 4906   3.982   3.492   9.751  0.0118  0.2151  0.5371
   62SAPC  H10R 4907   4.034   3.557   9.824 -1.3179  1.7621  0.1431
   62SAPC  H10S 4908   3.909   3.558   9.699 -1.8343 -1.5165  0.8048
   62SAPC  C211 4909   4.091   3.428   9.663 -0.6176  0.2969  0.3804
   62SAPC  H11R 4910   4.165   3.373   9.721 -0.1452  0.6283  0.1003
   62SAPC  C212 4911   4.112   3.446   9.534  0.3914 -0.4977  1.0925
   62SAPC  H12R 4912   4.191   3.389   9.482 -0.9548 -1.5036  0.0653
   62SAPC  C213 4913   4.020   3.517   9.437  0.2799  0.0778  0.2517
   62SAPC  H13R 4914   4.073   3.536   9.342  0.7400 -1.7805  0.1037
   62SAPC  H13S 4915   3.986   3.614   9.479  1.3931  0.9319 -0.7359
   62SAPC  C214 4916   3.903   3.441   9.383  0.4031 -0.0675  0.2467
   62SAPC  H14R 4917   3.860   3.374   9.459  1.9964 -1.1905  0.1944
   62SAPC  C215 4918   3.842   3.469   9.267 -0.6798 -0.5790  0.0003
   62SAPC  H15R 4919   3.747   3.418   9.243 -0.4273 -0.0864 -2.3747
   62SAPC  C216 4920   3.903   3.542   9.147 -0.2335  0.3745 -0.1601
   62SAPC  H16R 4921   4.008   3.574   9.159 -1.0530  3.5858 -0.6014
   62SAPC  H16S 4922   3.847   3.636   9.130 -1.5988 -0.5970 -1.2865
   62SAPC  C217 4923   3.886   3.460   9.016  0.5935  0.3160 -0.2459
   62SAPC  H17R 4924   3.777   3.441   9.009  0.7880 -1.7848  1.4738
   62SAPC  H17S 4925   3.935   3.361   9.011  1.0682  0.6063 -1.8305
   62SAPC  C218 4926   3.942   3.525   8.892 -0.0103  0.1409  0.5096
   62SAPC  H18R 4927   3.930   3.633   8.916 -1.6414 -0.1361  1.0835
   62SAPC  H18S 4928   3.868   3.506   8.811  1.5744  0.1762 -0.9924
   62SAPC  C219 4929   4.085   3.501   8.858  0.4909 -0.8842  0.1620
   62SAPC  H19R 4930   4.096   3.396   8.822  1.2458 -1.9667  3.1916
   62SAPC  H19S 4931   4.148   3.512   8.949 -0.6033  0.4527  0.7940
   62SAPC  C220 4932   4.152   3.588   8.751 -0.5118 -0.2098  0.7634
   62SAPC  H20R 4933   4.172   3.696   8.771  0.3682 -0.2314  0.0720
   62SAPC  H20S 4934   4.102   3.585   8.652  0.4630 -1.1368  0.2873
   62SAPC  H20T 4935   4.252   3.544   8.732  1.4150  2.8273  3.0130
   62SAPC   C33 4936   4.067   3.171  10.193 -0.0202 -0.6078  0.0910
   62SAPC   H3X 4937   3.987   3.248  10.202 -0.1839 -0.5263 -1.7538
   62SAPC   H3Y 4938   4.030   3.081  10.246 -3.2449  0.2061 -0.5298
   62SAPC   C34 4939   4.091   3.135  10.053  0.0749  0.4618 -0.3655
   62SAPC   H4X 4940   4.135   3.226  10.007 -1.9659  1.8136  0.2649
   62SAPC   H4Y 4941   4.000   3.112   9.994 -0.2378 -0.8479  0.5850
   62SAPC   C35 4942   4.197   3.019  10.020  0.4949  0.1909  0.0675
   62SAPC   H5X 4943   4.142   2.922  10.021 -0.6174  0.7922 -0.6764
   62SAPC   H5Y 4944   4.279   3.015  10.095  0.9738  1.9013 -0.3377
   62SAPC   C36 4945   4.258   3.041   9.874 -0.0954  0.2797 -0.7549
   62SAPC   H6X 4946   4.321   2.952   9.854  1.0644  0.8219  0.3222
   62SAPC   H6Y 4947   4.324   3.131   9.872 -0.8008  0.8034 -1.6242
   62SAPC   C37 4948   4.162   3.074   9.758 -0.0246  0.4481 -0.2461
   62SAPC   H7X 4949   4.099   3.161   9.787  1.0397  1.2233 -0.2215
   62SAPC   H7Y 4950   4.090   2.990   9.747 -0.1319  0.5806 -0.5936
   62SAPC   C38 4951   4.237   3.101   9.628 -0.4353 -0.2930  0.4895
   62SAPC   H8X 4952   4.305   3.188   9.646  0.9007  0.1521 -5.0359
   62SAPC   H8Y 4953   4.171   3.145   9.550  0.4087 -0.6170 -0.4328
   62SAPC   C39 4954   4.305   2.969   9.568  0.5135 -0.3443 -0.2034
   62SAPC   H9X 4955   4.241   2.878   9.561 -0.5916  0.2415  1.7047
   62SAPC   H9Y 4956   4.390   2.928   9.626 -1.8185 -2.4301  1.9547
   62SAPC  C310 4957   4.339   3.000   9.422  0.5396  0.4512 -0.3615
   62SAPC  H10X 4958   4.417   3.079   9.416  1.2922 -0.1703  0.7227
   62SAPC  H10Y 4959   4.245   3.024   9.368  1.1100 -1.3473 -2.2983
   62SAPC  C311 4960   4.416   2.884   9.364 -0.0020 -0.1740  0.5914
   62SAPC  H11X 4961   4.364   2.786   9.362 -1.6728  0.6674 -1.6783
   62SAPC  H11Y 4962   4.506   2.867   9.427  0.6574 -0.3968 -0.3813
   62SAPC  C312 4963   4.459   2.910   9.214  0.6148  0.4818 -0.1246
   62SAPC  H12X 4964   4.542   2.984   9.209  0.1263  0.9285 -2.5724
   62SAPC  H12Y 4965   4.370   2.947   9.159  0.2990  0.7995  0.5827
   62SAPC  C313 4966   4.495   2.780   9.135 -0.4722  0.0692 -0.1737
   62SAPC  H13X 4967   4.483   2.809   9.028 -1.3791 -0.4277 -0.2118
   62SAPC  H13Y 4968   4.419   2.702   9.158 -0.8614  0.0194 -1.5475
   62SAPC  C314 4969   4.640   2.743   9.151 -1.3731  0.5559 -0.3728
   62SAPC  H14X 4970   4.682   2.739   9.254  1.6337 -1.5937 -1.5359
   62SAPC  H14Y 4971   4.709   2.819   9.108  2.6782 -2.2388  0.6206
   62SAPC  C315 4972   4.674   2.607   9.098 -0.2248  0.3028 -0.2088
   62SAPC  H15X 4973   4.785   2.609   9.093 -0.1255 -1.0538  0.9679
   62SAPC  H15Y 4974   4.641   2.600   8.992  0.7513 -2.0721 -0.4112
   62SAPC  C316 4975   4.615   2.484   9.168  0.4845  0.4681  0.4870
   62SAPC  H16X 4976   4.506   2.484   9.145  0.5164  1.4941  0.2942
   62SAPC  H16Y 4977   4.627   2.500   9.277  1.6784  0.9097  0.2968
   62SAPC  C317 4978   4.688   2.348   9.132  0.1180  0.0179 -0.6085
   62SAPC  H17X 4979   4.658   2.267   9.202  0.1231  0.4101 -0.1538
   62SAPC  H17Y 4980   4.795   2.356   9.159 -0.2819 -0.8437  1.3743
   62SAPC  C318 4981   4.658   2.307   8.985 -0.1759  0.1029  0.2785
   62SAPC  H18X 4982   4.684   2.205   8.951 -1.1422 -0.2558  0.5759
   62SAPC  H18Y 4983   4.703   2.379   8.913 -0.9063 -0.1693 -0.4675
   62SAPC  H18Z 4984   4.548   2.314   8.968 -0.1073 -1.0634 -0.7755
   63SAPC     N 4985   4.114   5.695   5.888 -0.6453  0.0706  0.2340
   63SAPC   C12 4986   4.090   5.799   5.997  0.4464 -0.0255 -0.2734
   63SAPC  H12A 4987   4.000   5.858   5.989  1.0743  1.0464  0.2177
   63SAPC  H12B 4988   4.169   5.873   5.991 -0.9917  1.7763  1.5223
   63SAPC   C13 4989   4.009   5.595   5.872  1.0686  0.3658 -0.0803
   63SAPC  H13A 4990   4.006   5.532   5.960 -1.2675  0.6728  0.1145
   63SAPC  H13B 4991   3.914   5.646   5.873  1.8524  1.8955  1.3689
   63SAPC  H13C 4992   4.012   5.533   5.784 -2.8089 -1.3812  0.8095
   63SAPC   C14 4993   4.101   5.775   5.763  0.0549  0.1082 -0.1640
   63SAPC  H14A 4994   4.192   5.832   5.751  0.8360 -1.0184  0.2249
   63SAPC  H14B 4995   4.073   5.704   5.687  0.3215  0.6635 -0.7980
   63SAPC  H14C 4996   4.015   5.839   5.775 -0.9793 -1.5475  1.9128
   63SAPC   C15 4997   4.251   5.639   5.905 -0.5302  0.1825 -0.7136
   63SAPC  H15A 4998   4.255   5.580   5.995  1.9475  1.0311 -0.1832
   63SAPC  H15B 4999   4.287   5.580   5.822  1.8717  0.2461  0.2057
   63SAPC  H15C 5000   4.320   5.719   5.927 -0.6430 -0.3012  1.6654
   63SAPC   C11 5001   4.082   5.752   6.147  0.5752  0.1116  0.1567
   63SAPC  H11A 5002   4.086   5.840   6.215 -0.8678  1.9266 -1.9734
   63SAPC  H11B 5003   4.173   5.690   6.163  0.2166 -0.3481  0.4638
   63SAPC     P 5004   3.820   5.714   6.155  0.0692 -0.0235 -0.0401
   63SAPC   O13 5005   3.818   5.842   6.091 -0.1916 -0.1338  0.2336
   63SAPC   O14 5006   3.751   5.604   6.090  0.0115 -0.0958  0.1887
   63SAPC   O12 5007   3.968   5.664   6.173 -0.3555  0.1729 -0.1155
   63SAPC   O11 5008   3.765   5.715   6.300 -0.7217 -0.1707  0.1697
   63SAPC    C1 5009   3.791   5.612   6.394 -0.2026  0.1436 -0.1064
   63SAPC    HA 5010   3.766   5.515   6.347 -1.5567  0.7982 -0.7783
   63SAPC    HB 5011   3.900   5.597   6.413 -0.5392 -1.8572  0.5209
   63SAPC    C2 5012   3.717   5.638   6.529  0.0823  0.5365  0.1004
   63SAPC    HS 5013   3.746   5.547   6.587 -0.4630 -0.7889 -1.6122
   63SAPC   O21 5014   3.571   5.646   6.518 -0.7413  0.0613 -0.5694
   63SAPC   C21 5015   3.510   5.528   6.502  0.8960 -0.4502 -0.2817
   63SAPC   O22 5016   3.563   5.423   6.474  0.7669 -0.2265 -0.7317
   63SAPC   C22 5017   3.365   5.553   6.537 -0.0287 -0.3563 -0.1527
   63SAPC   H2R 5018   3.313   5.629   6.474 -1.6567 -0.9935  0.3810
   63SAPC   H2S 5019   3.312   5.455   6.542 -1.7757  0.5913  1.4746
   63SAPC    C3 5020   3.771   5.754   6.605  0.1465 -0.8248  0.5282
   63SAPC    HX 5021   3.730   5.839   6.546  1.6866 -0.8314 -0.6288
   63SAPC    HY 5022   3.882   5.751   6.596  0.4219  0.4538  2.6504
   63SAPC   O31 5023   3.730   5.758   6.746  0.1611 -0.2416  0.5057
   63SAPC   C31 5024   3.650   5.859   6.770  0.0760  0.0728  0.9251
   63SAPC   O32 5025   3.604   5.941   6.693  0.1609 -0.8220 -0.6615
   63SAPC   C32 5026   3.615   5.856   6.918  0.0408 -0.3090 -0.1203
   63SAPC   H2X 5027   3.696   5.910   6.972 -1.4747  0.5665  1.3642
   63SAPC   H2Y 5028   3.608   5.749   6.947 -2.2000 -0.3087 -0.4989
   63SAPC   C23 5029   3.363   5.618   6.679  0.2487  0.3623  0.9447
   63SAPC   H3R 5030   3.258   5.633   6.712  0.4224 -1.0849  2.2759
   63SAPC   H3S 5031   3.401   5.722   6.665 -1.1832  0.6479 -1.3216
   63SAPC   C24 5032   3.418   5.530   6.789  0.1878 -0.0194 -0.0743
   63SAPC   H4R 5033   3.426   5.595   6.878  1.2934  0.6531 -0.6349
   63SAPC   H4S 5034   3.525   5.503   6.773 -0.4346 -2.4711 -0.5142
   63SAPC   C25 5035   3.354   5.400   6.815  0.5006  0.0410  0.1211
   63SAPC   H5R 5036   3.347   5.324   6.736 -2.6315 -0.6551  0.9118
   63SAPC   C26 5037   3.309   5.361   6.937  0.1323  0.3846  0.0977
   63SAPC   H6R 5038   3.267   5.261   6.957 -2.5740  1.1659 -1.2083
   63SAPC   C27 5039   3.302   5.459   7.044  0.2207 -0.7235 -0.6370
   63SAPC   H7R 5040   3.236   5.544   7.018 -1.4679 -0.8822  2.6670
   63SAPC   H7S 5041   3.401   5.503   7.065 -0.5670  0.6927  0.2056
   63SAPC   C28 5042   3.226   5.415   7.171  0.5596  0.3351  0.7127
   63SAPC   H8R 5043   3.127   5.457   7.193  0.0617 -0.8726  0.8842
   63SAPC   C29 5044   3.270   5.329   7.262  0.1107  1.1920 -0.1175
   63SAPC   H9R 5045   3.212   5.309   7.354 -0.8731  2.0331 -0.5350
   63SAPC  C210 5046   3.396   5.240   7.251 -0.3311 -0.2814 -0.6352
   63SAPC  H10R 5047   3.449   5.221   7.347 -1.1569 -1.3255 -0.3556
   63SAPC  H10S 5048   3.469   5.305   7.199 -1.5459  4.5357  3.0253
   63SAPC  C211 5049   3.387   5.109   7.171  0.5825 -0.3135  0.5691
   63SAPC  H11R 5050   3.435   5.101   7.072 -3.3074  1.3715 -1.6953
   63SAPC  C212 5051   3.318   5.001   7.202 -0.2000  0.2727 -0.5639
   63SAPC  H12R 5052   3.326   4.917   7.131 -0.1196 -0.9300  0.8127
   63SAPC  C213 5053   3.246   4.989   7.330 -0.8770  0.3496 -0.6482
   63SAPC  H13R 5054   3.159   4.934   7.289 -0.6879 -0.3177 -0.1624
   63SAPC  H13S 5055   3.205   5.085   7.369  0.4826  0.3396  0.9210
   63SAPC  C214 5056   3.307   4.909   7.443  0.1385 -0.5937  0.3304
   63SAPC  H14R 5057   3.392   4.846   7.413 -0.3894 -0.6658 -1.1059
   63SAPC  C215 5058   3.287   4.921   7.580 -0.1964 -0.8392  0.3428
   63SAPC  H15R 5059   3.351   4.871   7.655 -0.4914 -1.9302 -0.1010
   63SAPC  C216 5060   3.181   5.008   7.646 -0.0331  0.7014  0.7459
   63SAPC  H16R 5061   3.115   4.947   7.710  0.3225 -2.0739 -1.3401
   63SAPC  H16S 5062   3.119   5.057   7.567  0.9843 -1.5515 -1.6109
   63SAPC  C217 5063   3.260   5.117   7.724 -1.3446 -0.5009 -0.5850
   63SAPC  H17R 5064   3.321   5.066   7.801 -1.1128 -0.6771 -0.8843
   63SAPC  H17S 5065   3.184   5.178   7.777 -1.2226  0.6906 -1.7499
   63SAPC  C218 5066   3.356   5.208   7.647  0.0314 -0.0991 -0.1070
   63SAPC  H18R 5067   3.302   5.263   7.566 -1.6147  0.9842  1.6179
   63SAPC  H18S 5068   3.421   5.135   7.596  1.0759  1.0740 -0.5005
   63SAPC  C219 5069   3.442   5.295   7.726  0.0113 -0.0231 -0.5104
   63SAPC  H19R 5070   3.515   5.240   7.789  0.6357  0.1546 -1.0593
   63SAPC  H19S 5071   3.376   5.358   7.789 -0.1474 -0.0856 -0.6137
   63SAPC  C220 5072   3.521   5.393   7.641 -0.1048  0.2231 -0.9876
   63SAPC  H20R 5073   3.568   5.356   7.547  0.2315  2.1516 -1.6181
   63SAPC  H20S 5074   3.601   5.429   7.709 -0.3829  0.0717 -0.5815
   63SAPC  H20T 5075   3.459   5.483   7.627 -1.0982 -0.2867  0.0045
   63SAPC   C33 5076   3.483   5.929   6.945  0.4633  0.0221 -0.3255
   63SAPC   H3X 5077   3.418   5.927   6.855  1.6421  1.4828 -1.2727
   63SAPC   H3Y 5078   3.493   6.040   6.954  0.7691 -0.1878  3.9443
   63SAPC   C34 5079   3.405   5.871   7.058  0.1706 -0.1626 -0.0558
   63SAPC   H4X 5080   3.384   5.766   7.029  3.1469 -0.1930 -2.5757
   63SAPC   H4Y 5081   3.300   5.904   7.068  0.8498  2.1040  0.3370
   63SAPC   C35 5082   3.462   5.858   7.203 -0.0347  0.5590  0.4384
   63SAPC   H5X 5083   3.418   5.928   7.276 -2.0309  1.5434 -1.5795
   63SAPC   H5Y 5084   3.567   5.895   7.194 -0.0767  0.6973  0.5155
   63SAPC   C36 5085   3.467   5.717   7.263 -0.3427  0.2816 -0.1225
   63SAPC   H6X 5086   3.528   5.649   7.200 -0.3290 -0.4815  0.6881
   63SAPC   H6Y 5087   3.361   5.684   7.260 -0.5842  1.0349  0.0516
   63SAPC   C37 5088   3.523   5.701   7.408  0.1201  0.2527  0.0410
   63SAPC   H7X 5089   3.512   5.593   7.433 -0.6192  0.7195  1.8713
   63SAPC   H7Y 5090   3.455   5.764   7.469  0.4812  1.7049 -1.0013
   63SAPC   C38 5091   3.662   5.758   7.433  0.1528  0.1613  0.0324
   63SAPC   H8X 5092   3.671   5.867   7.413 -1.3086  0.4591  0.8758
   63SAPC   H8Y 5093   3.727   5.711   7.356  0.4067  0.1917  0.2281
   63SAPC   C39 5094   3.719   5.726   7.570 -0.1490  0.2859  0.0386
   63SAPC   H9X 5095   3.815   5.781   7.574 -0.7113  1.3232 -0.2406
   63SAPC   H9Y 5096   3.732   5.616   7.568 -1.0203  0.1358  1.3801
   63SAPC  C310 5097   3.633   5.769   7.698 -0.3371 -0.0017 -0.2014
   63SAPC  H10X 5098   3.528   5.737   7.679 -0.3380  0.0433 -0.2754
   63SAPC  H10Y 5099   3.623   5.880   7.705  1.5846  0.1775  0.1721
   63SAPC  C311 5100   3.687   5.715   7.830  0.2421  0.2515 -0.9890
   63SAPC  H11X 5101   3.679   5.604   7.834 -0.1624  0.1275 -3.5505
   63SAPC  H11Y 5102   3.630   5.755   7.917  1.9096 -0.5473  0.5485
   63SAPC  C312 5103   3.842   5.742   7.856  0.1021 -0.0154 -0.3621
   63SAPC  H12X 5104   3.844   5.853   7.866 -1.4596  0.1259 -1.3547
   63SAPC  H12Y 5105   3.889   5.693   7.768 -1.4620 -0.7726 -0.8172
   63SAPC  C313 5106   3.899   5.679   7.983 -0.7121  0.0634 -0.0659
   63SAPC  H13X 5107   3.849   5.711   8.077 -2.4085 -0.4053 -0.7633
   63SAPC  H13Y 5108   4.004   5.711   7.999 -0.6330 -1.1999  2.2693
   63SAPC  C314 5109   3.903   5.525   7.993 -0.0175 -0.4267  0.5220
   63SAPC  H14X 5110   3.967   5.484   7.911 -0.8413 -0.9199  0.1161
   63SAPC  H14Y 5111   3.803   5.483   7.970  0.3759  0.3327 -3.2848
   63SAPC  C315 5112   3.944   5.470   8.135  0.3581  0.4814  0.0651
   63SAPC  H15X 5113   3.885   5.524   8.211  1.2820  0.2564  0.9580
   63SAPC  H15Y 5114   4.047   5.505   8.154  0.5512 -1.2916  2.7116
   63SAPC  C316 5115   3.922   5.320   8.157 -0.4723 -0.7602 -0.0415
   63SAPC  H16X 5116   3.963   5.281   8.061  1.1982  0.4842  0.1326
   63SAPC  H16Y 5117   3.817   5.286   8.144 -0.3721  0.0296 -4.7613
   63SAPC  C317 5118   3.988   5.270   8.281  0.1946  0.1502 -0.0405
   63SAPC  H17X 5119   3.957   5.329   8.370 -0.9681 -0.9762  0.3292
   63SAPC  H17Y 5120   4.098   5.275   8.267  0.6630 -0.6057  2.7502
   63SAPC  C318 5121   3.960   5.123   8.316 -0.4060  0.0488 -0.3283
   63SAPC  H18X 5122   4.043   5.074   8.370  0.0278 -0.8858 -1.7888
   63SAPC  H18Y 5123   3.955   5.065   8.221  0.7002  2.0565 -1.6949
   63SAPC  H18Z 5124   3.867   5.107   8.375  0.1642  0.9234  0.8453
   64SAPC     N 5125   4.724   4.854   5.875  0.0000 -0.0673  0.0509
   64SAPC   C12 5126   4.576   4.849   5.848 -0.0217  0.2977  0.2732
   64SAPC  H12A 5127   4.530   4.822   5.942  1.5465  1.3912  1.4244
   64SAPC  H12B 5128   4.556   4.773   5.775  0.2898  0.0310  0.4590
   64SAPC   C13 5129   4.769   4.710   5.892 -0.0561 -0.3370 -0.1441
   64SAPC  H13A 5130   4.754   4.639   5.812  0.2903 -0.6803  0.0880
   64SAPC  H13B 5131   4.876   4.714   5.909 -0.1697  1.3072  0.3365
   64SAPC  H13C 5132   4.726   4.668   5.981 -2.0836  0.5751 -0.6480
   64SAPC   C14 5133   4.799   4.909   5.756  0.1165  0.7157  0.4774
   64SAPC  H14A 5134   4.764   4.858   5.667 -0.0954 -1.2832  1.6468
   64SAPC  H14B 5135   4.769   5.012   5.750  0.0882  0.7829  1.6906
   64SAPC  H14C 5136   4.906   4.898   5.766 -0.0484 -0.3676  1.2820
   64SAPC   C15 5137   4.756   4.934   5.997  0.0081 -0.0527  0.0533
   64SAPC  H15A 5138   4.713   5.033   6.001  2.1081  0.9264  0.1971
   64SAPC  H15B 5139   4.717   4.883   6.084 -0.3048 -0.5054 -0.3461
   64SAPC  H15C 5140   4.861   4.947   6.020 -1.0719  2.8643  4.8147
   64SAPC   C11 5141   4.506   4.984   5.798 -0.6119  0.4723  0.1580
   64SAPC  H11A 5142   4.402   4.955   5.773 -1.1092 -0.7324  3.2239
   64SAPC  H11B 5143   4.553   5.002   5.698  1.3891 -0.3073  0.9011
   64SAPC     P 5144   4.412   5.106   6.001  0.0147 -0.2765  0.8394
   64SAPC   O13 5145   4.348   5.236   5.975  0.5139  0.5388 -0.1751
   64SAPC   O14 5146   4.319   4.986   6.004 -0.7307 -0.1006  0.3074
   64SAPC   O12 5147   4.514   5.095   5.887 -0.5245  0.3426 -0.0891
   64SAPC   O11 5148   4.486   5.127   6.143  0.3155  0.5952  0.4487
   64SAPC    C1 5149   4.600   5.212   6.141  0.3849  0.1985 -0.0143
   64SAPC    HA 5150   4.650   5.214   6.042  0.4336 -0.5644 -0.0135
   64SAPC    HB 5151   4.567   5.315   6.167 -1.4501 -0.4070  0.1932
   64SAPC    C2 5152   4.701   5.164   6.254  0.7338  0.9548  0.2308
   64SAPC    HS 5153   4.728   5.056   6.242 -0.9127  0.2091  2.5395
   64SAPC   O21 5154   4.627   5.182   6.383  0.2214  0.2168 -0.2967
   64SAPC   C21 5155   4.642   5.084   6.467  0.0862 -0.1065  0.4499
   64SAPC   O22 5156   4.703   4.977   6.451 -0.1880 -0.3922  0.9044
   64SAPC   C22 5157   4.563   5.131   6.589  0.0575  0.2574 -0.0262
   64SAPC   H2R 5158   4.615   5.224   6.621  0.7311  0.4201 -1.4934
   64SAPC   H2S 5159   4.459   5.163   6.569 -0.2191 -0.0521  0.8777
   64SAPC    C3 5160   4.833   5.237   6.259  0.1051  0.1014  0.4368
   64SAPC    HX 5161   4.817   5.347   6.261 -1.1382 -0.0362 -0.6824
   64SAPC    HY 5162   4.890   5.226   6.165  2.7546  2.3439  1.6447
   64SAPC   O31 5163   4.901   5.215   6.379 -0.1560 -0.1911  0.0039
   64SAPC   C31 5164   4.997   5.110   6.361  0.3155  0.7120 -0.1518
   64SAPC   O32 5165   5.007   5.038   6.264 -0.9859  0.1006 -0.9388
   64SAPC   C32 5166   5.078   5.092   6.492  0.5526  0.0431 -0.4307
   64SAPC   H2X 5167   5.149   5.178   6.492 -0.7175  1.2406  2.8267
   64SAPC   H2Y 5168   5.125   4.991   6.490 -1.6292 -1.0213 -0.2463
   64SAPC   C23 5169   4.560   5.028   6.712 -0.2595 -0.1654  0.8872
   64SAPC   H3R 5170   4.656   4.973   6.721  1.0320  1.7921 -0.1568
   64SAPC   H3S 5171   4.482   4.950   6.698 -1.4710  1.2896 -0.9977
   64SAPC   C24 5172   4.542   5.089   6.855  0.0363  0.3153  0.6299
   64SAPC   H4R 5173   4.615   5.171   6.871  0.9194  0.0777 -1.7548
   64SAPC   H4S 5174   4.552   5.002   6.923  1.3849 -1.0197 -1.1762
   64SAPC   C25 5175   4.402   5.156   6.864 -0.1276 -0.0732  0.1076
   64SAPC   H5R 5176   4.369   5.219   6.781 -3.0020 -1.6427 -0.0832
   64SAPC   C26 5177   4.321   5.144   6.968  0.3762 -0.0146 -0.2291
   64SAPC   H6R 5178   4.226   5.198   6.953 -0.3330 -1.4774 -1.2253
   64SAPC   C27 5179   4.345   5.070   7.092 -0.4922  0.4410 -1.0865
   64SAPC   H7R 5180   4.447   5.094   7.130 -1.5103  1.7004  1.0203
   64SAPC   H7S 5181   4.346   4.961   7.071 -1.7958  0.0188  0.7917
   64SAPC   C28 5182   4.236   5.072   7.202 -0.6742 -0.1997 -0.2833
   64SAPC   H8R 5183   4.134   5.067   7.161 -0.8183  1.4560 -0.2030
   64SAPC   C29 5184   4.251   5.094   7.333  0.1685  0.6325  0.8127
   64SAPC   H9R 5185   4.171   5.088   7.408  2.7857 -2.4430  3.7085
   64SAPC  C210 5186   4.377   5.118   7.411 -1.2440 -0.4702  0.0271
   64SAPC  H10R 5187   4.377   5.224   7.443 -2.4503 -0.3108 -0.4647
   64SAPC  H10S 5188   4.472   5.100   7.356 -0.0149 -0.2738  2.0065
   64SAPC  C211 5189   4.395   5.035   7.534  0.1109 -0.4401 -0.1321
   64SAPC  H11R 5190   4.387   4.927   7.515  0.3700 -0.6362  0.8058
   64SAPC  C212 5191   4.431   5.073   7.664 -0.0082 -0.3774  0.2217
   64SAPC  H12R 5192   4.425   4.993   7.740 -2.8571 -2.7358 -2.2187
   64SAPC  C213 5193   4.446   5.220   7.709 -0.2887  0.0395  0.0690
   64SAPC  H13R 5194   4.471   5.291   7.627 -1.7635 -1.6175 -1.9327
   64SAPC  H13S 5195   4.539   5.221   7.770  0.7717 -1.5301 -1.4228
   64SAPC  C214 5196   4.324   5.262   7.794  0.0206 -0.0573 -0.0711
   64SAPC  H14R 5197   4.237   5.285   7.731  1.4711 -2.2215 -3.1065
   64SAPC  C215 5198   4.317   5.268   7.926  0.5713  0.8243  0.2026
   64SAPC  H15R 5199   4.215   5.278   7.965  0.7323 -0.8967  1.1431
   64SAPC  C216 5200   4.419   5.231   8.026  0.0759 -0.2403 -0.5417
   64SAPC  H16R 5201   4.414   5.287   8.122  1.5075 -1.0179  0.0268
   64SAPC  H16S 5202   4.527   5.235   7.998  0.5936  0.5375  1.4339
   64SAPC  C217 5203   4.409   5.081   8.064  0.0134 -0.1125 -0.1683
   64SAPC  H17R 5204   4.506   5.058   8.113  0.8824  1.3072 -1.1622
   64SAPC  H17S 5205   4.396   5.022   7.971  0.7833 -0.4736 -0.0593
   64SAPC  C218 5206   4.300   5.050   8.170  0.2539 -0.3429  0.2202
   64SAPC  H18R 5207   4.205   5.055   8.112  1.1301 -0.4053 -1.2457
   64SAPC  H18S 5208   4.291   5.127   8.250 -2.9740 -0.4236  0.0767
   64SAPC  C219 5209   4.315   4.905   8.221 -0.0153  0.7065 -0.3865
   64SAPC  H19R 5210   4.416   4.902   8.268  0.5562  0.7964 -1.5634
   64SAPC  H19S 5211   4.328   4.824   8.146 -0.1014 -1.5364  1.8921
   64SAPC  C220 5212   4.208   4.850   8.317  0.0237 -0.3041 -0.2785
   64SAPC  H20R 5213   4.206   4.920   8.403  0.0687  0.0349 -0.5468
   64SAPC  H20S 5214   4.239   4.748   8.347 -0.3400 -0.5176 -0.6084
   64SAPC  H20T 5215   4.109   4.850   8.266  1.2811 -1.9455 -2.9336
   64SAPC   C33 5216   4.980   5.093   6.611 -0.0773 -0.8067 -0.3161
   64SAPC   H3X 5217   4.901   5.016   6.599 -0.2520 -0.5571 -0.7849
   64SAPC   H3Y 5218   4.915   5.183   6.612  0.7391 -0.1633 -1.5269
   64SAPC   C34 5219   5.049   5.069   6.746  0.0988 -0.4105 -0.1072
   64SAPC   H4X 5220   5.134   5.140   6.748 -1.7117  1.9373 -0.9175
   64SAPC   H4Y 5221   5.112   4.979   6.763  0.0627 -0.1670  1.3908
   64SAPC   C35 5222   4.947   5.081   6.856 -0.0482  0.6707 -0.2273
   64SAPC   H5X 5223   4.872   5.002   6.833  1.8598 -0.9052 -1.3019
   64SAPC   H5Y 5224   4.890   5.176   6.852 -2.7950 -0.9089 -1.7510
   64SAPC   C36 5225   5.008   5.055   6.993  0.4374 -0.0707 -0.4086
   64SAPC   H6X 5226   5.096   5.116   7.020 -0.3382  0.2359  1.5521
   64SAPC   H6Y 5227   5.035   4.948   6.982 -0.9162 -0.2815 -2.4866
   64SAPC   C37 5228   4.911   5.061   7.118 -0.6753 -0.4457 -0.3873
   64SAPC   H7X 5229   4.826   4.990   7.109 -0.9109 -0.3766  1.0166
   64SAPC   H7Y 5230   4.873   5.166   7.122 -1.2517 -0.6896  1.7185
   64SAPC   C38 5231   4.988   5.034   7.251 -0.2513  0.1336 -0.4480
   64SAPC   H8X 5232   5.083   5.090   7.238 -0.3928  0.6476  0.7052
   64SAPC   H8Y 5233   5.010   4.925   7.259 -1.2928  0.0001  1.0031
   64SAPC   C39 5234   4.906   5.082   7.372  0.4613 -0.6304 -0.2157
   64SAPC   H9X 5235   4.816   5.021   7.390 -0.2045  0.1453 -0.8692
   64SAPC   H9Y 5236   4.863   5.180   7.341 -2.8563 -2.2475 -1.0865
   64SAPC  C310 5237   4.984   5.111   7.498  0.5981 -0.3788 -0.3330
   64SAPC  H10X 5238   5.052   5.195   7.470  2.6325 -2.2277 -1.2069
   64SAPC  H10Y 5239   5.047   5.023   7.521  0.6055 -0.0394  1.0838
   64SAPC  C311 5240   4.887   5.136   7.615  0.3163 -0.2480  0.4255
   64SAPC  H11X 5241   4.812   5.054   7.614  0.5833 -0.5324  2.1851
   64SAPC  H11Y 5242   4.837   5.236   7.605 -1.4420 -1.0755  0.5445
   64SAPC  C312 5243   4.955   5.143   7.749  0.1003  0.0266  0.3447
   64SAPC  H12X 5244   5.011   5.239   7.753 -0.3210  0.2820  0.2730
   64SAPC  H12Y 5245   5.033   5.067   7.767 -0.6346 -0.7892  0.1561
   64SAPC  C313 5246   4.838   5.128   7.860 -0.2529  0.2065  0.3699
   64SAPC  H13X 5247   4.797   5.025   7.863 -2.3002  0.9261 -1.3043
   64SAPC  H13Y 5248   4.751   5.189   7.827  0.9967  0.4324 -2.8518
   64SAPC  C314 5249   4.902   5.162   7.992  0.1040 -0.1682 -0.6457
   64SAPC  H14X 5250   4.991   5.096   7.998  1.2413  1.4318  0.6400
   64SAPC  H14Y 5251   4.837   5.136   8.078  0.2206  0.7826 -0.2582
   64SAPC  C315 5252   4.924   5.308   8.019  0.2858  0.9490 -0.1378
   64SAPC  H15X 5253   4.847   5.375   7.975  0.4029  0.2634 -1.4444
   64SAPC  H15Y 5254   5.012   5.336   7.957 -0.6679 -0.3727 -2.2035
   64SAPC  C316 5255   4.949   5.340   8.164  0.0738 -0.4744 -0.7942
   64SAPC  H16X 5256   5.027   5.268   8.199  3.2752  1.2864 -3.6409
   64SAPC  H16Y 5257   4.855   5.328   8.221 -0.8574 -1.7790 -2.4876
   64SAPC  C317 5258   5.019   5.478   8.175  0.5765  0.5451 -1.0146
   64SAPC  H17X 5259   4.952   5.554   8.131 -0.0073  1.6223  1.5193
   64SAPC  H17Y 5260   5.112   5.463   8.116  1.8853  2.4021  0.4607
   64SAPC  C318 5261   5.053   5.534   8.312  0.0154 -0.2127 -0.7815
   64SAPC  H18X 5262   4.962   5.556   8.371  1.9174  1.1646  1.8383
   64SAPC  H18Y 5263   5.109   5.629   8.296 -0.8569  0.6366  0.9279
   64SAPC  H18Z 5264   5.105   5.451   8.364 -1.8458 -0.7317  0.3220
   65SAPC     N 5265   3.978   1.341   6.169 -0.0695  0.2413  0.5650
   65SAPC   C12 5266   4.079   1.305   6.279  0.5138  0.9456 -0.0972
   65SAPC  H12A 5267   4.078   1.371   6.364  0.3201 -0.4357  1.0047
   65SAPC  H12B 5268   4.177   1.320   6.235  1.1463 -1.1465  0.5012
   65SAPC   C13 5269   3.998   1.244   6.057 -0.2267  0.5356 -0.1900
   65SAPC  H13A 5270   4.100   1.235   6.024  0.3284  0.3186  1.5053
   65SAPC  H13B 5271   3.969   1.143   6.080 -0.5903  0.2781 -1.6345
   65SAPC  H13C 5272   3.926   1.265   5.978  0.3872  1.1342 -0.6054
   65SAPC   C14 5273   3.840   1.328   6.222 -0.1757 -0.7637 -0.5193
   65SAPC  H14A 5274   3.760   1.331   6.150  0.0223  0.9504 -0.7083
   65SAPC  H14B 5275   3.824   1.235   6.273  1.9469 -1.4658 -1.0169
   65SAPC  H14C 5276   3.825   1.405   6.297  0.5783 -0.7922 -0.3238
   65SAPC   C15 5277   3.995   1.478   6.099 -0.0964  1.0170 -0.2578
   65SAPC  H15A 5278   3.990   1.556   6.173 -1.7913 -0.6625  1.5255
   65SAPC  H15B 5279   4.088   1.495   6.048 -0.0888  1.4266 -0.1094
   65SAPC  H15C 5280   3.911   1.501   6.034 -0.6990  0.5861  0.3499
   65SAPC   C11 5281   4.073   1.161   6.336 -0.2807 -0.0035 -1.1827
   65SAPC  H11A 5282   3.968   1.142   6.368 -0.2797 -0.2434 -1.3128
   65SAPC  H11B 5283   4.129   1.162   6.431  1.1360 -0.5351 -1.9817
   65SAPC     P 5284   4.258   0.984   6.259  0.2933  0.4498  0.2888
   65SAPC   O13 5285   4.255   0.890   6.149  0.1688  0.8196 -0.0326
   65SAPC   O14 5286   4.364   1.091   6.273  0.1810 -0.7654 -0.1244
   65SAPC   O12 5287   4.116   1.055   6.255  0.3560 -0.7741  0.4534
   65SAPC   O11 5288   4.247   0.904   6.393  0.7484 -0.1514  0.4668
   65SAPC    C1 5289   4.139   0.816   6.416 -0.5300 -0.2591  0.0519
   65SAPC    HA 5290   4.079   0.791   6.326  0.1749  1.7217 -1.0188
   65SAPC    HB 5291   4.183   0.719   6.449 -0.4815 -0.9069 -1.7905
   65SAPC    C2 5292   4.038   0.865   6.522  0.4544  0.2081  0.3142
   65SAPC    HS 5293   3.975   0.950   6.488 -2.6578 -1.1456  2.2445
   65SAPC   O21 5294   4.113   0.913   6.630 -0.5090  0.0050  0.2154
   65SAPC   C21 5295   4.066   1.019   6.699 -0.6469 -0.7551  1.3766
   65SAPC   O22 5296   3.964   1.076   6.671  0.0328  0.1505  0.2790
   65SAPC   C22 5297   4.172   1.058   6.797 -0.4628 -0.2338  0.4922
   65SAPC   H2R 5298   4.198   0.967   6.856  1.1145 -1.4779 -1.9541
   65SAPC   H2S 5299   4.263   1.092   6.743 -0.8626 -1.2169 -0.8578
   65SAPC    C3 5300   3.942   0.761   6.580  0.7129  0.0678 -0.3901
   65SAPC    HX 5301   3.875   0.733   6.496 -0.7981  1.3450  0.3376
   65SAPC    HY 5302   3.872   0.815   6.647 -0.3824 -2.0776  0.2938
   65SAPC   O31 5303   4.011   0.647   6.634  0.7082  0.5218 -0.5125
   65SAPC   C31 5304   4.054   0.649   6.758  0.9477 -0.0472  0.1861
   65SAPC   O32 5305   4.036   0.740   6.837 -0.6448 -0.6280  0.6553
   65SAPC   C32 5306   4.118   0.512   6.790  0.0442  0.3112 -0.3502
   65SAPC   H2X 5307   4.203   0.510   6.719  1.0256 -2.0400  0.7781
   65SAPC   H2Y 5308   4.045   0.432   6.763  0.5005 -1.2046  2.4467
   65SAPC   C23 5309   4.134   1.165   6.892  0.5443  0.3098 -0.7024
   65SAPC   H3R 5310   4.028   1.143   6.921  1.1451 -1.6899  0.1641
   65SAPC   H3S 5311   4.129   1.263   6.840 -0.6986  1.2379  1.0498
   65SAPC   C24 5312   4.204   1.172   7.028 -0.2507  0.3003 -0.5020
   65SAPC   H4R 5313   4.312   1.175   7.006  0.2923  0.6483  1.9541
   65SAPC   H4S 5314   4.197   1.070   7.071 -0.4518  0.2585 -0.6329
   65SAPC   C25 5315   4.146   1.281   7.115 -0.6384 -0.4295  0.1341
   65SAPC   H5R 5316   4.099   1.363   7.057 -0.0331 -0.5230 -0.4991
   65SAPC   C26 5317   4.138   1.280   7.256 -0.3923  0.1599  0.1225
   65SAPC   H6R 5318   4.095   1.366   7.309  0.3994  1.3135 -1.0729
   65SAPC   C27 5319   4.202   1.175   7.349  0.0209  0.1369  0.1567
   65SAPC   H7R 5320   4.248   1.222   7.439 -1.3570 -0.9952  1.4927
   65SAPC   H7S 5321   4.290   1.129   7.298  0.3314  1.1833 -0.2967
   65SAPC   C28 5322   4.107   1.061   7.364 -0.5396  0.2119 -0.8933
   65SAPC   H8R 5323   4.016   1.058   7.303  0.0862 -0.7740 -1.8334
   65SAPC   C29 5324   4.107   0.954   7.444 -0.7439  0.0660 -0.4166
   65SAPC   H9R 5325   4.018   0.890   7.436 -0.6984 -0.0390 -0.1158
   65SAPC  C210 5326   4.209   0.903   7.548 -0.5970  0.3602 -0.3571
   65SAPC  H10R 5327   4.317   0.909   7.526  0.3951 -2.3028  2.8382
   65SAPC  H10S 5328   4.182   0.796   7.562  1.0421  0.0186  0.3185
   65SAPC  C211 5329   4.198   0.982   7.681 -0.3552 -0.1144  0.4500
   65SAPC  H11R 5330   4.151   1.081   7.679 -0.6669 -0.2279  1.6595
   65SAPC  C212 5331   4.267   0.956   7.794 -0.2205 -0.2076 -0.1413
   65SAPC  H12R 5332   4.246   1.026   7.876  1.1466 -1.7725  1.6123
   65SAPC  C213 5333   4.359   0.840   7.821  0.4098  0.2125 -0.0843
   65SAPC  H13R 5334   4.361   0.766   7.739 -0.3460 -0.5006  0.5195
   65SAPC  H13S 5335   4.315   0.782   7.905 -0.6282  0.7831 -0.2142
   65SAPC  C214 5336   4.498   0.887   7.860  0.2218 -0.0874  0.1750
   65SAPC  H14R 5337   4.517   0.911   7.966  2.4949 -1.1434  0.0712
   65SAPC  C215 5338   4.606   0.924   7.781  0.1909  0.7417  0.1610
   65SAPC  H15R 5339   4.702   0.946   7.831  0.4365 -0.3048  0.1682
   65SAPC  C216 5340   4.613   0.915   7.626  0.4731  0.1060 -0.4438
   65SAPC  H16R 5341   4.672   1.000   7.584  0.3674 -0.3840 -1.6107
   65SAPC  H16S 5342   4.518   0.915   7.569  0.1548  2.6118 -0.0340
   65SAPC  C217 5343   4.674   0.775   7.582  0.3503  0.4400  0.0452
   65SAPC  H17R 5344   4.611   0.689   7.613  0.0213  0.3488 -0.8526
   65SAPC  H17S 5345   4.776   0.755   7.620  0.7869  0.7306 -0.9542
   65SAPC  C218 5346   4.662   0.765   7.433  0.2917  0.8645  0.0675
   65SAPC  H18R 5347   4.731   0.835   7.382  0.6161  0.0400 -0.6450
   65SAPC  H18S 5348   4.563   0.795   7.392 -0.6097 -0.5130  1.1165
   65SAPC  C219 5349   4.711   0.629   7.370 -0.0250  0.1559  0.0697
   65SAPC  H19R 5350   4.646   0.554   7.420  1.6254 -1.2059  0.2624
   65SAPC  H19S 5351   4.820   0.621   7.393  0.1325  1.8618  0.0616
   65SAPC  C220 5352   4.692   0.618   7.214 -1.2643 -0.0775 -0.5630
   65SAPC  H20R 5353   4.741   0.711   7.176 -0.4054  0.0006  0.6625
   65SAPC  H20S 5354   4.586   0.619   7.181 -0.3626  1.0265 -3.8336
   65SAPC  H20T 5355   4.753   0.539   7.166  0.7532 -0.0298  1.7040
   65SAPC   C33 5356   4.158   0.491   6.942 -0.1475  0.0286  0.1309
   65SAPC   H3X 5357   4.067   0.491   7.005  1.3211  1.8174  2.4159
   65SAPC   H3Y 5358   4.210   0.583   6.974 -0.3571  0.1236  0.1989
   65SAPC   C34 5359   4.246   0.368   6.959  0.0243  0.4547 -0.6654
   65SAPC   H4X 5360   4.339   0.375   6.898 -0.4920  0.1340 -1.5180
   65SAPC   H4Y 5361   4.205   0.274   6.915  1.9907 -0.4752 -0.5930
   65SAPC   C35 5362   4.283   0.344   7.115  0.4521  0.3694 -0.5993
   65SAPC   H5X 5363   4.193   0.312   7.172  1.9164 -1.0253  1.0498
   65SAPC   H5Y 5364   4.324   0.439   7.155 -2.5253  1.5404 -0.0921
   65SAPC   C36 5365   4.387   0.235   7.130  0.7354  0.2366  0.0669
   65SAPC   H6X 5366   4.486   0.285   7.120 -0.3745  2.4350 -0.6002
   65SAPC   H6Y 5367   4.385   0.150   7.059 -1.1475 -0.3264  0.7153
   65SAPC   C37 5368   4.387   0.175   7.269  0.6533  0.0893  0.7171
   65SAPC   H7X 5369   4.470   0.101   7.270  0.3050 -0.3905 -1.1718
   65SAPC   H7Y 5370   4.292   0.122   7.293  1.4840 -1.1215  1.3799
   65SAPC   C38 5371   4.400   0.282   7.375 -0.1114 -0.0946 -0.4634
   65SAPC   H8X 5372   4.302   0.328   7.400 -0.1520 -0.2888 -0.2702
   65SAPC   H8Y 5373   4.473   0.361   7.344  0.6754  0.2463  2.0185
   65SAPC   C39 5374   4.445   0.227   7.513 -0.1930 -0.2425 -0.4014
   65SAPC   H9X 5375   4.425   0.307   7.587  2.0735 -0.2613  0.3256
   65SAPC   H9Y 5376   4.555   0.209   7.511 -0.2455 -1.9863  3.5318
   65SAPC  C310 5377   4.396   0.093   7.570  0.7931  0.0100 -0.6520
   65SAPC  H10X 5378   4.438   0.003   7.520 -1.9085 -2.8108  1.7275
   65SAPC  H10Y 5379   4.286   0.089   7.557  0.8094 -2.0437 -0.5359
   65SAPC  C311 5380   4.435   0.089   7.725  0.0535  0.6819 -0.7653
   65SAPC  H11X 5381   4.545   0.104   7.728 -0.0333  1.2260  1.4808
   65SAPC  H11Y 5382   4.414  -0.013   7.762 -1.2648  0.2134 -2.6627
   65SAPC  C312 5383   4.345   0.180   7.815 -0.4209 -0.4304 -0.3729
   65SAPC  H12X 5384   4.263   0.235   7.764  0.8310  0.4901 -1.4992
   65SAPC  H12Y 5385   4.405   0.249   7.878  0.0305 -1.3841  0.2541
   65SAPC  C313 5386   4.268   0.102   7.925 -0.1631  0.1518 -0.3776
   65SAPC  H13X 5387   4.204   0.025   7.876 -1.3989  2.0388 -1.8562
   65SAPC  H13Y 5388   4.214   0.179   7.984 -0.5699 -1.7404  1.8704
   65SAPC  C314 5389   4.362   0.023   8.025 -0.1453 -0.4017  0.0706
   65SAPC  H14X 5390   4.446   0.092   8.048  0.2357 -0.7207 -0.3431
   65SAPC  H14Y 5391   4.389  -0.065   7.963 -1.2913  0.2087 -1.3717
   65SAPC  C315 5392   4.279  -0.015   8.146 -0.3034  0.0987 -0.0216
   65SAPC  H15X 5393   4.200  -0.091   8.132  2.0131 -2.1513 -2.0217
   65SAPC  H15Y 5394   4.234   0.080   8.182 -1.1613  0.7088 -2.4804
   65SAPC  C316 5395   4.371  -0.078   8.249 -0.7477  0.1420 -0.3263
   65SAPC  H16X 5396   4.463  -0.016   8.247 -0.7767  0.2848  1.1235
   65SAPC  H16Y 5397   4.390  -0.182   8.217  0.6657  0.4557 -0.5832
   65SAPC  C317 5398   4.318  -0.097   8.382  1.0927 -0.9614 -1.0236
   65SAPC  H17X 5399   4.241  -0.177   8.392 -2.7578  2.4113 -0.9360
   65SAPC  H17Y 5400   4.256  -0.007   8.404  1.0171 -1.6052  1.6699
   65SAPC  C318 5401   4.421  -0.103   8.490 -0.9122  0.8919  0.4516
   65SAPC  H18X 5402   4.480  -0.197   8.477 -1.1588  0.5738  1.4960
   65SAPC  H18Y 5403   4.368  -0.109   8.588 -1.1743  1.4495  0.3473
   65SAPC  H18Z 5404   4.500  -0.026   8.491 -0.5354  0.5575 -0.9587
   66SAPC     N 5405   3.979   0.541   5.976 -0.6651 -0.5748 -0.3026
   66SAPC   C12 5406   4.079   0.523   6.096 -0.2515 -0.2548  0.1793
   66SAPC  H12A 5407   4.034   0.483   6.185 -1.9358 -1.5585 -1.1912
   66SAPC  H12B 5408   4.119   0.619   6.125 -4.2018  2.6072 -2.7298
   66SAPC   C13 5409   3.864   0.626   6.019 -0.6406 -0.2210  0.4471
   66SAPC  H13A 5410   3.893   0.724   6.055 -2.0861  1.0277 -1.5246
   66SAPC  H13B 5411   3.796   0.642   5.936  1.0897 -0.5190 -1.0867
   66SAPC  H13C 5412   3.808   0.584   6.101  0.6395  2.2802  2.7775
   66SAPC   C14 5413   4.065   0.607   5.865 -0.0182  0.0827 -0.0239
   66SAPC  H14A 5414   4.012   0.629   5.774  0.4603  1.2487 -0.0458
   66SAPC  H14B 5415   4.093   0.703   5.906 -2.9472  0.8884  0.3320
   66SAPC  H14C 5416   4.148   0.544   5.836 -0.1816 -0.4532  0.6528
   66SAPC   C15 5417   3.930   0.409   5.930 -0.1133 -0.6059 -0.2864
   66SAPC  H15A 5418   3.854   0.369   5.996 -0.5433 -1.2236 -1.1469
   66SAPC  H15B 5419   3.889   0.409   5.830 -2.0518  0.1501  0.4613
   66SAPC  H15C 5420   4.009   0.335   5.925 -0.2300 -0.6963 -0.7730
   66SAPC   C11 5421   4.205   0.431   6.069  0.3366  0.4536 -0.3691
   66SAPC  H11A 5422   4.154   0.332   6.068 -1.0429  1.1325 -0.1776
   66SAPC  H11B 5423   4.265   0.430   6.163 -0.0426  1.1855 -0.1174
   66SAPC     P 5424   4.351   0.376   5.857 -0.6685 -0.2354  0.1203
   66SAPC   O13 5425   4.270   0.372   5.733 -0.0776  0.0034 -0.6277
   66SAPC   O14 5426   4.486   0.433   5.841 -0.0530 -0.2154  0.3905
   66SAPC   O12 5427   4.285   0.471   5.961 -0.3892  0.1133  0.2812
   66SAPC   O11 5428   4.346   0.234   5.931 -0.4191 -0.1717  0.3773
   66SAPC    C1 5429   4.460   0.181   6.003 -0.6032 -0.4251 -0.1895
   66SAPC    HA 5430   4.554   0.192   5.945 -1.3363  0.6931 -1.2394
   66SAPC    HB 5431   4.476   0.229   6.102 -0.4943  0.4171 -0.6042
   66SAPC    C2 5432   4.435   0.029   6.026  0.1506 -0.5829 -0.0256
   66SAPC    HS 5433   4.437  -0.016   5.924  1.4269  0.7894 -0.6588
   66SAPC   O21 5434   4.305   0.011   6.092 -0.8898 -0.4381  0.0734
   66SAPC   C21 5435   4.247  -0.098   6.062  0.0518 -0.0537  0.2869
   66SAPC   O22 5436   4.292  -0.188   5.991 -0.2609 -0.3183  0.5545
   66SAPC   C22 5437   4.112  -0.113   6.138  0.7814  0.5059  0.0868
   66SAPC   H2R 5438   4.104  -0.036   6.218 -1.4025  0.4564 -0.0149
   66SAPC   H2S 5439   4.031  -0.099   6.062 -0.3053 -0.7573  0.9701
   66SAPC    C3 5440   4.549  -0.035   6.107  0.3709  0.0752 -0.3379
   66SAPC    HX 5441   4.644  -0.003   6.058  0.7713  1.2073  1.1306
   66SAPC    HY 5442   4.552  -0.145   6.089 -1.4469 -0.3025  1.3833
   66SAPC   O31 5443   4.549   0.011   6.247 -0.4301 -0.2512 -0.2964
   66SAPC   C31 5444   4.552  -0.091   6.337  0.3018  0.1783  0.6433
   66SAPC   O32 5445   4.560  -0.207   6.311 -0.3038 -0.0077  0.8651
   66SAPC   C32 5446   4.536  -0.030   6.478 -0.5300  0.4633 -0.0407
   66SAPC   H2X 5447   4.447   0.037   6.480 -1.9953 -1.3806 -0.5953
   66SAPC   H2Y 5448   4.635   0.019   6.493  1.4596 -3.2888  0.2522
   66SAPC   C23 5449   4.109  -0.240   6.214  0.2291  0.5156  0.4214
   66SAPC   H3R 5450   4.125  -0.334   6.157  1.4052  0.8684  0.1461
   66SAPC   H3S 5451   4.000  -0.249   6.229  0.1613  1.2984  0.4327
   66SAPC   C24 5452   4.179  -0.238   6.351 -0.9220 -0.2555  0.2255
   66SAPC   H4R 5453   4.279  -0.201   6.319 -1.3610 -0.4425 -1.4705
   66SAPC   H4S 5454   4.191  -0.345   6.376 -0.2992 -0.0105  1.0232
   66SAPC   C25 5455   4.097  -0.167   6.451 -0.1508 -0.0413  0.3973
   66SAPC   H5R 5456   4.106  -0.058   6.441  3.0222 -0.1565  0.9971
   66SAPC   C26 5457   4.039  -0.236   6.556 -0.5347 -0.1426 -0.1944
   66SAPC   H6R 5458   3.975  -0.183   6.628 -1.3078 -2.7619  1.1821
   66SAPC   C27 5459   4.030  -0.386   6.576  0.3215 -0.3030 -0.2568
   66SAPC   H7R 5460   4.036  -0.404   6.685  0.8633 -0.2613 -0.2734
   66SAPC   H7S 5461   4.123  -0.427   6.531 -0.8879 -2.3209 -1.0514
   66SAPC   C28 5462   3.919  -0.462   6.528 -0.2373 -0.5264  0.0553
   66SAPC   H8R 5463   3.934  -0.500   6.426 -0.9325 -2.4530  0.6214
   66SAPC   C29 5464   3.799  -0.480   6.581 -0.0367 -0.2018 -0.3722
   66SAPC   H9R 5465   3.732  -0.551   6.530 -0.1973  0.3026 -0.8714
   66SAPC  C210 5466   3.759  -0.434   6.715  1.1034 -0.2585  0.1969
   66SAPC  H10R 5467   3.810  -0.345   6.756 -1.9329  0.6056  2.4817
   66SAPC  H10S 5468   3.770  -0.523   6.781  0.5498 -0.5504 -0.0921
   66SAPC  C211 5469   3.607  -0.416   6.721  0.2283  0.9705 -0.8915
   66SAPC  H11R 5470   3.548  -0.489   6.663 -2.2567  2.4123 -0.3130
   66SAPC  C212 5471   3.542  -0.323   6.791  0.5193  0.2632 -0.5934
   66SAPC  H12R 5472   3.435  -0.316   6.767  0.3876  1.7870  0.3292
   66SAPC  C213 5473   3.598  -0.206   6.863 -0.5662  0.2199 -1.5785
   66SAPC  H13R 5474   3.521  -0.125   6.867 -1.0732 -0.2835 -1.0306
   66SAPC  H13S 5475   3.690  -0.168   6.813  2.5086 -2.7509  1.3077
   66SAPC  C214 5476   3.649  -0.234   7.003  0.7150 -0.0537 -0.1437
   66SAPC  H14R 5477   3.720  -0.318   7.001  0.1685 -0.5844  1.2181
   66SAPC  C215 5478   3.618  -0.176   7.123  0.1595  0.6881 -0.3259
   66SAPC  H15R 5479   3.671  -0.204   7.215 -1.2947  0.6258  0.5311
   66SAPC  C216 5480   3.529  -0.054   7.135 -0.3956 -0.0286 -1.5467
   66SAPC  H16R 5481   3.423  -0.082   7.117  0.0548 -2.1172 -1.1879
   66SAPC  H16S 5482   3.566   0.029   7.071 -0.1393  0.4898 -0.7491
   66SAPC  C217 5483   3.538   0.006   7.278 -0.2163 -0.4901  0.2254
   66SAPC  H17R 5484   3.491   0.107   7.280  0.3317  0.0029 -3.9977
   66SAPC  H17S 5485   3.641   0.028   7.312 -0.7809  2.0691  0.4627
   66SAPC  C218 5486   3.492  -0.088   7.394  0.0492 -0.3248  0.1111
   66SAPC  H18R 5487   3.552  -0.181   7.388  0.1575 -0.2979  0.7860
   66SAPC  H18S 5488   3.383  -0.111   7.386 -1.2366  3.5156  3.3023
   66SAPC  C219 5489   3.511  -0.023   7.530 -0.1119 -0.3773 -0.3988
   66SAPC  H19R 5490   3.434   0.057   7.529 -0.2212 -0.4664  0.6361
   66SAPC  H19S 5491   3.614   0.013   7.548 -0.2325 -0.8295  1.3480
   66SAPC  C220 5492   3.486  -0.115   7.644 -0.2992  0.3049 -0.8309
   66SAPC  H20R 5493   3.388  -0.166   7.645 -0.1439 -0.0006 -1.2407
   66SAPC  H20S 5494   3.513  -0.058   7.736 -0.2281 -0.2764 -0.4859
   66SAPC  H20T 5495   3.558  -0.198   7.632 -0.7816 -0.3882  0.8002
   66SAPC   C33 5496   4.521  -0.143   6.582  0.3539 -0.1622 -0.3473
   66SAPC   H3X 5497   4.590  -0.230   6.588 -1.7081 -1.7652  1.1431
   66SAPC   H3Y 5498   4.417  -0.177   6.566  0.2224  0.8136 -1.8341
   66SAPC   C34 5499   4.516  -0.083   6.725 -0.0949  0.3421  0.0236
   66SAPC   H4X 5500   4.420  -0.027   6.724 -0.4673 -0.2610  0.9359
   66SAPC   H4Y 5501   4.598  -0.009   6.737 -0.6374  1.0591 -0.5912
   66SAPC   C35 5502   4.516  -0.187   6.844 -0.0759 -0.3485 -0.4447
   66SAPC   H5X 5503   4.536  -0.122   6.931  1.0387 -0.7310 -0.4053
   66SAPC   H5Y 5504   4.606  -0.251   6.832  0.8632  1.1523 -1.8011
   66SAPC   C36 5505   4.382  -0.270   6.855 -0.1497 -0.1616 -0.2389
   66SAPC   H6X 5506   4.336  -0.273   6.754  0.4027 -0.4569 -0.4859
   66SAPC   H6Y 5507   4.307  -0.211   6.912 -0.6903 -0.8366 -0.2335
   66SAPC   C37 5508   4.392  -0.416   6.917 -0.3762  1.2065 -0.5419
   66SAPC   H7X 5509   4.455  -0.479   6.851  2.3616 -0.2683  3.1868
   66SAPC   H7Y 5510   4.295  -0.469   6.926  0.5629 -0.2774  1.4236
   66SAPC   C38 5511   4.445  -0.419   7.063 -0.0003 -0.4291  0.4709
   66SAPC   H8X 5512   4.546  -0.373   7.069  0.0377 -0.2855 -0.8252
   66SAPC   H8Y 5513   4.461  -0.522   7.101  0.7593  0.2427  2.0505
   66SAPC   C39 5514   4.351  -0.345   7.162  0.3772 -0.1827  0.1594
   66SAPC   H9X 5515   4.249  -0.383   7.139  0.8100 -0.3843 -1.5876
   66SAPC   H9Y 5516   4.339  -0.239   7.129 -0.0772 -0.6405 -1.2386
   66SAPC  C310 5517   4.393  -0.360   7.305  0.3296 -0.0508 -0.5310
   66SAPC  H10X 5518   4.503  -0.351   7.318  0.1509  0.0371  1.1028
   66SAPC  H10Y 5519   4.368  -0.464   7.337 -0.0157  0.2076  0.0440
   66SAPC  C311 5520   4.312  -0.269   7.396 -0.0352 -0.2906  0.1270
   66SAPC  H11X 5521   4.207  -0.279   7.361 -0.0172  1.5382 -0.5873
   66SAPC  H11Y 5522   4.342  -0.163   7.380  2.7348 -1.1140 -0.7937
   66SAPC  C312 5523   4.333  -0.288   7.542  0.0450 -0.1039  0.3709
   66SAPC  H12X 5524   4.428  -0.242   7.578 -0.5947  0.1712  1.7842
   66SAPC  H12Y 5525   4.347  -0.395   7.568 -0.5790  0.3085  2.6692
   66SAPC  C313 5526   4.217  -0.245   7.631 -0.0087 -0.1042  0.3815
   66SAPC  H13X 5527   4.131  -0.313   7.614  0.1234 -0.4640  1.0811
   66SAPC  H13Y 5528   4.200  -0.139   7.602  2.5466 -0.2335 -1.9593
   66SAPC  C314 5529   4.263  -0.258   7.778  0.7761  0.2875  0.1727
   66SAPC  H14X 5530   4.190  -0.192   7.830 -1.8069  0.7504 -3.6255
   66SAPC  H14Y 5531   4.371  -0.238   7.789  1.0591 -1.2403  0.3658
   66SAPC  C315 5532   4.231  -0.399   7.841  0.4205 -0.1322 -0.2874
   66SAPC  H15X 5533   4.296  -0.466   7.781  0.3402 -0.0026 -0.5207
   66SAPC  H15Y 5534   4.123  -0.415   7.824  0.5771 -0.7980 -0.7031
   66SAPC  C316 5535   4.258  -0.406   7.989 -0.3340 -0.1549  0.4332
   66SAPC  H16X 5536   4.178  -0.337   8.023 -1.7436 -0.6600 -1.6526
   66SAPC  H16Y 5537   4.361  -0.364   7.996  0.2041 -1.0635 -1.2853
   66SAPC  C317 5538   4.237  -0.542   8.055 -0.5072 -0.2750  0.0720
   66SAPC  H17X 5539   4.135  -0.574   8.023  0.3640 -1.7325 -1.4006
   66SAPC  H17Y 5540   4.237  -0.524   8.164 -0.7547  0.9429 -0.1210
   66SAPC  C318 5541   4.335  -0.652   8.017 -0.4489  0.1899  0.0893
   66SAPC  H18X 5542   4.343  -0.730   8.096  0.5779 -0.0255 -0.2161
   66SAPC  H18Y 5543   4.433  -0.606   7.995 -0.5779  0.4269  0.0143
   66SAPC  H18Z 5544   4.301  -0.684   7.916 -2.7044  1.9499  0.2206
   67SAPC     N 5545   3.757   1.920   6.277  0.1732  0.3805 -0.2847
   67SAPC   C12 5546   3.772   1.896   6.422  1.3531 -0.0422  0.2114
   67SAPC  H12A 5547   3.727   1.800   6.443 -2.1681  0.4994 -3.5466
   67SAPC  H12B 5548   3.710   1.965   6.477  1.5938  0.2466  0.1216
   67SAPC   C13 5549   3.620   1.925   6.239 -0.1533 -0.2662  0.5535
   67SAPC  H13A 5550   3.609   1.938   6.132  1.4104 -2.2886  0.0872
   67SAPC  H13B 5551   3.572   1.831   6.263  0.4798 -0.8257 -0.3076
   67SAPC  H13C 5552   3.571   2.009   6.286  1.7474  0.9136  0.5176
   67SAPC   C14 5553   3.815   2.048   6.244  0.1388 -0.9290  0.0229
   67SAPC  H14A 5554   3.915   2.060   6.283  0.8137 -1.1224 -1.5881
   67SAPC  H14B 5555   3.835   2.070   6.141  1.0332  2.3719  0.7761
   67SAPC  H14C 5556   3.764   2.136   6.281 -1.2400 -1.5203 -0.4247
   67SAPC   C15 5557   3.817   1.815   6.188 -0.3733  0.4326 -0.1292
   67SAPC  H15A 5558   3.808   1.844   6.084  3.0358 -0.3195 -0.7603
   67SAPC  H15B 5559   3.925   1.808   6.196 -0.3729  1.5709  1.1003
   67SAPC  H15C 5560   3.785   1.714   6.210 -0.5133 -0.3150 -3.2767
   67SAPC   C11 5561   3.907   1.911   6.484 -0.2375  0.3489  0.1284
   67SAPC  H11A 5562   3.895   1.897   6.594  2.8100 -0.3803  0.4674
   67SAPC  H11B 5563   3.940   2.017   6.474  1.6098 -0.3089 -1.3378
   67SAPC     P 5564   4.024   1.678   6.453 -0.0923  0.0289 -0.2641
   67SAPC   O13 5565   3.897   1.614   6.395  0.2317  0.5443  0.1813
   67SAPC   O14 5566   4.149   1.633   6.392 -0.4542  0.0001  0.1283
   67SAPC   O12 5567   4.010   1.832   6.425 -0.5372  0.3645  0.0421
   67SAPC   O11 5568   4.048   1.649   6.611 -0.2195 -0.4782 -0.7671
   67SAPC    C1 5569   4.144   1.726   6.680 -0.2949  0.1384  0.0101
   67SAPC    HA 5570   4.242   1.714   6.629 -0.4162  1.9087 -0.7340
   67SAPC    HB 5571   4.125   1.836   6.677  0.9321  0.3830  0.4626
   67SAPC    C2 5572   4.134   1.701   6.831 -0.3300  0.4153  0.1573
   67SAPC    HS 5573   4.171   1.599   6.855 -1.0317  0.3444  0.9698
   67SAPC   O21 5574   4.000   1.722   6.879 -0.1474 -0.7400  0.0726
   67SAPC   C21 5575   3.927   1.613   6.911 -0.4038  0.4913  0.5737
   67SAPC   O22 5576   3.957   1.495   6.890  0.1749 -0.0668  0.2849
   67SAPC   C22 5577   3.810   1.654   6.997 -0.0008 -0.4275  0.2896
   67SAPC   H2R 5578   3.833   1.607   7.095 -0.7304 -2.2616 -0.3902
   67SAPC   H2S 5579   3.809   1.764   7.018  2.0961 -0.2920 -0.1412
   67SAPC    C3 5580   4.230   1.793   6.909 -0.0435 -0.0468 -0.0588
   67SAPC    HX 5581   4.188   1.893   6.885 -2.6083 -1.2522 -1.0081
   67SAPC    HY 5582   4.330   1.779   6.864 -0.8356 -1.1050 -1.5833
   67SAPC   O31 5583   4.218   1.780   7.057 -0.3640  0.6914  0.0410
   67SAPC   C31 5584   4.290   1.682   7.111 -0.3575 -0.3770 -0.5910
   67SAPC   O32 5585   4.360   1.600   7.052 -0.4735 -0.2058 -0.4624
   67SAPC   C32 5586   4.276   1.686   7.264  0.4161 -0.4784 -0.8179
   67SAPC   H2X 5587   4.335   1.767   7.312  0.4104 -1.9166  1.8417
   67SAPC   H2Y 5588   4.325   1.590   7.294  0.9891  0.1618  0.3891
   67SAPC   C23 5589   3.675   1.606   6.948 -0.2822  0.2799  0.4555
   67SAPC   H3R 5590   3.670   1.497   6.930 -1.6729 -0.0597  2.5117
   67SAPC   H3S 5591   3.647   1.650   6.850  0.1597 -3.4870 -1.5380
   67SAPC   C24 5592   3.561   1.638   7.039  0.3201  0.0725 -0.8386
   67SAPC   H4R 5593   3.558   1.568   7.125 -0.1834 -0.5329 -1.3371
   67SAPC   H4S 5594   3.467   1.616   6.984  0.3460 -1.0301 -0.4608
   67SAPC   C25 5595   3.559   1.777   7.089  1.1859 -0.8378  0.2271
   67SAPC   H5R 5596   3.569   1.853   7.010 -0.2639  0.8727  1.5983
   67SAPC   C26 5597   3.576   1.816   7.221  1.1554  0.1380  0.7129
   67SAPC   H6R 5598   3.563   1.923   7.244 -0.4665  0.9434 -3.2227
   67SAPC   C27 5599   3.579   1.726   7.343  0.2802  0.0038 -0.5394
   67SAPC   H7R 5600   3.648   1.639   7.339 -0.4448 -0.5831 -0.7268
   67SAPC   H7S 5601   3.478   1.678   7.350  1.3946 -2.9892 -2.6138
   67SAPC   C28 5602   3.619   1.808   7.453 -0.2732 -0.4531 -0.1957
   67SAPC   H8R 5603   3.685   1.891   7.425 -0.8590  0.6767  1.6178
   67SAPC   C29 5604   3.587   1.783   7.585 -0.5660  0.0888  0.0674
   67SAPC   H9R 5605   3.620   1.838   7.674 -2.6027 -1.1490  1.6790
   67SAPC  C210 5606   3.497   1.665   7.626 -0.0554  0.1572  0.2461
   67SAPC  H10R 5607   3.553   1.571   7.604  2.3012  2.1297 -3.2057
   67SAPC  H10S 5608   3.412   1.646   7.557  1.3841 -1.8072 -1.0900
   67SAPC  C211 5609   3.440   1.664   7.769  0.0995  0.7453  0.5964
   67SAPC  H11R 5610   3.330   1.667   7.775  0.0157 -0.5037  0.1641
   67SAPC  C212 5611   3.512   1.639   7.879  0.0444  0.5342  0.2046
   67SAPC  H12R 5612   3.456   1.616   7.971  0.1996 -1.2896 -0.1084
   67SAPC  C213 5613   3.656   1.602   7.890  0.1088  0.3988 -0.2929
   67SAPC  H13R 5614   3.718   1.693   7.877  1.3947 -0.3825  0.2374
   67SAPC  H13S 5615   3.670   1.517   7.820 -4.4155 -0.7055 -0.1755
   67SAPC  C214 5616   3.676   1.548   8.031  0.6546 -0.2875 -0.3637
   67SAPC  H14R 5617   3.599   1.481   8.072  0.2330  0.5057  0.1743
   67SAPC  C215 5618   3.771   1.591   8.114  0.6388  0.9462  0.5968
   67SAPC  H15R 5619   3.777   1.543   8.213 -2.0379  0.6797  0.7077
   67SAPC  C216 5620   3.886   1.681   8.075  0.7862 -0.1169 -0.3560
   67SAPC  H16R 5621   3.890   1.677   7.964 -4.0015  1.2587 -0.7620
   67SAPC  H16S 5622   3.986   1.640   8.103  0.3107 -0.7946  0.4233
   67SAPC  C217 5623   3.865   1.833   8.126 -0.5499  0.2779 -0.4567
   67SAPC  H17R 5624   3.783   1.893   8.083 -0.7140 -0.1842 -0.7975
   67SAPC  H17S 5625   3.958   1.893   8.115 -0.6653  1.3944  3.2921
   67SAPC  C218 5626   3.841   1.839   8.277 -0.5990  0.6844  0.3277
   67SAPC  H18R 5627   3.919   1.780   8.329 -1.7592 -0.6555  0.6041
   67SAPC  H18S 5628   3.744   1.794   8.309 -0.3895  0.4057  0.5781
   67SAPC  C219 5629   3.848   1.980   8.336  0.2365 -0.3420  0.2289
   67SAPC  H19R 5630   3.766   2.040   8.288  0.3577  0.6764  1.2529
   67SAPC  H19S 5631   3.942   2.035   8.314 -1.3860  1.3786 -3.3374
   67SAPC  C220 5632   3.803   1.987   8.482  0.9395 -1.2652 -0.0882
   67SAPC  H20R 5633   3.813   2.094   8.510  1.7483 -1.5182  0.6099
   67SAPC  H20S 5634   3.875   1.934   8.547  0.7670  0.3843  1.5161
   67SAPC  H20T 5635   3.695   1.962   8.491  0.8542 -1.2194 -0.8841
   67SAPC   C33 5636   4.124   1.682   7.303  0.5335  0.2124  0.0438
   67SAPC   H3X 5637   4.074   1.616   7.228 -1.0812  2.4037 -0.9265
   67SAPC   H3Y 5638   4.075   1.780   7.284 -1.4881 -0.9422 -1.0346
   67SAPC   C34 5639   4.104   1.640   7.448  0.0567  0.0454  0.2714
   67SAPC   H4X 5640   4.140   1.722   7.513 -1.4823  1.4557 -0.5692
   67SAPC   H4Y 5641   4.180   1.561   7.467  0.4498  0.4951  0.5970
   67SAPC   C35 5642   3.962   1.596   7.492  0.6772 -0.4212  0.3346
   67SAPC   H5X 5643   3.936   1.493   7.457  2.0475 -1.8927  3.3313
   67SAPC   H5Y 5644   3.890   1.664   7.442 -0.6210 -0.0561  2.6020
   67SAPC   C36 5645   3.949   1.596   7.643 -0.7704  0.0945 -0.7767
   67SAPC   H6X 5646   3.841   1.587   7.666 -1.0261  0.1471 -1.8727
   67SAPC   H6Y 5647   3.979   1.695   7.685  1.3713 -0.4503 -0.9183
   67SAPC   C37 5648   4.025   1.482   7.717 -0.0582 -0.4874  0.5841
   67SAPC   H7X 5649   4.061   1.402   7.648 -2.0878 -1.3882  0.5277
   67SAPC   H7Y 5650   3.962   1.427   7.789  0.1701  0.5671  1.6243
   67SAPC   C38 5651   4.155   1.535   7.779 -0.4260  0.0263  0.4554
   67SAPC   H8X 5652   4.126   1.617   7.847 -2.5046 -0.8613  0.7278
   67SAPC   H8Y 5653   4.215   1.563   7.690 -2.4278  0.3086 -0.8860
   67SAPC   C39 5654   4.232   1.420   7.850 -0.6681 -0.7776  0.4210
   67SAPC   H9X 5655   4.337   1.454   7.866 -1.2855  1.2879  0.2685
   67SAPC   H9Y 5656   4.236   1.326   7.789  0.0905  0.2274 -1.1604
   67SAPC  C310 5657   4.174   1.383   7.993 -0.1825  0.0917  0.2023
   67SAPC  H10X 5658   4.180   1.274   8.015 -1.7838 -0.1242 -0.2737
   67SAPC  H10Y 5659   4.063   1.386   7.996 -0.3321 -1.7191 -1.3567
   67SAPC  C311 5660   4.247   1.456   8.111  0.1345  0.2921  0.3557
   67SAPC  H11X 5661   4.227   1.564   8.094 -1.2863 -0.1697 -1.2632
   67SAPC  H11Y 5662   4.356   1.437   8.106  0.1238  0.3840 -0.3645
   67SAPC  C312 5663   4.183   1.406   8.241  0.1971 -0.2123 -0.8337
   67SAPC  H12X 5664   4.225   1.311   8.280  2.3198  1.2648  0.6565
   67SAPC  H12Y 5665   4.077   1.373   8.239  0.0090  0.1918  0.9224
   67SAPC  C313 5666   4.206   1.508   8.349 -0.3074  0.3515 -0.1664
   67SAPC  H13X 5667   4.134   1.590   8.329  0.1160  0.9588  0.7174
   67SAPC  H13Y 5668   4.306   1.554   8.342 -0.0107 -0.2011  0.3891
   67SAPC  C314 5669   4.192   1.451   8.493 -0.0191 -0.5548  0.3127
   67SAPC  H14X 5670   4.260   1.364   8.505  1.0789  0.1650 -0.5429
   67SAPC  H14Y 5671   4.083   1.432   8.509 -0.8550  2.2148 -1.3045
   67SAPC  C315 5672   4.236   1.557   8.593 -0.7471 -0.6340  0.1260
   67SAPC  H15X 5673   4.183   1.653   8.570  1.0073  0.5327  0.7482
   67SAPC  H15Y 5674   4.342   1.589   8.580 -0.9650  0.0460 -0.0178
   67SAPC  C316 5675   4.216   1.514   8.739  0.4651 -0.2530 -0.0287
   67SAPC  H16X 5676   4.302   1.446   8.757  1.2307  0.6469 -0.2355
   67SAPC  H16Y 5677   4.137   1.437   8.756  1.0292 -0.8173  0.0846
   67SAPC  C317 5678   4.202   1.633   8.827 -0.0615  0.1613  0.0747
   67SAPC  H17X 5679   4.124   1.705   8.793 -1.5551  0.2487  3.3325
   67SAPC  H17Y 5680   4.294   1.695   8.814  0.0492 -0.3171 -1.8052
   67SAPC  C318 5681   4.171   1.600   8.966 -0.3274  0.0416 -0.4832
   67SAPC  H18X 5682   4.108   1.510   8.977 -1.4224  0.7898 -0.5027
   67SAPC  H18Y 5683   4.126   1.691   9.011  0.4965  0.1170  0.2296
   67SAPC  H18Z 5684   4.266   1.596   9.024  0.3540 -0.1717 -1.5710
   68SAPC     N 5685   1.932   4.509   5.835 -0.1607 -0.4501 -0.5164
   68SAPC   C12 5686   1.953   4.650   5.894  0.3238  0.6266 -0.4228
   68SAPC  H12A 5687   1.858   4.699   5.881 -0.4440 -0.2208  1.5457
   68SAPC  H12B 5688   2.023   4.703   5.832  0.0874  0.8419 -0.5077
   68SAPC   C13 5689   2.036   4.424   5.877 -0.6992 -0.3651  0.0420
   68SAPC  H13A 5690   2.024   4.320   5.849 -1.7547 -0.5714  1.1733
   68SAPC  H13B 5691   2.131   4.451   5.833 -0.3677 -1.9034 -0.2518
   68SAPC  H13C 5692   2.054   4.422   5.984 -1.5805 -1.4446  0.1885
   68SAPC   C14 5693   1.802   4.454   5.885 -0.4906  0.2435  0.0783
   68SAPC  H14A 5694   1.798   4.348   5.865  1.9105 -0.0891  1.0558
   68SAPC  H14B 5695   1.798   4.462   5.993 -0.1557  1.2892  0.0324
   68SAPC  H14C 5696   1.720   4.508   5.840 -0.0698  0.7979 -0.0399
   68SAPC   C15 5697   1.911   4.513   5.684 -0.2086 -0.4324 -0.2610
   68SAPC  H15A 5698   2.007   4.537   5.641 -1.1264 -0.5559 -2.4624
   68SAPC  H15B 5699   1.878   4.416   5.651 -2.6097 -1.4878  4.4217
   68SAPC  H15C 5700   1.840   4.584   5.644 -1.1586 -0.2021  1.7011
   68SAPC   C11 5701   1.980   4.658   6.046 -0.7180 -0.5540  0.1693
   68SAPC  H11A 5702   1.927   4.579   6.103  0.5238 -0.2194  1.8560
   68SAPC  H11B 5703   1.938   4.754   6.083 -0.4254 -1.2408  2.4255
   68SAPC     P 5704   2.218   4.761   6.032  0.2418  0.0632 -0.2477
   68SAPC   O13 5705   2.360   4.725   6.016 -0.7327  0.8615 -0.4133
   68SAPC   O14 5706   2.167   4.828   5.913  0.0300  0.5129  0.0108
   68SAPC   O12 5707   2.120   4.647   6.079  0.0893 -0.0249 -0.0584
   68SAPC   O11 5708   2.201   4.871   6.139 -0.3140  0.0242  0.1855
   68SAPC    C1 5709   2.238   4.849   6.278  0.3081  0.3515  0.3428
   68SAPC    HA 5710   2.321   4.777   6.294  0.8160  1.4510  2.9976
   68SAPC    HB 5711   2.274   4.947   6.314  0.0459  0.3927  0.4954
   68SAPC    C2 5712   2.122   4.816   6.376 -0.1902  0.2492 -0.6001
   68SAPC    HS 5713   2.082   4.713   6.364  0.5926 -0.4358  1.9077
   68SAPC   O21 5714   2.019   4.913   6.358  0.1361  0.2441 -0.2260
   68SAPC   C21 5715   1.914   4.885   6.430 -0.3338 -0.0524 -0.2998
   68SAPC   O22 5716   1.890   4.774   6.477  0.8884 -0.2942  0.3011
   68SAPC   C22 5717   1.839   5.017   6.470 -0.4604 -0.3965 -0.1756
   68SAPC   H2R 5718   1.798   5.061   6.377  0.0941  0.7194  0.0942
   68SAPC   H2S 5719   1.754   4.971   6.525 -0.2793 -3.8585 -2.5099
   68SAPC    C3 5720   2.189   4.814   6.520 -0.3824 -0.1906  0.0499
   68SAPC    HX 5721   2.275   4.744   6.515  0.0992  0.3441  0.6630
   68SAPC    HY 5722   2.117   4.777   6.596  0.3268 -0.5818  0.5318
   68SAPC   O31 5723   2.236   4.943   6.560 -0.3305 -0.5000 -0.5568
   68SAPC   C31 5724   2.367   4.962   6.563  0.2962 -0.6735  0.0096
   68SAPC   O32 5725   2.461   4.884   6.550 -0.2141 -0.1106  0.3530
   68SAPC   C32 5726   2.379   5.111   6.602 -0.4154 -0.5446  0.4383
   68SAPC   H2X 5727   2.281   5.158   6.623 -1.2204 -1.9553 -0.0353
   68SAPC   H2Y 5728   2.418   5.165   6.514 -0.2808  1.3377  1.6049
   68SAPC   C23 5729   1.926   5.118   6.551 -0.1300  0.5181  0.3706
   68SAPC   H3R 5730   1.867   5.211   6.542 -0.2277  0.2416 -3.2789
   68SAPC   H3S 5731   2.023   5.128   6.497  0.5485 -0.4507  1.3615
   68SAPC   C24 5732   1.957   5.086   6.701  0.3832 -0.0638  0.3505
   68SAPC   H4R 5733   2.036   5.157   6.735 -0.1310  1.0993 -0.8094
   68SAPC   H4S 5734   2.001   4.984   6.697 -0.2667 -0.3213 -0.5167
   68SAPC   C25 5735   1.826   5.104   6.779  0.4176  0.5026 -0.5193
   68SAPC   H5R 5736   1.756   5.021   6.765  0.9015  0.0607 -0.3334
   68SAPC   C26 5737   1.794   5.200   6.873  0.3649  0.0694  0.3561
   68SAPC   H6R 5738   1.691   5.188   6.910 -1.5598  0.6894 -4.1129
   68SAPC   C27 5739   1.876   5.315   6.917 -0.0691  0.8601  0.2971
   68SAPC   H7R 5740   1.914   5.366   6.826  2.3313  0.7091  1.1230
   68SAPC   H7S 5741   1.966   5.275   6.970 -1.3173 -2.7682 -0.1271
   68SAPC   C28 5742   1.815   5.429   6.994  0.6318 -0.2517  1.0710
   68SAPC   H8R 5743   1.755   5.496   6.932  0.7612  1.9081  3.1421
   68SAPC   C29 5744   1.826   5.455   7.130  0.3802  0.0464  1.0193
   68SAPC   H9R 5745   1.758   5.532   7.171 -1.3025 -0.8947  0.0807
   68SAPC  C210 5746   1.917   5.384   7.227 -0.5194  0.1127 -0.2096
   68SAPC  H10R 5747   1.918   5.274   7.212  0.3332  0.3632 -2.3543
   68SAPC  H10S 5748   1.870   5.398   7.327 -0.0905 -0.1614  0.0383
   68SAPC  C211 5749   2.066   5.420   7.218 -0.1382  0.2010  0.6353
   68SAPC  H11R 5750   2.111   5.423   7.118 -1.7282 -1.5250 -0.2127
   68SAPC  C212 5751   2.149   5.433   7.322 -0.3457  0.5057  0.1492
   68SAPC  H12R 5752   2.246   5.479   7.298 -0.1755 -0.1270 -0.4322
   68SAPC  C213 5753   2.132   5.423   7.473 -0.4895  0.2458 -0.1540
   68SAPC  H13R 5754   2.226   5.370   7.501 -0.9688 -0.4859  0.0826
   68SAPC  H13S 5755   2.047   5.361   7.508 -0.9781  1.2535  0.4803
   68SAPC  C214 5756   2.143   5.556   7.541 -0.4563 -0.5151 -0.0936
   68SAPC  H14R 5757   2.187   5.642   7.488 -0.2320  0.4582  1.5857
   68SAPC  C215 5758   2.102   5.579   7.669 -0.0611 -0.0906 -0.5558
   68SAPC  H15R 5759   2.138   5.673   7.714 -2.1731  0.1319  0.8117
   68SAPC  C216 5760   2.032   5.481   7.764 -0.2975 -0.2062 -0.2691
   68SAPC  H16R 5761   2.078   5.380   7.754 -1.3011 -0.5520 -1.7399
   68SAPC  H16S 5762   1.924   5.469   7.744 -0.0497 -1.9081 -0.7453
   68SAPC  C217 5763   2.043   5.549   7.908  0.0758 -0.1403 -0.3636
   68SAPC  H17R 5764   1.982   5.492   7.981  1.2222 -0.0469  0.6988
   68SAPC  H17S 5765   2.009   5.655   7.903  0.8985  0.1844  0.7166
   68SAPC  C218 5766   2.184   5.553   7.965 -0.2078 -0.0428  0.0236
   68SAPC  H18R 5767   2.235   5.644   7.928 -0.1075 -0.4973 -0.9875
   68SAPC  H18S 5768   2.241   5.462   7.934 -2.0224 -0.6307 -1.8465
   68SAPC  C219 5769   2.188   5.552   8.118  0.1855 -0.5625 -0.3459
   68SAPC  H19R 5770   2.140   5.460   8.160  0.9145 -0.9227 -0.2810
   68SAPC  H19S 5771   2.131   5.641   8.150  0.9008 -0.3233  0.3049
   68SAPC  C220 5772   2.334   5.558   8.173  0.1207  0.4318 -0.1791
   68SAPC  H20R 5773   2.390   5.481   8.115 -1.7081 -1.3577  0.2898
   68SAPC  H20S 5774   2.333   5.526   8.280  2.5752 -0.1490 -0.2752
   68SAPC  H20T 5775   2.381   5.657   8.161 -1.2865  1.1017 -0.3439
   68SAPC   C33 5776   2.465   5.151   6.731 -0.4297 -0.0438  0.4783
   68SAPC   H3X 5777   2.485   5.260   6.719  0.3984  0.0956  2.7437
   68SAPC   H3Y 5778   2.558   5.094   6.749  1.3289  1.2342 -3.4893
   68SAPC   C34 5779   2.371   5.125   6.849 -0.3274 -0.2762  0.1977
   68SAPC   H4X 5780   2.348   5.016   6.849 -2.2775  0.0834 -1.1072
   68SAPC   H4Y 5781   2.271   5.175   6.852 -0.9766 -1.5364  2.4528
   68SAPC   C35 5782   2.451   5.156   6.978  0.2067  0.0333 -0.1865
   68SAPC   H5X 5783   2.465   5.265   6.992 -0.1606 -0.0934  1.3986
   68SAPC   H5Y 5784   2.548   5.102   6.981 -0.4813 -1.3663 -1.5123
   68SAPC   C36 5785   2.358   5.125   7.094 -0.0586  0.5525  0.0585
   68SAPC   H6X 5786   2.344   5.015   7.101  2.9486 -0.0380 -1.5024
   68SAPC   H6Y 5787   2.259   5.165   7.067  0.3704 -0.2083 -2.9482
   68SAPC   C37 5788   2.402   5.184   7.230  0.0812 -0.2800  0.4736
   68SAPC   H7X 5789   2.312   5.194   7.294 -0.9183  1.1390 -1.0597
   68SAPC   H7Y 5790   2.468   5.274   7.232 -0.1272 -0.0895 -0.6340
   68SAPC   C38 5791   2.491   5.078   7.297  0.2347 -0.4853  0.3840
   68SAPC   H8X 5792   2.577   5.068   7.228 -1.9460 -0.0824 -2.6115
   68SAPC   H8Y 5793   2.440   4.980   7.298 -0.3940 -0.1913 -0.6699
   68SAPC   C39 5794   2.547   5.108   7.438 -0.2999 -0.0224  0.4986
   68SAPC   H9X 5795   2.603   5.203   7.427  0.5152 -0.5769 -0.2414
   68SAPC   H9Y 5796   2.616   5.027   7.469  0.8961  0.4116 -0.9317
   68SAPC  C310 5797   2.447   5.131   7.548  0.3122 -0.6973 -0.5933
   68SAPC  H10X 5798   2.394   5.039   7.580 -1.6683  0.7403  0.5134
   68SAPC  H10Y 5799   2.359   5.182   7.503 -0.7585 -0.8525  1.2239
   68SAPC  C311 5800   2.500   5.228   7.660 -0.2617  0.7250 -1.2700
   68SAPC  H11X 5801   2.549   5.322   7.625  2.2275  0.2320  0.6125
   68SAPC  H11Y 5802   2.584   5.178   7.712 -0.7926  0.0523 -1.0511
   68SAPC  C312 5803   2.394   5.268   7.765 -0.4234 -0.6303 -0.1751
   68SAPC  H12X 5804   2.312   5.321   7.713  0.0404 -0.4122 -0.6862
   68SAPC  H12Y 5805   2.437   5.329   7.847 -2.7686  1.4223 -0.3805
   68SAPC  C313 5806   2.331   5.146   7.836 -0.3410 -0.4481  0.2432
   68SAPC  H13X 5807   2.281   5.084   7.759 -0.3124 -1.1298  0.7712
   68SAPC  H13Y 5808   2.250   5.177   7.905  0.0424 -2.3483  1.6032
   68SAPC  C314 5809   2.426   5.065   7.919 -0.2905  0.7921 -0.0032
   68SAPC  H14X 5810   2.459   5.115   8.013  0.2745  0.0547  0.2010
   68SAPC  H14Y 5811   2.522   5.041   7.868 -0.0425 -0.4311  1.0024
   68SAPC  C315 5812   2.370   4.933   7.972  0.1566  0.0856 -0.3527
   68SAPC  H15X 5813   2.366   4.866   7.884  0.8462  1.0771 -1.1663
   68SAPC  H15Y 5814   2.263   4.948   7.999  0.3071 -1.1888  1.0500
   68SAPC  C316 5815   2.452   4.866   8.082 -0.2935 -0.3684  0.0049
   68SAPC  H16X 5816   2.442   4.909   8.184 -2.3146 -1.4125  0.3091
   68SAPC  H16Y 5817   2.560   4.869   8.055  0.3784  2.1826  2.5538
   68SAPC  C317 5818   2.412   4.721   8.096 -0.2731 -0.2566  0.1507
   68SAPC  H17X 5819   2.494   4.664   8.146  0.5465  1.1635  0.4932
   68SAPC  H17Y 5820   2.415   4.669   7.998  1.2725 -0.8405  0.4708
   68SAPC  C318 5821   2.282   4.699   8.170 -0.2620  0.9260 -0.0603
   68SAPC  H18X 5822   2.204   4.760   8.121  1.3029  1.8733 -1.4913
   68SAPC  H18Y 5823   2.286   4.731   8.276  0.4782 -2.1612  0.9632
   68SAPC  H18Z 5824   2.243   4.595   8.175 -0.9014  1.1082 -1.1630
   69SLPC     N 5825   4.805   4.185  11.210 -0.5842  0.3340 -0.6765
   69SLPC   C13 5826   4.676   4.123  11.243  0.1227  0.0627 -0.0996
   69SLPC  H13A 5827   4.628   4.186  11.316  0.8631 -0.4441  0.8410
   69SLPC  H13B 5828   4.612   4.105  11.157 -0.3681  2.0373 -0.1911
   69SLPC  H13C 5829   4.701   4.029  11.291  4.6233  0.9270 -0.3728
   69SLPC   C14 5830   4.872   4.201  11.344 -0.5069  0.6823 -0.3650
   69SLPC  H14A 5831   4.914   4.113  11.390 -0.1048  0.2255 -1.5940
   69SLPC  H14B 5832   4.957   4.266  11.327 -1.9082  2.0266 -2.8196
   69SLPC  H14C 5833   4.806   4.257  11.409 -1.4648 -0.9803  0.1527
   69SLPC   C15 5834   4.772   4.327  11.159 -0.3895  0.2812 -0.4072
   69SLPC  H15A 5835   4.712   4.378  11.232 -0.0233 -1.2948  1.0419
   69SLPC  H15B 5836   4.865   4.380  11.139  1.2678 -2.0862  0.6246
   69SLPC  H15C 5837   4.720   4.314  11.065  0.1532 -0.5190 -0.6090
   69SLPC   C12 5838   4.887   4.100  11.122  0.1249 -0.3045 -0.1313
   69SLPC  H12A 5839   4.891   4.004  11.171  0.6087 -0.0672  0.2981
   69SLPC  H12B 5840   4.988   4.134  11.110 -0.2990  1.4940  0.9926
   69SLPC   C11 5841   4.836   4.087  10.983  0.8687 -0.4299  0.2639
   69SLPC  H11A 5842   4.728   4.063  10.997  0.9769  0.1164  2.4599
   69SLPC  H11B 5843   4.880   4.004  10.924  0.0426 -0.1479 -0.7920
   69SLPC     P 5844   4.977   4.259  10.833 -0.0641  0.0577 -0.0066
   69SLPC   O13 5845   4.935   4.335  10.715  0.0250  0.2680  0.2909
   69SLPC   O14 5846   5.062   4.336  10.924 -0.2240  0.4084 -0.3300
   69SLPC   O12 5847   4.852   4.211  10.914  0.1108  0.0967  0.5962
   69SLPC   O11 5848   5.050   4.119  10.788 -0.6144 -0.2000 -0.2661
   69SLPC    C1 5849   4.989   4.049  10.680  0.1977 -0.2043 -0.4032
   69SLPC    HA 5850   5.002   3.940  10.693  0.9730  0.0182  0.8874
   69SLPC    HB 5851   4.880   4.066  10.667 -0.7025 -1.2166  4.1547
   69SLPC    C2 5852   5.054   4.073  10.540  0.2188  0.1112 -0.1604
   69SLPC    HS 5853   5.023   4.172  10.500  0.4441 -0.4721 -1.8284
   69SLPC   O21 5854   5.013   3.965  10.448  0.3590 -0.0225 -0.5636
   69SLPC   C21 5855   4.884   3.974  10.408  0.7728  0.2826  0.0136
   69SLPC   O22 5856   4.814   4.072  10.430 -0.0079  0.2596  0.0059
   69SLPC   C22 5857   4.851   3.857  10.323 -0.0490  0.3014 -0.6066
   69SLPC   H2R 5858   4.859   3.761  10.378 -3.1307 -1.6214 -3.2062
   69SLPC   H2S 5859   4.749   3.873  10.282 -0.3151 -0.4344 -0.2398
   69SLPC    C3 5860   5.212   4.083  10.555 -0.4045 -0.4847 -0.3192
   69SLPC    HX 5861   5.237   3.980  10.587  1.3486 -0.2116 -0.6987
   69SLPC    HY 5862   5.250   4.144  10.640  1.0972 -2.3592  0.4259
   69SLPC   O31 5863   5.270   4.093  10.424  0.1359  0.1615  0.0678
   69SLPC   C31 5864   5.273   4.208  10.363 -0.3762  0.0355  0.6492
   69SLPC   O32 5865   5.215   4.312  10.396 -0.4730 -0.6938  0.2204
   69SLPC   C32 5866   5.364   4.203  10.230  0.4487  0.4775  0.1006
   69SLPC   H2X 5867   5.408   4.304  10.212 -0.2420  0.9538  1.0445
   69SLPC   H2Y 5868   5.285   4.173  10.159  2.1335 -0.1245 -1.6261
   69SLPC   C23 5869   4.950   3.821  10.206  0.5794 -0.3550 -0.2211
   69SLPC   H3R 5870   4.925   3.719  10.171 -1.1044  0.1274 -0.5552
   69SLPC   H3S 5871   5.059   3.831  10.226  0.1954  1.5127  1.2843
   69SLPC   C24 5872   4.936   3.908  10.076  0.6943 -0.7513 -0.1779
   69SLPC   H4R 5873   4.968   4.003  10.124 -0.5719  0.9099 -2.4790
   69SLPC   H4S 5874   4.837   3.914  10.028 -0.4531 -0.8393  2.0649
   69SLPC   C25 5875   5.048   3.886   9.969  0.1807  0.2615  0.2613
   69SLPC   H5R 5876   5.153   3.878  10.006  0.5538 -3.5530 -1.1288
   69SLPC   H5S 5877   5.054   3.974   9.902 -2.5111  1.1757  1.0841
   69SLPC   C26 5878   5.004   3.759   9.890  0.2314 -0.1213  0.2419
   69SLPC   H6R 5879   4.898   3.768   9.861  0.3344  1.1039  0.2197
   69SLPC   H6S 5880   5.023   3.672   9.958  0.6878  0.3454  0.7198
   69SLPC   C27 5881   5.083   3.733   9.767  0.0087 -0.3733  0.0435
   69SLPC   H7R 5882   5.188   3.714   9.798  0.3659 -0.1803 -0.9924
   69SLPC   H7S 5883   5.090   3.824   9.705  1.9478 -0.2366  0.3937
   69SLPC   C28 5884   5.039   3.607   9.682 -0.3387 -0.0025 -0.6491
   69SLPC   H8R 5885   4.937   3.631   9.645 -0.2664 -0.3041 -1.0578
   69SLPC   H8S 5886   5.030   3.532   9.764 -0.4367  0.7221  0.0068
   69SLPC   C29 5887   5.133   3.562   9.575 -0.3905  0.0441  0.1457
   69SLPC   H9R 5888   5.241   3.575   9.595 -0.4365  1.1818 -0.2587
   69SLPC  C210 5889   5.098   3.512   9.459  0.1686  0.0321  0.6825
   69SLPC  H10R 5890   5.181   3.487   9.392 -1.1022 -2.3202 -0.1121
   69SLPC  C211 5891   4.950   3.503   9.417  0.0014  0.2809  0.1489
   69SLPC  H11R 5892   4.879   3.487   9.500 -0.4668  0.2880 -0.2478
   69SLPC  H11S 5893   4.947   3.412   9.354 -0.1025  0.0271  0.5165
   69SLPC  C212 5894   4.898   3.614   9.329  0.7513 -0.2207 -0.3373
   69SLPC  H12R 5895   4.878   3.702   9.391 -0.7310 -1.7112  1.4298
   69SLPC  C213 5896   4.854   3.608   9.197 -0.6144 -0.1777  0.1384
   69SLPC  H13R 5897   4.820   3.701   9.149  1.9515 -0.0533 -1.6353
   69SLPC  C214 5898   4.873   3.500   9.105 -0.4148 -0.1457  0.4820
   69SLPC  H14R 5899   4.805   3.516   9.019  2.5030  1.0381 -1.7835
   69SLPC  H14S 5900   4.849   3.407   9.161  3.5473 -0.9061  1.2221
   69SLPC  C215 5901   5.017   3.488   9.044  0.0547 -0.1613 -0.5716
   69SLPC  H15R 5902   5.089   3.480   9.127 -1.1140 -1.8384  0.3565
   69SLPC  H15S 5903   5.049   3.580   8.991 -0.0740  1.6919  2.3940
   69SLPC  C216 5904   5.034   3.356   8.964  0.1017  0.4265 -0.4796
   69SLPC  H16R 5905   5.026   3.269   9.032  1.8042 -2.1837 -3.3372
   69SLPC  H16S 5906   5.135   3.349   8.917 -0.9033 -0.0999 -2.7451
   69SLPC  C217 5907   4.934   3.335   8.848  0.1256 -0.7146 -0.2125
   69SLPC  H17R 5908   4.831   3.354   8.887  0.8603  1.0302  0.9733
   69SLPC  H17S 5909   4.927   3.232   8.806 -0.9274  0.2237 -2.5270
   69SLPC  C218 5910   4.945   3.436   8.736 -0.2762 -0.1292 -0.2091
   69SLPC  H18R 5911   4.981   3.534   8.774 -0.2134  0.2439 -1.2169
   69SLPC  H18S 5912   4.853   3.457   8.678 -2.0841 -3.0101  1.3595
   69SLPC  H18T 5913   5.017   3.389   8.666  0.3442 -2.7061  1.9635
   69SLPC   C33 5914   5.479   4.098  10.225 -0.1627 -0.2708 -0.2319
   69SLPC   H3X 5915   5.454   3.994  10.255 -0.1297  0.3212  2.0160
   69SLPC   H3Y 5916   5.552   4.137  10.298 -0.4616 -1.1356  0.5447
   69SLPC   C34 5917   5.544   4.073  10.088  0.0408 -0.1702  0.2529
   69SLPC   H4X 5918   5.636   4.013  10.107 -0.0030  0.3280  2.2295
   69SLPC   H4Y 5919   5.577   4.168  10.041  1.4077 -0.9953 -0.5465
   69SLPC   C35 5920   5.453   4.012   9.989  0.5331  0.3784  0.2506
   69SLPC   H5X 5921   5.362   4.074  10.001  0.8252  1.0311 -0.7901
   69SLPC   H5Y 5922   5.407   3.911  10.000 -0.0938  0.5608 -0.6084
   69SLPC   C36 5923   5.516   4.009   9.846  0.1643 -0.0640 -0.2247
   69SLPC   H6X 5924   5.610   3.954   9.864 -0.4313 -0.6189  1.4468
   69SLPC   H6Y 5925   5.529   4.115   9.815 -0.3921 -0.3333 -1.4168
   69SLPC   C37 5926   5.418   3.945   9.754 -0.2642 -0.0339  0.7524
   69SLPC   H7X 5927   5.313   3.976   9.775 -0.8972 -1.7009  0.2479
   69SLPC   H7Y 5928   5.415   3.836   9.775  0.3046 -0.1191  0.3986
   69SLPC   C38 5929   5.439   3.969   9.601 -0.0636  0.6634 -0.1614
   69SLPC   H8X 5930   5.529   3.920   9.559 -0.6857  1.8828 -3.1908
   69SLPC   H8Y 5931   5.455   4.078   9.594 -1.5811  1.5098  5.0129
   69SLPC   C39 5932   5.324   3.909   9.514  0.4997 -0.1775 -0.3893
   69SLPC   H9X 5933   5.231   3.962   9.544  1.8807  2.5871 -0.6475
   69SLPC   H9Y 5934   5.289   3.813   9.557  0.9917  0.1154  0.7076
   69SLPC  C310 5935   5.347   3.904   9.364 -0.5477  0.4396  0.2031
   69SLPC  H10X 5936   5.441   3.846   9.369 -0.1861  1.0247  0.2831
   69SLPC  H10Y 5937   5.373   4.004   9.322 -1.1321  0.4673 -0.1012
   69SLPC  C311 5938   5.241   3.849   9.272  0.0707  0.4142  0.7212
   69SLPC  H11X 5939   5.144   3.903   9.277 -0.0586  0.3262 -0.4550
   69SLPC  H11Y 5940   5.195   3.753   9.304 -2.0057  1.0200 -0.2425
   69SLPC  C312 5941   5.279   3.844   9.117 -0.3103 -0.5264  0.3203
   69SLPC  H12X 5942   5.302   3.947   9.082 -0.3739 -0.7116 -0.2629
   69SLPC  H12Y 5943   5.184   3.812   9.069  0.5371 -0.7933 -1.2116
   69SLPC  C313 5944   5.360   3.720   9.080 -0.8466  1.1711  0.3294
   69SLPC  H13X 5945   5.316   3.635   9.136 -0.1531  1.2306  0.9918
   69SLPC  H13Y 5946   5.464   3.732   9.117 -0.1401 -0.1032 -1.1285
   69SLPC  C314 5947   5.371   3.690   8.923  0.4471 -0.2517  0.4188
   69SLPC  H14X 5948   5.417   3.782   8.881  0.9696 -0.3629  0.7516
   69SLPC  H14Y 5949   5.268   3.684   8.882  0.8150  1.2766 -0.8122
   69SLPC  C315 5950   5.450   3.567   8.889  0.1059  0.7266 -0.4797
   69SLPC  H15X 5951   5.403   3.483   8.944  0.5726 -0.3952 -1.7434
   69SLPC  H15Y 5952   5.554   3.583   8.927  0.1265 -0.8045  0.2067
   69SLPC  C316 5953   5.456   3.530   8.739  0.4036  0.7805  0.0581
   69SLPC  H16X 5954   5.357   3.484   8.721  0.1890 -0.0750  2.8901
   69SLPC  H16Y 5955   5.528   3.446   8.732 -0.0323  0.3999  0.0976
   69SLPC  C317 5956   5.491   3.646   8.646 -0.6537  0.2876  0.3920
   69SLPC  H17X 5957   5.580   3.702   8.682 -0.0313 -0.1824 -0.3951
   69SLPC  H17Y 5958   5.408   3.720   8.656 -1.1397 -0.4643  2.3727
   69SLPC  C318 5959   5.519   3.594   8.506 -0.1854  0.4285 -0.8234
   69SLPC  H18X 5960   5.554   3.669   8.432 -3.0197  1.5459 -1.1819
   69SLPC  H18Y 5961   5.434   3.548   8.451  0.1362 -1.6058  0.2972
   69SLPC  H18Z 5962   5.606   3.525   8.509  0.5267  1.3365  1.5189
   70SLPC     N 5963   0.435   1.080  10.753  0.2555 -0.1958  0.7530
   70SLPC   C13 5964   0.308   1.016  10.760  0.2991  0.1780  0.0969
   70SLPC  H13A 5965   0.230   1.067  10.706  1.7564  2.4836  0.0377
   70SLPC  H13B 5966   0.326   0.925  10.705 -1.3547 -0.4908  0.5873
   70SLPC  H13C 5967   0.277   0.992  10.861  0.4794  0.3297  0.1882
   70SLPC   C14 5968   0.542   0.986  10.797 -0.0788 -0.2449 -0.5015
   70SLPC  H14A 5969   0.573   0.908  10.730 -0.9922 -0.0109 -1.2255
   70SLPC  H14B 5970   0.628   1.039  10.834 -0.8774 -0.7748  2.3550
   70SLPC  H14C 5971   0.504   0.936  10.885 -2.6622 -0.3283 -1.5836
   70SLPC   C15 5972   0.428   1.200  10.847  0.8581 -0.2742  0.4014
   70SLPC  H15A 5973   0.520   1.253  10.828  0.8392  0.6501  2.5786
   70SLPC  H15B 5974   0.344   1.266  10.830  0.9849 -0.1621  0.2063
   70SLPC  H15C 5975   0.421   1.177  10.952 -0.0193 -1.5743  0.0792
   70SLPC   C12 5976   0.460   1.125  10.605 -0.8008  0.0977  0.1686
   70SLPC  H12A 5977   0.566   1.147  10.603  0.0749 -3.0734  2.5703
   70SLPC  H12B 5978   0.414   1.220  10.580 -0.4492  0.1614 -0.2491
   70SLPC   C11 5979   0.409   1.033  10.489 -0.3013 -0.6165  0.1042
   70SLPC  H11A 5980   0.428   1.102  10.404 -1.6225 -1.2975 -0.7868
   70SLPC  H11B 5981   0.298   1.019  10.490 -0.3198 -0.5754 -0.6667
   70SLPC     P 5982   0.602   0.896  10.378  0.1738 -0.1434 -0.0072
   70SLPC   O13 5983   0.680   1.022  10.384  0.1618  0.2384  0.9413
   70SLPC   O14 5984   0.672   0.765  10.401 -0.0730 -1.0513 -0.6131
   70SLPC   O12 5985   0.482   0.909  10.477 -0.1943  0.0805  0.0775
   70SLPC   O11 5986   0.528   0.879  10.241  0.2541  0.1240  0.1176
   70SLPC    C1 5987   0.406   0.817  10.222  0.2418  0.3988 -0.1308
   70SLPC    HA 5988   0.385   0.723  10.278  1.1259  1.0031  1.2781
   70SLPC    HB 5989   0.329   0.894  10.243  0.0969  0.8650 -2.1519
   70SLPC    C2 5990   0.366   0.794  10.068 -0.7318 -0.1469 -0.8281
   70SLPC    HS 5991   0.439   0.725  10.018  0.2288  1.9037 -2.3988
   70SLPC   O21 5992   0.356   0.925  10.009 -0.0622 -0.1384 -0.2925
   70SLPC   C21 5993   0.406   0.921   9.881  0.0936  0.3910  0.1829
   70SLPC   O22 5994   0.456   0.821   9.836  0.3006 -0.2648  0.7907
   70SLPC   C22 5995   0.370   1.056   9.802 -0.1949  0.5204 -0.3246
   70SLPC   H2R 5996   0.270   1.081   9.842 -0.3180  0.0426 -0.3306
   70SLPC   H2S 5997   0.446   1.132   9.832  1.6433 -0.8539 -1.2522
   70SLPC    C3 5998   0.236   0.721  10.056 -0.8002  0.1619 -0.3496
   70SLPC    HX 5999   0.164   0.772  10.124  0.9394  1.0467  0.9029
   70SLPC    HY 6000   0.241   0.621  10.104  0.4084  0.8410  1.0359
   70SLPC   O31 6001   0.194   0.711   9.918 -0.3536 -0.1747  0.1689
   70SLPC   C31 6002   0.238   0.610   9.849  0.0207 -0.0829 -0.9884
   70SLPC   O32 6003   0.309   0.513   9.896  0.0950  0.0307 -0.0407
   70SLPC   C32 6004   0.186   0.632   9.718 -0.5779 -0.7748  0.1366
   70SLPC   H2X 6005   0.249   0.716   9.684  0.6133 -2.2319 -1.4466
   70SLPC   H2Y 6006   0.077   0.653   9.721 -0.8088 -1.7742 -0.5866
   70SLPC   C23 6007   0.383   1.035   9.641 -0.5327  0.3826  0.7182
   70SLPC   H3R 6008   0.332   1.117   9.586 -1.3138 -1.0190 -0.7506
   70SLPC   H3S 6009   0.328   0.942   9.614 -1.3082  0.8995  0.4712
   70SLPC   C24 6010   0.527   1.011   9.582 -0.5610 -0.2297 -0.4366
   70SLPC   H4R 6011   0.575   0.925   9.633 -0.3001  0.1265 -0.0702
   70SLPC   H4S 6012   0.588   1.097   9.618 -0.8124  0.8733 -2.5127
   70SLPC   C25 6013   0.530   0.996   9.429 -0.8051 -0.2153  0.0013
   70SLPC   H5R 6014   0.458   1.064   9.379 -1.2529 -1.3267 -0.9224
   70SLPC   H5S 6015   0.488   0.899   9.394  1.0426 -0.7189 -0.9305
   70SLPC   C26 6016   0.669   1.024   9.364  0.4396 -0.0994  0.1253
   70SLPC   H6R 6017   0.745   0.949   9.394  1.9146  1.3304  0.1616
   70SLPC   H6S 6018   0.717   1.115   9.406 -0.2126  0.3947 -0.1780
   70SLPC   C27 6019   0.656   1.029   9.208  0.6099  0.5020  0.0843
   70SLPC   H7R 6020   0.644   1.134   9.175 -2.0164 -0.2848 -1.8605
   70SLPC   H7S 6021   0.576   0.963   9.168  2.2803 -1.9003  0.4900
   70SLPC   C28 6022   0.789   0.973   9.148  0.3657 -0.2092  0.7346
   70SLPC   H8R 6023   0.803   0.866   9.173 -1.8052 -0.5134  0.8220
   70SLPC   H8S 6024   0.867   1.045   9.180  0.2347  0.9915 -1.4132
   70SLPC   C29 6025   0.774   0.995   9.000  0.2588 -0.4183  0.5536
   70SLPC   H9R 6026   0.779   1.103   8.982 -0.3548 -0.6216 -0.9759
   70SLPC  C210 6027   0.766   0.907   8.903 -0.2504  0.7498 -0.3373
   70SLPC  H10R 6028   0.761   0.938   8.797  0.2103 -1.6160 -1.1187
   70SLPC  C211 6029   0.757   0.757   8.917 -0.5658  0.6940 -0.3977
   70SLPC  H11R 6030   0.810   0.727   9.010  1.1590  1.0419 -1.2380
   70SLPC  H11S 6031   0.823   0.727   8.833  0.3660  2.0598 -0.1879
   70SLPC  C212 6032   0.616   0.712   8.908  0.5807 -0.4294  0.2519
   70SLPC  H12R 6033   0.558   0.744   8.995  1.2834 -0.2395  0.6572
   70SLPC  C213 6034   0.559   0.642   8.804  0.0349 -0.3202 -0.3108
   70SLPC  H13R 6035   0.452   0.618   8.811 -0.0828  0.4580  0.8116
   70SLPC  C214 6036   0.626   0.602   8.674  0.1944 -0.2074  0.6463
   70SLPC  H14R 6037   0.585   0.505   8.639  0.9797 -0.3099 -0.0230
   70SLPC  H14S 6038   0.734   0.587   8.696 -0.3151 -2.0493  2.2413
   70SLPC  C215 6039   0.625   0.719   8.574 -0.2303  0.3430  1.2469
   70SLPC  H15R 6040   0.702   0.793   8.605 -1.5793  1.6985  1.4745
   70SLPC  H15S 6041   0.529   0.774   8.568 -0.3255  0.2273  1.7014
   70SLPC  C216 6042   0.675   0.664   8.439 -0.0516  0.7439 -0.4365
   70SLPC  H16R 6043   0.597   0.595   8.400  0.7976 -1.1550  1.0432
   70SLPC  H16S 6044   0.756   0.590   8.460 -1.9478 -2.2762 -2.8484
   70SLPC  C217 6045   0.741   0.762   8.342 -0.3160  0.0052  0.5959
   70SLPC  H17R 6046   0.801   0.841   8.393 -1.5037  0.2038  1.7397
   70SLPC  H17S 6047   0.651   0.807   8.295 -1.6515 -2.2116  0.9085
   70SLPC  C218 6048   0.825   0.697   8.227  0.0008 -0.1347 -0.4367
   70SLPC  H18R 6049   0.912   0.643   8.271 -1.1784 -0.5474  1.4953
   70SLPC  H18S 6050   0.862   0.775   8.156 -0.7383 -0.2901 -1.0054
   70SLPC  H18T 6051   0.766   0.628   8.164 -0.3551 -1.0829  0.8974
   70SLPC   C33 6052   0.226   0.531   9.616  0.1071 -0.6583  0.3136
   70SLPC   H3X 6053   0.201   0.426   9.638  3.5450 -1.0579  3.2656
   70SLPC   H3Y 6054   0.335   0.546   9.602 -0.1512  0.1540 -1.0004
   70SLPC   C34 6055   0.174   0.578   9.471  0.1289  0.2474 -0.1949
   70SLPC   H4X 6056   0.063   0.588   9.465  0.0406  0.4512  1.4092
   70SLPC   H4Y 6057   0.197   0.488   9.410 -0.3787 -1.0465  1.4358
   70SLPC   C35 6058   0.237   0.702   9.414 -0.5155  0.1087  0.3382
   70SLPC   H5X 6059   0.345   0.676   9.428 -0.6584 -1.8602 -1.7166
   70SLPC   H5Y 6060   0.214   0.797   9.465 -0.5928  0.7648 -0.8795
   70SLPC   C36 6061   0.204   0.705   9.259 -0.1237 -0.2254 -0.7750
   70SLPC   H6X 6062   0.095   0.728   9.255  0.1776  1.4356 -0.2688
   70SLPC   H6Y 6063   0.233   0.612   9.205  0.0965  0.3941 -1.7453
   70SLPC   C37 6064   0.272   0.822   9.185  0.2303 -0.2420 -0.0977
   70SLPC   H7X 6065   0.381   0.801   9.188  0.2899 -0.0508 -0.8667
   70SLPC   H7Y 6066   0.234   0.914   9.234 -1.5877 -1.3308  0.6195
   70SLPC   C38 6067   0.220   0.823   9.038  1.1033 -0.1725 -0.1514
   70SLPC   H8X 6068   0.111   0.843   9.041  1.1168 -0.1267  0.0538
   70SLPC   H8Y 6069   0.244   0.717   9.012  1.1671 -0.3019  0.4296
   70SLPC   C39 6070   0.284   0.942   8.960 -0.0308 -0.0599  0.1712
   70SLPC   H9X 6071   0.395   0.943   8.966  0.0320 -0.2023 -0.8196
   70SLPC   H9Y 6072   0.249   1.034   9.012  3.1217  1.4621 -0.1698
   70SLPC  C310 6073   0.248   0.950   8.810 -0.0123  0.0031  0.5333
   70SLPC  H10X 6074   0.138   0.954   8.794  0.4788  0.0128 -4.3370
   70SLPC  H10Y 6075   0.280   0.858   8.758  1.9422  1.0980 -0.3384
   70SLPC  C311 6076   0.298   1.076   8.744 -0.4925 -0.1872 -0.7083
   70SLPC  H11X 6077   0.263   1.167   8.796 -0.7033 -0.1157 -0.9713
   70SLPC  H11Y 6078   0.270   1.070   8.636 -1.0015  1.0898 -0.6577
   70SLPC  C312 6079   0.453   1.068   8.729  0.3913 -0.1996 -0.0307
   70SLPC  H12X 6080   0.481   0.963   8.707  0.9075 -0.3240  1.1520
   70SLPC  H12Y 6081   0.495   1.098   8.827  0.8071 -1.2653  0.1291
   70SLPC  C313 6082   0.492   1.158   8.604 -0.3209 -0.7632 -0.1292
   70SLPC  H13X 6083   0.462   1.265   8.610 -0.6920 -0.8570 -0.2614
   70SLPC  H13Y 6084   0.446   1.110   8.515  0.2868  1.3624 -1.6713
   70SLPC  C314 6085   0.643   1.154   8.591  0.2967  1.0949  0.1867
   70SLPC  H14X 6086   0.676   1.052   8.560  0.7520  0.8262  1.4642
   70SLPC  H14Y 6087   0.680   1.171   8.695  1.8309  0.2880 -0.1935
   70SLPC  C315 6088   0.707   1.249   8.488  0.8372 -0.2921  0.4862
   70SLPC  H15X 6089   0.676   1.355   8.500  3.2776  0.5308  0.1098
   70SLPC  H15Y 6090   0.659   1.221   8.392  2.2796  0.2608 -0.4351
   70SLPC  C316 6091   0.854   1.244   8.451 -0.2857 -0.2268 -0.4622
   70SLPC  H16X 6092   0.889   1.141   8.426 -1.8010 -1.7024  2.8579
   70SLPC  H16Y 6093   0.903   1.265   8.548 -3.3486 -1.0196  1.4005
   70SLPC  C317 6094   0.888   1.348   8.344 -0.2687  0.6593  0.2422
   70SLPC  H17X 6095   0.820   1.327   8.259 -0.1029 -1.8014  0.6336
   70SLPC  H17Y 6096   0.992   1.338   8.304  0.4559 -0.3988  2.2384
   70SLPC  C318 6097   0.877   1.496   8.379 -0.1659  0.6564 -0.3578
   70SLPC  H18X 6098   0.965   1.530   8.438  1.3531 -2.0934 -0.8746
   70SLPC  H18Y 6099   0.784   1.521   8.436 -0.7943  1.7110 -1.7992
   70SLPC  H18Z 6100   0.862   1.551   8.284 -2.5369  0.0083 -0.4223
   71SLPC     N 6101   0.169   6.357  10.912  0.1702 -0.7026 -0.2075
   71SLPC   C13 6102   0.219   6.400  11.045 -0.2215  0.8079  0.1405
   71SLPC  H13A 6103   0.302   6.336  11.071  1.6365  0.5895 -5.1584
   71SLPC  H13B 6104   0.238   6.506  11.051  0.1620  0.6609  2.8403
   71SLPC  H13C 6105   0.141   6.378  11.117  1.4530 -0.7939  1.5538
   71SLPC   C14 6106   0.257   6.378  10.800  0.1438 -0.0735  0.2802
   71SLPC  H14A 6107   0.223   6.340  10.705 -0.0701  0.2194  0.2397
   71SLPC  H14B 6108   0.281   6.483  10.795 -0.5664  0.2068  1.9719
   71SLPC  H14C 6109   0.345   6.317  10.816 -0.5091 -1.5037 -1.2568
   71SLPC   C15 6110   0.042   6.442  10.892 -0.9540 -0.5836 -0.7065
   71SLPC  H15A 6111   0.010   6.435  10.789  0.6627 -0.0015 -1.2905
   71SLPC  H15B 6112  -0.032   6.399  10.957  1.5447 -2.4266  1.1153
   71SLPC  H15C 6113   0.063   6.546  10.912  0.1325 -0.2396 -3.2243
   71SLPC   C12 6114   0.135   6.211  10.909 -0.3045 -0.2486  0.4404
   71SLPC  H12A 6115   0.124   6.190  10.803  0.9030  0.4555  0.1555
   71SLPC  H12B 6116   0.040   6.197  10.959 -1.7842 -2.8672 -2.6639
   71SLPC   C11 6117   0.240   6.106  10.959 -0.0871 -0.0682 -1.0624
   71SLPC  H11A 6118   0.197   6.004  10.953  0.3462 -0.4484  1.3482
   71SLPC  H11B 6119   0.275   6.134  11.060 -0.5333  2.5415 -1.5677
   71SLPC     P 6120   0.366   6.048  10.735  0.3588  0.3035  0.6366
   71SLPC   O13 6121   0.479   6.099  10.652  0.7667 -0.2021  0.4535
   71SLPC   O14 6122   0.368   5.898  10.759 -0.8277 -0.0747 -0.2866
   71SLPC   O12 6123   0.358   6.116  10.879 -0.2608 -0.2727 -0.0523
   71SLPC   O11 6124   0.223   6.077  10.674  0.1229  0.5418  0.3724
   71SLPC    C1 6125   0.186   6.051  10.538 -0.4456 -0.4451 -0.5955
   71SLPC    HA 6126   0.162   6.143  10.480 -0.8880 -0.6987 -0.8186
   71SLPC    HB 6127   0.270   5.999  10.488  1.1549 -0.0716  1.5196
   71SLPC    C2 6128   0.066   5.952  10.532  0.6913  0.6594  0.0345
   71SLPC    HS 6129   0.095   5.857  10.582  0.8150 -0.0110 -1.2847
   71SLPC   O21 6130   0.033   5.938  10.398  0.4166  0.4838  0.9669
   71SLPC   C21 6131  -0.050   5.840  10.374  0.1638 -0.9114  1.5385
   71SLPC   O22 6132  -0.083   5.752  10.451  0.3263  0.3234 -0.3267
   71SLPC   C22 6133  -0.064   5.830  10.217  0.7532  0.9585  0.5631
   71SLPC   H2R 6134   0.018   5.886  10.168  1.8871  0.3998  1.7707
   71SLPC   H2S 6135  -0.050   5.722  10.196  2.1519  0.7039  2.5494
   71SLPC    C3 6136  -0.061   6.006  10.604 -0.8665  1.2538 -0.9313
   71SLPC    HX 6137  -0.026   6.035  10.706  1.3831 -2.1373 -0.5610
   71SLPC    HY 6138  -0.146   5.939  10.630 -0.3773  1.4681  1.5129
   71SLPC   O31 6139  -0.106   6.125  10.541 -0.4094  0.3101  1.0414
   71SLPC   C31 6140  -0.215   6.138  10.482  0.4157  0.4698  0.6953
   71SLPC   O32 6141  -0.293   6.047  10.455 -0.1781 -0.1130  0.3669
   71SLPC   C32 6142  -0.234   6.286  10.451  0.1453 -1.2455 -0.3712
   71SLPC   H2X 6143  -0.132   6.327  10.436  0.4473 -1.7998  0.0906
   71SLPC   H2Y 6144  -0.271   6.337  10.543  2.6668 -0.0068  0.0365
   71SLPC   C23 6145  -0.201   5.886  10.166 -0.1225 -0.2951  0.8230
   71SLPC   H3R 6146  -0.209   5.994  10.190 -2.8825 -0.3960  0.6253
   71SLPC   H3S 6147  -0.288   5.843  10.219 -0.1968  0.0188  0.9541
   71SLPC   C24 6148  -0.220   5.876  10.015 -0.6256  0.4432  0.4965
   71SLPC   H4R 6149  -0.224   5.769   9.984  3.1469  0.3686 -0.2018
   71SLPC   H4S 6150  -0.134   5.923   9.962 -0.8282  0.7528  0.4382
   71SLPC   C25 6151  -0.349   5.939   9.955 -0.5276 -0.3537 -0.5770
   71SLPC   H5R 6152  -0.342   6.050   9.962 -3.2132 -0.1976  0.8250
   71SLPC   H5S 6153  -0.437   5.915  10.018 -0.3080 -0.1387 -0.1838
   71SLPC   C26 6154  -0.394   5.894   9.817 -0.3092  0.7032 -0.5868
   71SLPC   H6R 6155  -0.494   5.936   9.793 -0.6286 -0.0201 -0.5739
   71SLPC   H6S 6156  -0.396   5.783   9.825 -0.1620  0.7724  0.7507
   71SLPC   C27 6157  -0.316   5.948   9.697 -0.1788 -0.2284 -0.0621
   71SLPC   H7R 6158  -0.224   5.887   9.688  0.4079  0.7871 -1.2658
   71SLPC   H7S 6159  -0.287   6.054   9.711 -0.1559 -0.1542 -0.6386
   71SLPC   C28 6160  -0.401   5.945   9.567 -0.4663 -0.7322 -0.3507
   71SLPC   H8R 6161  -0.499   5.995   9.584 -1.0061 -2.3398  1.6153
   71SLPC   H8S 6162  -0.443   5.844   9.551 -0.2496 -0.9167  0.2196
   71SLPC   C29 6163  -0.335   5.991   9.444  0.6571  0.1732  0.4968
   71SLPC   H9R 6164  -0.235   5.944   9.440  0.8721  0.5100  1.4432
   71SLPC  C210 6165  -0.374   6.077   9.349 -0.1807 -0.1539 -0.2888
   71SLPC  H10R 6166  -0.307   6.098   9.265  1.3972  0.8369  1.1447
   71SLPC  C211 6167  -0.498   6.162   9.346 -0.2439 -0.0455 -0.6324
   71SLPC  H11R 6168  -0.569   6.143   9.430 -2.3560 -0.0131 -2.3024
   71SLPC  H11S 6169  -0.558   6.137   9.256  0.4562  0.5822 -1.2904
   71SLPC  C212 6170  -0.456   6.307   9.360  0.7430  0.5228  0.3603
   71SLPC  H12R 6171  -0.464   6.341   9.464  1.5667  1.4158  0.1398
   71SLPC  C213 6172  -0.434   6.389   9.255  0.0449  1.4136 -0.7749
   71SLPC  H13R 6173  -0.387   6.483   9.288 -0.8760  1.6748 -0.1368
   71SLPC  C214 6174  -0.430   6.360   9.106 -0.2201 -0.5220  0.4356
   71SLPC  H14R 6175  -0.490   6.429   9.043 -0.2821 -0.8905  0.0860
   71SLPC  H14S 6176  -0.477   6.262   9.084  1.1267 -0.9349 -0.7233
   71SLPC  C215 6177  -0.297   6.371   9.035 -0.1521  0.1463  0.1673
   71SLPC  H15R 6178  -0.246   6.273   9.050  1.2005  0.7415 -0.3765
   71SLPC  H15S 6179  -0.244   6.454   9.087  1.0830 -0.9266  0.6916
   71SLPC  C216 6180  -0.302   6.412   8.891  0.7797  0.5505 -0.6532
   71SLPC  H16R 6181  -0.372   6.498   8.891 -0.8197 -0.6826 -0.2225
   71SLPC  H16S 6182  -0.356   6.334   8.833  2.8986 -1.7906  0.3259
   71SLPC  C217 6183  -0.180   6.472   8.820  0.0774 -0.5404  0.5861
   71SLPC  H17R 6184  -0.092   6.406   8.825 -0.6754 -1.5439  0.9896
   71SLPC  H17S 6185  -0.152   6.566   8.874 -0.4582  0.7770 -1.3469
   71SLPC  C218 6186  -0.196   6.519   8.675  0.1626 -0.5070  0.1022
   71SLPC  H18R 6187  -0.227   6.430   8.618 -0.5559 -0.7116  0.8059
   71SLPC  H18S 6188  -0.096   6.543   8.631 -0.3032 -0.4192 -0.9309
   71SLPC  H18T 6189  -0.266   6.605   8.669 -0.9052 -1.1900  1.9345
   71SLPC   C33 6190  -0.334   6.314  10.334  0.0163  0.9408  0.4953
   71SLPC   H3X 6191  -0.443   6.314  10.359 -0.0192  0.2463  0.3515
   71SLPC   H3Y 6192  -0.313   6.243  10.252 -2.6538  1.2622 -0.5624
   71SLPC   C34 6193  -0.318   6.455  10.275  0.2648  0.0774 -0.1174
   71SLPC   H4X 6194  -0.210   6.481  10.278  0.2774  0.1452 -0.9634
   71SLPC   H4Y 6195  -0.364   6.527  10.345 -0.1093 -1.3989  1.2255
   71SLPC   C35 6196  -0.383   6.451  10.139 -0.0842  0.8554  0.2655
   71SLPC   H5X 6197  -0.494   6.445  10.138 -0.1556  1.1487 -2.7106
   71SLPC   H5Y 6198  -0.353   6.361  10.083  2.8073  1.0500  1.3557
   71SLPC   C36 6199  -0.344   6.568  10.054 -0.0801 -0.1377  0.0205
   71SLPC   H6X 6200  -0.235   6.559  10.035  0.0170  3.1903 -1.7637
   71SLPC   H6Y 6201  -0.356   6.662  10.113  1.3993 -0.0094  0.1362
   71SLPC   C37 6202  -0.411   6.571   9.912 -0.1306 -0.4837 -0.4038
   71SLPC   H7X 6203  -0.517   6.601   9.925 -0.5092 -2.1476  0.6625
   71SLPC   H7Y 6204  -0.420   6.468   9.871  1.1194 -1.9109  2.5934
   71SLPC   C38 6205  -0.361   6.669   9.808  0.7447  0.5959  0.4615
   71SLPC   H8X 6206  -0.264   6.644   9.760 -1.0556 -1.0591 -2.6293
   71SLPC   H8Y 6207  -0.360   6.770   9.854 -2.4691  0.7210  0.5039
   71SLPC   C39 6208  -0.468   6.677   9.698 -0.1955 -0.7013 -0.2564
   71SLPC   H9X 6209  -0.559   6.734   9.728  1.2302  0.9258  1.2468
   71SLPC   H9Y 6210  -0.489   6.578   9.653 -0.0306 -0.8977  0.1011
   71SLPC  C310 6211  -0.407   6.745   9.572  0.4203  0.5641  0.3930
   71SLPC  H10X 6212  -0.318   6.680   9.558 -0.4261 -0.4249 -0.6010
   71SLPC  H10Y 6213  -0.363   6.847   9.582  2.5217 -0.2091 -0.4705
   71SLPC  C311 6214  -0.485   6.744   9.428  0.0172 -0.4718  0.1888
   71SLPC  H11X 6215  -0.567   6.818   9.439 -1.2935 -2.1476  2.3993
   71SLPC  H11Y 6216  -0.538   6.650   9.402 -0.2783 -0.7086  1.5792
   71SLPC  C312 6217  -0.392   6.780   9.310 -0.0253  0.4708  1.0217
   71SLPC  H12X 6218  -0.309   6.707   9.305 -2.7712 -2.7979 -1.6014
   71SLPC  H12Y 6219  -0.356   6.885   9.319 -0.7174  0.7637  0.4897
   71SLPC  C313 6220  -0.478   6.764   9.177 -0.7708  0.5112  0.1979
   71SLPC  H13X 6221  -0.564   6.833   9.191 -0.6399  0.4916  1.1794
   71SLPC  H13Y 6222  -0.517   6.660   9.167 -0.5931  0.5015 -0.4836
   71SLPC  C314 6223  -0.405   6.807   9.050  0.3275  0.2783 -0.4216
   71SLPC  H14X 6224  -0.329   6.734   9.015 -1.1781 -2.0986  0.9493
   71SLPC  H14Y 6225  -0.360   6.907   9.067  0.4992  0.1711 -0.2461
   71SLPC  C315 6226  -0.503   6.825   8.928 -0.2896  0.3231 -0.3942
   71SLPC  H15X 6227  -0.449   6.890   8.855  0.1420  2.3323  1.6184
   71SLPC  H15Y 6228  -0.600   6.872   8.955  0.1577  1.2165 -0.2917
   71SLPC  C316 6229  -0.542   6.709   8.837  0.1250  0.0701  0.3540
   71SLPC  H16X 6230  -0.604   6.637   8.896 -0.9931  1.0939  0.4746
   71SLPC  H16Y 6231  -0.451   6.663   8.793  0.0687 -0.6854  1.0012
   71SLPC  C317 6232  -0.640   6.764   8.719  0.1678 -0.4954  0.6051
   71SLPC  H17X 6233  -0.600   6.858   8.675  0.4923 -0.5286  0.8259
   71SLPC  H17Y 6234  -0.731   6.780   8.779  0.5859 -0.4912  1.2426
   71SLPC  C318 6235  -0.653   6.652   8.621 -0.6236  0.5335 -0.2984
   71SLPC  H18X 6236  -0.702   6.674   8.524  0.0113 -1.1676 -1.0269
   71SLPC  H18Y 6237  -0.703   6.568   8.674 -1.5777 -0.8971 -3.2589
   71SLPC  H18Z 6238  -0.551   6.629   8.586 -0.9248  1.3536 -1.7819
   72SLPC     N 6239   0.166   4.501  11.150 -0.3361  0.1779  0.8776
   72SLPC   C13 6240   0.168   4.377  11.232  0.6008 -1.0248 -0.5096
   72SLPC  H13A 6241   0.263   4.327  11.224  1.5555  0.8979 -1.8823
   72SLPC  H13B 6242   0.156   4.408  11.335 -1.3833 -0.3740 -0.8895
   72SLPC  H13C 6243   0.088   4.307  11.213  0.6933 -1.3026  0.1066
   72SLPC   C14 6244   0.249   4.601  11.214  0.0184 -0.6168 -0.4973
   72SLPC  H14A 6245   0.247   4.699  11.168  0.6242 -0.7786 -0.8861
   72SLPC  H14B 6246   0.205   4.621  11.310  0.0699 -2.0783 -0.1517
   72SLPC  H14C 6247   0.352   4.575  11.234 -0.2295 -1.3153 -0.0868
   72SLPC   C15 6248   0.015   4.548  11.145 -0.0065 -1.4701  0.4309
   72SLPC  H15A 6249  -0.022   4.580  11.241  0.6355 -0.9025  0.4947
   72SLPC  H15B 6250   0.003   4.632  11.078  0.3893 -2.3668 -0.8007
   72SLPC  H15C 6251  -0.043   4.461  11.115  0.7843 -1.9251  0.1933
   72SLPC   C12 6252   0.203   4.467  11.008 -0.8336  0.4822 -0.4396
   72SLPC  H12A 6253   0.175   4.553  10.950  0.9157  2.1285  0.9935
   72SLPC  H12B 6254   0.145   4.385  10.969 -1.2871  2.1081 -3.4102
   72SLPC   C11 6255   0.346   4.425  10.970  0.0416 -0.3636  0.5348
   72SLPC  H11A 6256   0.412   4.496  11.025 -0.6992  2.0718 -1.5146
   72SLPC  H11B 6257   0.374   4.445  10.864 -1.6402 -0.3913  0.0686
   72SLPC     P 6258   0.341   4.170  10.908  0.5085  0.4735 -0.0780
   72SLPC   O13 6259   0.420   4.055  10.959 -0.6044 -0.0737  0.0951
   72SLPC   O14 6260   0.198   4.150  10.906 -0.2706  0.2748 -0.3740
   72SLPC   O12 6261   0.365   4.291  11.008  0.5144  0.2515 -0.1318
   72SLPC   O11 6262   0.391   4.230  10.763 -0.1876 -0.0151 -0.3205
   72SLPC    C1 6263   0.525   4.270  10.742  0.1901  0.0374  0.1072
   72SLPC    HA 6264   0.522   4.380  10.728  1.2233 -0.0143 -0.6355
   72SLPC    HB 6265   0.590   4.243  10.828 -0.7120 -2.3722  0.1124
   72SLPC    C2 6266   0.607   4.194  10.631  0.1366 -0.1223 -0.2145
   72SLPC    HS 6267   0.701   4.250  10.611  1.1785 -2.0703 -0.9947
   72SLPC   O21 6268   0.525   4.182  10.511 -0.2475  0.0174  0.1520
   72SLPC   C21 6269   0.552   4.269  10.421 -0.1375  0.0096  0.0049
   72SLPC   O22 6270   0.638   4.358  10.427  0.0299 -0.4984  0.0190
   72SLPC   C22 6271   0.470   4.251  10.295  0.8788  0.3201 -0.4985
   72SLPC   H2R 6272   0.526   4.189  10.221 -0.7385 -1.3725 -0.3863
   72SLPC   H2S 6273   0.375   4.198  10.315  0.6725  1.4892  1.8923
   72SLPC    C3 6274   0.645   4.049  10.677  0.0782  0.0439  0.1243
   72SLPC    HX 6275   0.545   4.002  10.694 -0.2732  0.8274  0.2931
   72SLPC    HY 6276   0.704   4.043  10.771  0.2439  0.5993  0.0565
   72SLPC   O31 6277   0.709   3.982  10.564 -0.6583 -0.4346 -0.1998
   72SLPC   C31 6278   0.840   3.986  10.573  0.3237  0.0715  0.4793
   72SLPC   O32 6279   0.908   4.031  10.664 -0.3319  0.5924  0.0776
   72SLPC   C32 6280   0.897   3.945  10.441 -0.3765  0.5971  0.5149
   72SLPC   H2X 6281   0.924   3.837  10.449 -1.4270  0.4291  2.2174
   72SLPC   H2Y 6282   0.989   4.002  10.418 -1.7265  2.6367 -0.0668
   72SLPC   C23 6283   0.434   4.390  10.238 -0.4364 -0.3239 -0.1296
   72SLPC   H3R 6284   0.529   4.442  10.214  0.0876 -0.9211  0.5921
   72SLPC   H3S 6285   0.377   4.448  10.314 -2.4186 -3.3647  0.8734
   72SLPC   C24 6286   0.346   4.365  10.110 -0.2463 -0.2987  0.7508
   72SLPC   H4R 6287   0.264   4.302  10.149 -0.6350 -1.1886 -1.3637
   72SLPC   H4S 6288   0.408   4.307  10.038  0.7029  0.3328  1.0409
   72SLPC   C25 6289   0.300   4.500  10.049 -0.5679  0.1500  0.6797
   72SLPC   H5R 6290   0.383   4.562  10.009 -0.2560  1.0015  2.5617
   72SLPC   H5S 6291   0.258   4.562  10.131 -0.0181  2.4631 -0.6811
   72SLPC   C26 6292   0.208   4.484   9.929  0.2423  0.2518 -0.6660
   72SLPC   H6R 6293   0.249   4.417   9.850  0.4390  0.9402 -1.1547
   72SLPC   H6S 6294   0.209   4.585   9.883 -0.5986  1.1368  1.1704
   72SLPC   C27 6295   0.067   4.441   9.970 -1.1186 -0.3291  0.8613
   72SLPC   H7R 6296   0.042   4.516  10.049 -1.8021 -0.7135  1.0153
   72SLPC   H7S 6297   0.073   4.341  10.017  0.1471  0.0932  1.6704
   72SLPC   C28 6298  -0.045   4.435   9.868 -0.6906 -0.7191  0.3441
   72SLPC   H8R 6299  -0.062   4.534   9.819 -0.2914 -0.3151  1.0130
   72SLPC   H8S 6300  -0.137   4.421   9.929 -1.7550  0.0072 -1.0064
   72SLPC   C29 6301  -0.038   4.323   9.765 -0.3381 -0.1106 -0.2307
   72SLPC   H9R 6302  -0.006   4.233   9.819  2.1920  1.8217  1.7177
   72SLPC  C210 6303  -0.056   4.323   9.633 -0.4430 -0.5247  0.1155
   72SLPC  H10R 6304  -0.021   4.229   9.589  2.0656  0.0202  0.7724
   72SLPC  C211 6305  -0.095   4.429   9.533 -0.0561  0.0760  0.7196
   72SLPC  H11R 6306  -0.146   4.513   9.587  0.4553 -1.2741  3.4766
   72SLPC  H11S 6307  -0.170   4.384   9.464 -1.2138 -0.9581  2.5774
   72SLPC  C212 6308   0.020   4.486   9.456 -0.1166  0.6607  0.4181
   72SLPC  H12R 6309   0.118   4.476   9.504  1.0968  2.6363 -1.4619
   72SLPC  C213 6310   0.002   4.542   9.340  0.3037 -0.6147 -0.0702
   72SLPC  H13R 6311   0.083   4.585   9.279 -0.4988  2.8905  1.1174
   72SLPC  C214 6312  -0.129   4.570   9.266 -0.7950  0.4062  0.1735
   72SLPC  H14R 6313  -0.138   4.680   9.252 -1.8140  0.2199 -0.7848
   72SLPC  H14S 6314  -0.214   4.537   9.329  1.1006 -2.1801  1.5486
   72SLPC  C215 6315  -0.133   4.495   9.133 -0.3519 -0.5321 -0.1306
   72SLPC  H15R 6316  -0.137   4.385   9.149 -0.6744 -0.3871  0.8907
   72SLPC  H15S 6317  -0.048   4.521   9.067 -1.0904 -0.3255 -1.0164
   72SLPC  C216 6318  -0.264   4.523   9.054  0.3456  0.6874  0.0052
   72SLPC  H16R 6319  -0.341   4.472   9.114  1.0187  1.3991  1.5197
   72SLPC  H16S 6320  -0.247   4.473   8.956  2.1271 -1.6388  1.4168
   72SLPC  C217 6321  -0.297   4.676   9.025  0.7882  0.2083  0.1381
   72SLPC  H17R 6322  -0.333   4.713   9.123  0.1617 -0.5224  0.1904
   72SLPC  H17S 6323  -0.372   4.684   8.944  0.3782 -1.4716  0.3292
   72SLPC  C218 6324  -0.167   4.762   8.980 -0.0630 -0.2585 -0.4455
   72SLPC  H18R 6325  -0.071   4.738   9.030  0.2426  0.7744 -0.5217
   72SLPC  H18S 6326  -0.191   4.868   9.005  0.3728 -0.4738  0.9940
   72SLPC  H18T 6327  -0.164   4.747   8.870 -1.0539 -0.1314 -0.5015
   72SLPC   C33 6328   0.810   3.972  10.318  0.1488  0.4629  0.9214
   72SLPC   H3X 6329   0.784   4.080  10.320  0.1644  0.4768  2.8072
   72SLPC   H3Y 6330   0.719   3.908  10.319  0.8312 -0.5371  0.0144
   72SLPC   C34 6331   0.876   3.932  10.186 -0.0807 -0.0439  0.0040
   72SLPC   H4X 6332   0.889   3.822  10.181  1.3490  0.1316 -0.8907
   72SLPC   H4Y 6333   0.982   3.967  10.179  0.4926 -0.9934  2.7339
   72SLPC   C35 6334   0.788   3.970  10.063 -0.4681 -0.5037 -1.2501
   72SLPC   H5X 6335   0.687   3.925  10.075 -0.2828 -0.1965  2.7257
   72SLPC   H5Y 6336   0.839   3.932   9.972 -1.7716  0.1411 -2.2865
   72SLPC   C36 6337   0.776   4.126  10.044 -0.1804 -0.5843  0.2285
   72SLPC   H6X 6338   0.876   4.174  10.047 -0.4779  0.3959 -2.5167
   72SLPC   H6Y 6339   0.711   4.167  10.125  0.3077  3.4229 -1.1816
   72SLPC   C37 6340   0.713   4.156   9.907 -0.0095 -0.1792  0.4081
   72SLPC   H7X 6341   0.619   4.104   9.878 -0.8162  0.0747  2.3969
   72SLPC   H7Y 6342   0.796   4.130   9.838  0.2847 -0.8038  0.9906
   72SLPC   C38 6343   0.680   4.307   9.900 -0.7083 -0.0831 -0.0054
   72SLPC   H8X 6344   0.767   4.371   9.928 -0.1223  0.1971 -2.2411
   72SLPC   H8Y 6345   0.607   4.324   9.982  1.9276  0.0180  2.5161
   72SLPC   C39 6346   0.625   4.339   9.763 -0.0288  0.1798  0.0570
   72SLPC   H9X 6347   0.526   4.293   9.745  0.6622 -0.9462 -1.0374
   72SLPC   H9Y 6348   0.699   4.302   9.688 -0.0064  1.1794 -0.4271
   72SLPC  C310 6349   0.618   4.486   9.723 -0.2667 -0.4856 -0.0142
   72SLPC  H10X 6350   0.719   4.530   9.735  0.2374 -1.7734  0.6543
   72SLPC  H10Y 6351   0.546   4.549   9.780  1.1995  0.3751  0.9400
   72SLPC  C311 6352   0.586   4.491   9.575  0.0353  0.0001 -0.0465
   72SLPC  H11X 6353   0.480   4.463   9.561 -0.7710  0.8103  3.5309
   72SLPC  H11Y 6354   0.638   4.419   9.507 -1.7978 -0.6628 -0.8085
   72SLPC  C312 6355   0.616   4.628   9.520 -0.0535  0.9277 -0.7950
   72SLPC  H12X 6356   0.725   4.645   9.525  0.0590  0.2070 -0.7293
   72SLPC  H12Y 6357   0.568   4.697   9.592  0.4468 -0.2269  0.6889
   72SLPC  C313 6358   0.564   4.652   9.378  0.0144 -0.2894 -0.2009
   72SLPC  H13X 6359   0.571   4.561   9.315  1.6471 -0.7400  0.5986
   72SLPC  H13Y 6360   0.634   4.726   9.335  0.9432 -1.3317 -0.5419
   72SLPC  C314 6361   0.421   4.710   9.385  0.6961  0.9362 -0.4757
   72SLPC  H14X 6362   0.418   4.811   9.431  0.9431 -0.5271  3.0027
   72SLPC  H14Y 6363   0.363   4.649   9.457  0.1649  0.4989 -1.2645
   72SLPC  C315 6364   0.335   4.714   9.251 -0.1794  0.8449 -0.7352
   72SLPC  H15X 6365   0.362   4.795   9.180  1.4884 -1.2843 -2.6749
   72SLPC  H15Y 6366   0.231   4.727   9.287  0.0605 -1.2457  0.8962
   72SLPC  C316 6367   0.338   4.581   9.172 -0.1482  0.1162  0.0740
   72SLPC  H16X 6368   0.287   4.499   9.227 -0.0675 -0.8648 -1.2694
   72SLPC  H16Y 6369   0.443   4.558   9.146  0.0095  0.9352 -0.0369
   72SLPC  C317 6370   0.272   4.590   9.032 -0.1183  0.2740 -0.0106
   72SLPC  H17X 6371   0.344   4.644   8.966 -1.5237 -0.7340 -2.5159
   72SLPC  H17Y 6372   0.183   4.655   9.039 -2.1845 -2.5113  2.0123
   72SLPC  C318 6373   0.221   4.457   8.978 -0.0543 -0.0096  0.4329
   72SLPC  H18X 6374   0.295   4.374   8.990  0.0270  0.3345  2.7610
   72SLPC  H18Y 6375   0.195   4.465   8.870  0.9637  0.3344  0.2025
   72SLPC  H18Z 6376   0.132   4.431   9.039  0.0435 -0.5312  0.3611
   73SLPC     N 6377   0.885   2.903  10.728 -0.3615  0.1320 -0.3209
   73SLPC   C13 6378   0.748   2.850  10.708 -0.1360 -0.0413 -0.1502
   73SLPC  H13A 6379   0.714   2.849  10.606 -1.4939  0.9563  0.2488
   73SLPC  H13B 6380   0.725   2.750  10.742 -2.5334 -0.9545 -3.8489
   73SLPC  H13C 6381   0.676   2.918  10.751 -0.0317  0.4859 -0.8015
   73SLPC   C14 6382   0.880   3.049  10.691 -0.0147 -0.4645  0.1573
   73SLPC  H14A 6383   0.972   3.105  10.697 -1.2420  1.5680  0.9428
   73SLPC  H14B 6384   0.822   3.062  10.601 -0.0993 -2.2413 -0.0708
   73SLPC  H14C 6385   0.821   3.096  10.768  0.3627 -0.5683  0.5120
   73SLPC   C15 6386   0.972   2.833  10.625 -0.0536  0.7546  0.0423
   73SLPC  H15A 6387   0.960   2.726  10.632  0.9868  0.6615  0.6264
   73SLPC  H15B 6388   0.939   2.860  10.526  1.9882  2.9939 -0.1167
   73SLPC  H15C 6389   1.078   2.850  10.636 -0.0612  0.4506  0.6336
   73SLPC   C12 6390   0.930   2.886  10.877 -0.3120 -0.2024  0.5553
   73SLPC  H12A 6391   0.928   2.780  10.899  0.7690 -0.1861  0.7974
   73SLPC  H12B 6392   0.847   2.928  10.930 -1.6391 -2.2290  0.2164
   73SLPC   C11 6393   1.065   2.941  10.918 -0.1833  0.4861  0.3271
   73SLPC  H11A 6394   1.142   2.885  10.862 -0.2426  4.5146 -4.4075
   73SLPC  H11B 6395   1.091   2.920  11.024  0.6346 -0.7352 -0.0897
   73SLPC     P 6396   1.064   3.193  10.988  0.0018 -0.0805 -0.2820
   73SLPC   O13 6397   0.968   3.153  11.092 -0.2092  0.3030 -0.6202
   73SLPC   O14 6398   1.195   3.249  11.040 -0.2627 -0.0929  0.1482
   73SLPC   O12 6399   1.081   3.079  10.882 -0.2623 -0.1559 -0.2754
   73SLPC   O11 6400   0.996   3.304  10.901 -0.2249  0.4689  0.3342
   73SLPC    C1 6401   1.072   3.361  10.787  0.1024  0.1891 -0.2586
   73SLPC    HA 6402   1.178   3.365  10.819 -0.6209 -0.4592  2.4186
   73SLPC    HB 6403   1.073   3.288  10.702  2.9156  0.3814 -0.4801
   73SLPC    C2 6404   1.013   3.494  10.730 -0.0751 -0.8049  0.1831
   73SLPC    HS 6405   1.008   3.559  10.820 -0.0128 -0.0088 -0.3772
   73SLPC   O21 6406   0.881   3.462  10.677  0.7791 -0.2456 -0.1364
   73SLPC   C21 6407   0.801   3.560  10.634 -0.5002 -0.1572 -0.4216
   73SLPC   O22 6408   0.810   3.680  10.656  0.2483 -0.0022  0.0617
   73SLPC   C22 6409   0.683   3.489  10.571 -0.1110  0.1500 -0.5155
   73SLPC   H2R 6410   0.667   3.394  10.626 -0.1452  0.9120  0.8358
   73SLPC   H2S 6411   0.593   3.551  10.590  0.5882  0.7053  1.2065
   73SLPC    C3 6412   1.103   3.585  10.635  0.1993  0.4505 -0.6408
   73SLPC    HX 6413   1.209   3.576  10.667  0.0524  1.5551  0.2352
   73SLPC    HY 6414   1.074   3.691  10.655 -2.8599 -0.5350  0.7354
   73SLPC   O31 6415   1.074   3.545  10.503  0.2049 -0.7110 -0.0175
   73SLPC   C31 6416   1.165   3.474  10.431 -0.3871  0.8204 -1.3347
   73SLPC   O32 6417   1.281   3.462  10.467  0.0581 -0.4071  0.2069
   73SLPC   C32 6418   1.094   3.408  10.320  0.2291 -0.8683  0.1182
   73SLPC   H2X 6419   1.051   3.487  10.256  1.4451 -1.6595 -1.7781
   73SLPC   H2Y 6420   1.021   3.342  10.371  0.6562  1.1575  3.6779
   73SLPC   C23 6421   0.717   3.470  10.425  0.0161  0.2092  0.3810
   73SLPC   H3R 6422   0.638   3.408  10.376  1.3240 -0.3428 -1.0973
   73SLPC   H3S 6423   0.813   3.419  10.402 -0.2932  0.1274 -0.7838
   73SLPC   C24 6424   0.733   3.597  10.339  0.3867 -0.4167  0.8678
   73SLPC   H4R 6425   0.799   3.669  10.393 -1.7201  0.9474  1.7434
   73SLPC   H4S 6426   0.634   3.647  10.330  0.2307 -0.9483 -0.6980
   73SLPC   C25 6427   0.771   3.558  10.201  0.7127  1.0428  0.0229
   73SLPC   H5R 6428   0.770   3.448  10.191  0.4899  1.1531 -1.3971
   73SLPC   H5S 6429   0.875   3.585  10.173  1.1470  1.1363  1.6753
   73SLPC   C26 6430   0.664   3.600  10.095  0.3170  0.3867  0.1516
   73SLPC   H6R 6431   0.671   3.711  10.097 -0.9235  0.4774  1.8125
   73SLPC   H6S 6432   0.560   3.572  10.119  0.3460  0.6837  0.6465
   73SLPC   C27 6433   0.680   3.562   9.947  0.0073 -0.0423 -0.1214
   73SLPC   H7R 6434   0.605   3.624   9.893  1.9288  1.5979 -1.0618
   73SLPC   H7S 6435   0.648   3.457   9.930 -0.8720 -0.1773  2.0148
   73SLPC   C28 6436   0.823   3.573   9.896 -0.4656 -0.4718  0.1734
   73SLPC   H8R 6437   0.891   3.499   9.943  0.0851 -0.6070 -0.7938
   73SLPC   H8S 6438   0.859   3.673   9.928  0.1053 -1.0842  1.5097
   73SLPC   C29 6439   0.839   3.546   9.749 -0.0765 -0.0207 -0.6119
   73SLPC   H9R 6440   0.829   3.446   9.704 -0.6578  0.8325 -2.4761
   73SLPC  C210 6441   0.844   3.646   9.659 -0.0097  0.0219  0.2516
   73SLPC  H10R 6442   0.860   3.613   9.556 -2.7513 -2.6723  0.5227
   73SLPC  C211 6443   0.832   3.796   9.675 -0.7755 -0.1077  0.2116
   73SLPC  H11R 6444   0.928   3.829   9.630 -1.3265 -0.7755 -1.5337
   73SLPC  H11S 6445   0.828   3.828   9.781  2.9335  0.5795  0.2777
   73SLPC  C212 6446   0.712   3.834   9.594 -0.2975  0.5815 -0.1551
   73SLPC  H12R 6447   0.621   3.805   9.649  1.2071 -2.6090  0.8700
   73SLPC  C213 6448   0.702   3.879   9.468  0.4062 -0.2752 -0.3078
   73SLPC  H13R 6449   0.601   3.908   9.435 -0.3396 -1.0623  1.1994
   73SLPC  C214 6450   0.812   3.915   9.366 -0.5529 -0.6861 -0.1327
   73SLPC  H14R 6451   0.808   3.846   9.279 -0.5936  2.0976 -2.5066
   73SLPC  H14S 6452   0.915   3.906   9.408 -0.7138  0.7183  0.6308
   73SLPC  C215 6453   0.787   4.054   9.316  0.1287 -0.0802  0.1263
   73SLPC  H15R 6454   0.886   4.089   9.281  0.2570 -0.6415 -0.0837
   73SLPC  H15S 6455   0.743   4.117   9.397  0.4176 -0.1443  0.3324
   73SLPC  C216 6456   0.678   4.067   9.202  0.0225  0.2211 -0.0944
   73SLPC  H16R 6457   0.582   4.031   9.244 -0.0157  0.9409  0.4461
   73SLPC  H16S 6458   0.708   3.995   9.123  0.1219  0.9056 -0.6936
   73SLPC  C217 6459   0.652   4.204   9.158  0.0881 -0.8586  0.0202
   73SLPC  H17R 6460   0.736   4.269   9.125 -1.7633  1.5595 -0.2445
   73SLPC  H17S 6461   0.612   4.260   9.245 -0.2506 -0.6919 -0.2350
   73SLPC  C218 6462   0.538   4.212   9.047 -0.4853 -0.2543  0.3189
   73SLPC  H18R 6463   0.572   4.136   8.974 -0.1787  0.8512 -0.7279
   73SLPC  H18S 6464   0.528   4.315   9.008  1.8699  1.2688  3.3002
   73SLPC  H18T 6465   0.436   4.196   9.089 -1.1976 -0.4138 -1.3875
   73SLPC   C33 6466   1.180   3.317  10.233 -0.1583  0.1860  0.4637
   73SLPC   H3X 6467   1.116   3.248  10.174  1.2850 -0.6606 -0.1688
   73SLPC   H3Y 6468   1.241   3.252  10.298  0.3316 -0.7037 -0.8452
   73SLPC   C34 6469   1.270   3.400  10.148 -0.8997  0.0344 -0.2727
   73SLPC   H4X 6470   1.361   3.345  10.116 -0.5616  1.9646 -2.9643
   73SLPC   H4Y 6471   1.317   3.482  10.206 -0.2253 -0.0800 -0.6472
   73SLPC   C35 6472   1.208   3.450  10.015  0.3099  0.2438  0.4474
   73SLPC   H5X 6473   1.106   3.490  10.030 -0.9186 -2.3016 -0.5562
   73SLPC   H5Y 6474   1.180   3.364   9.951  0.8330  1.9496 -2.2537
   73SLPC   C36 6475   1.302   3.545   9.937 -0.2054 -0.5471  0.2054
   73SLPC   H6X 6476   1.402   3.498   9.929 -0.0674 -0.1749 -0.3068
   73SLPC   H6Y 6477   1.320   3.637   9.996  0.2055 -1.1115  0.9736
   73SLPC   C37 6478   1.238   3.598   9.808 -1.0622  0.2963  0.6526
   73SLPC   H7X 6479   1.130   3.616   9.827 -0.8890 -0.0729  2.0824
   73SLPC   H7Y 6480   1.260   3.524   9.728  1.1069  1.2505  0.3042
   73SLPC   C38 6481   1.297   3.729   9.757 -0.5297 -0.5085 -0.1771
   73SLPC   H8X 6482   1.401   3.721   9.721  0.5085  0.8572  2.3090
   73SLPC   H8Y 6483   1.304   3.808   9.835 -1.6230 -1.2371  0.6943
   73SLPC   C39 6484   1.228   3.786   9.625  0.4063 -0.1974 -1.0865
   73SLPC   H9X 6485   1.144   3.853   9.653  1.2605  0.7907 -0.8136
   73SLPC   H9Y 6486   1.190   3.696   9.573 -0.0948  1.0322 -2.9551
   73SLPC  C310 6487   1.322   3.861   9.525 -0.7535  0.6728 -0.2075
   73SLPC  H10X 6488   1.397   3.794   9.476 -0.8551  0.9333 -0.7300
   73SLPC  H10Y 6489   1.371   3.945   9.578 -1.2047  1.6726 -1.3203
   73SLPC  C311 6490   1.247   3.924   9.414  1.0652 -0.3027 -0.6795
   73SLPC  H11X 6491   1.182   4.003   9.457  0.2619 -1.1403 -0.3215
   73SLPC  H11Y 6492   1.181   3.848   9.366 -0.8854  0.6356  0.3919
   73SLPC  C312 6493   1.331   3.977   9.297 -0.5356 -0.0301  0.6951
   73SLPC  H12X 6494   1.396   3.894   9.263  0.7390  0.8094  1.0400
   73SLPC  H12Y 6495   1.404   4.051   9.336  0.7286 -0.1411 -1.3485
   73SLPC  C313 6496   1.246   4.026   9.180  0.3729  0.6320 -0.8452
   73SLPC  H13X 6497   1.194   4.112   9.227 -3.9132 -2.7969  1.4005
   73SLPC  H13Y 6498   1.164   3.955   9.156 -0.2039  0.7046  0.7906
   73SLPC  C314 6499   1.326   4.059   9.057 -0.0284 -0.3449  1.0079
   73SLPC  H14X 6500   1.410   4.130   9.073 -0.6517  1.2299 -2.0244
   73SLPC  H14Y 6501   1.249   4.117   9.003  1.3886  0.1119 -0.6080
   73SLPC  C315 6502   1.376   3.937   8.979 -0.8864  0.5351 -0.0043
   73SLPC  H15X 6503   1.426   3.867   9.049 -2.5221 -1.3351 -0.5946
   73SLPC  H15Y 6504   1.454   3.967   8.906 -0.1314  0.8339  0.9134
   73SLPC  C316 6505   1.269   3.861   8.898 -0.1501  0.0840 -0.1482
   73SLPC  H16X 6506   1.205   3.939   8.851 -0.4434  0.3702  0.7057
   73SLPC  H16Y 6507   1.201   3.796   8.958 -1.8089  0.6919 -1.2729
   73SLPC  C317 6508   1.339   3.775   8.789 -0.2712  0.2327 -0.4325
   73SLPC  H17X 6509   1.398   3.692   8.833  1.4027  1.0975 -0.9452
   73SLPC  H17Y 6510   1.416   3.836   8.737  1.3488  0.0527  1.6301
   73SLPC  C318 6511   1.242   3.726   8.679  0.5226  0.2992 -0.3595
   73SLPC  H18X 6512   1.201   3.814   8.625 -0.0293  0.4686  0.3186
   73SLPC  H18Y 6513   1.154   3.669   8.715  0.3283 -2.2302 -4.1810
   73SLPC  H18Z 6514   1.292   3.659   8.606  0.3503 -1.1005  0.7643
   74SLPC     N 6515   3.178   5.801  10.798  0.1903  0.6313  0.8551
   74SLPC   C13 6516   3.325   5.797  10.779  0.0543  0.1809 -0.4997
   74SLPC  H13A 6517   3.343   5.832  10.678 -1.3761  3.8164  0.3244
   74SLPC  H13B 6518   3.368   5.860  10.856  1.3865 -0.5369 -0.6357
   74SLPC  H13C 6519   3.355   5.694  10.787  0.4640 -0.0006 -3.3326
   74SLPC   C14 6520   3.130   5.945  10.778 -0.0279  0.3417 -0.8789
   74SLPC  H14A 6521   3.029   5.947  10.817  0.7826  1.7977  1.2996
   74SLPC  H14B 6522   3.190   6.013  10.837 -2.1560 -1.4778  3.8203
   74SLPC  H14C 6523   3.127   5.978  10.675  3.3937  2.0191 -0.5951
   74SLPC   C15 6524   3.149   5.757  10.939 -0.2210 -0.6054 -0.1839
   74SLPC  H15A 6525   3.232   5.807  10.987 -0.4048  2.2177 -2.5137
   74SLPC  H15B 6526   3.057   5.800  10.976  0.3147 -0.3875  0.9293
   74SLPC  H15C 6527   3.160   5.651  10.952  0.8646 -0.4396  0.3616
   74SLPC   C12 6528   3.117   5.708  10.693  0.1308 -0.2239  0.0631
   74SLPC  H12A 6529   3.022   5.675  10.733  0.1799 -1.6176 -0.8952
   74SLPC  H12B 6530   3.182   5.624  10.677  0.8191  0.8814 -4.2530
   74SLPC   C11 6531   3.117   5.766  10.547  0.5862 -0.2327 -0.8181
   74SLPC  H11A 6532   3.108   5.679  10.478  2.9918 -1.5896  0.4315
   74SLPC  H11B 6533   3.217   5.813  10.535  0.5365  0.2906  0.6251
   74SLPC     P 6534   2.862   5.843  10.550  0.0452 -0.1626  0.1057
   74SLPC   O13 6535   2.843   5.709  10.614  0.7557 -0.0411 -0.5902
   74SLPC   O14 6536   2.817   5.954  10.633  0.0585 -0.1317  0.5393
   74SLPC   O12 6537   3.017   5.866  10.515  0.3195  0.2017 -0.6299
   74SLPC   O11 6538   2.790   5.842  10.407 -0.1783  0.2724  0.1952
   74SLPC    C1 6539   2.824   5.734  10.315 -0.5928  0.0454  0.8172
   74SLPC    HA 6540   2.934   5.745  10.310 -0.7522  3.1647  1.6343
   74SLPC    HB 6541   2.803   5.637  10.366  1.0796 -1.7544 -1.7128
   74SLPC    C2 6542   2.757   5.756  10.175 -0.5776 -0.2396  0.1980
   74SLPC    HS 6543   2.739   5.652  10.141  0.0562 -0.5983  0.9196
   74SLPC   O21 6544   2.843   5.824  10.078 -0.2058  0.2062  0.6070
   74SLPC   C21 6545   2.958   5.763  10.052  0.1190 -0.0629 -0.0525
   74SLPC   O22 6546   2.976   5.643  10.070  0.3641 -0.1155  0.0045
   74SLPC   C22 6547   3.059   5.850   9.988  0.4167  0.1332  0.7066
   74SLPC   H2R 6548   3.041   5.950  10.033  0.3443  0.4670 -0.0489
   74SLPC   H2S 6549   3.164   5.826  10.017  0.3812  2.3890  3.0465
   74SLPC    C3 6550   2.618   5.831  10.179 -0.7590 -0.6157  1.0061
   74SLPC    HX 6551   2.634   5.941  10.190 -4.1143  0.1668 -0.5447
   74SLPC    HY 6552   2.549   5.809  10.262  0.2477  1.3453  2.4634
   74SLPC   O31 6553   2.554   5.813  10.048 -0.3241 -0.3899  0.2396
   74SLPC   C31 6554   2.465   5.717  10.044 -0.0398 -0.2530 -0.0536
   74SLPC   O32 6555   2.431   5.644  10.136 -0.3098 -0.1104  0.3836
   74SLPC   C32 6556   2.398   5.713   9.912  0.5065  0.1500  0.1062
   74SLPC   H2X 6557   2.380   5.815   9.871  0.5715 -0.3895 -1.2985
   74SLPC   H2Y 6558   2.298   5.667   9.926 -0.6214  2.2309 -0.7308
   74SLPC   C23 6559   3.036   5.861   9.838 -0.1538  0.6843  0.0078
   74SLPC   H3R 6560   3.088   5.952   9.801  0.6901  0.5213  0.7732
   74SLPC   H3S 6561   2.928   5.877   9.819 -0.7087 -0.7758  1.6725
   74SLPC   C24 6562   3.096   5.734   9.764  0.3161 -0.8026 -0.1095
   74SLPC   H4R 6563   3.077   5.641   9.821  1.7472 -0.5418  0.8303
   74SLPC   H4S 6564   3.205   5.749   9.745  0.3859 -0.1907  0.7316
   74SLPC   C25 6565   3.033   5.717   9.621  0.3858  0.1248 -0.7886
   74SLPC   H5R 6566   3.075   5.794   9.552  1.3945 -1.1314 -1.6155
   74SLPC   H5S 6567   2.926   5.743   9.631  1.1261  2.7197  2.0767
   74SLPC   C26 6568   3.049   5.581   9.558  0.2723  0.4106 -0.7086
   74SLPC   H6R 6569   3.019   5.512   9.640 -0.0484  0.1002 -1.0835
   74SLPC   H6S 6570   3.155   5.568   9.530  0.2426 -0.3385 -0.4958
   74SLPC   C27 6571   2.955   5.547   9.442  0.5454  0.2012  0.2348
   74SLPC   H7R 6572   2.988   5.616   9.361 -0.1290  0.0372 -0.1861
   74SLPC   H7S 6573   2.853   5.576   9.477 -0.0629 -1.7596  0.2291
   74SLPC   C28 6574   2.947   5.397   9.404  0.5273 -0.0823 -0.2789
   74SLPC   H8R 6575   2.867   5.381   9.330  0.3457 -0.5308  0.0128
   74SLPC   H8S 6576   2.906   5.345   9.493 -0.5217 -0.6400 -1.0819
   74SLPC   C29 6577   3.082   5.340   9.377 -0.7561  0.2976  0.4943
   74SLPC   H9R 6578   3.127   5.272   9.450  1.5441  0.8288 -0.3489
   74SLPC  C210 6579   3.145   5.346   9.254  0.8253  0.3442 -0.1266
   74SLPC  H10R 6580   3.230   5.278   9.239  0.1641 -0.2048 -1.6970
   74SLPC  C211 6581   3.101   5.417   9.127  0.0001 -0.0564 -0.0338
   74SLPC  H11R 6582   2.992   5.438   9.131  0.0841  0.8701 -1.6406
   74SLPC  H11S 6583   3.116   5.337   9.050 -0.6442  1.3101 -1.6330
   74SLPC  C212 6584   3.187   5.542   9.086 -0.3156 -0.5528 -0.4315
   74SLPC  H12R 6585   3.157   5.641   9.122 -0.1091 -0.5722 -0.2015
   74SLPC  C213 6586   3.301   5.538   9.014 -0.0920 -0.4930 -0.6512
   74SLPC  H13R 6587   3.341   5.632   8.973 -3.5334  1.1190 -0.6355
   74SLPC  C214 6588   3.366   5.416   8.961 -0.4586  0.6140 -0.2798
   74SLPC  H14R 6589   3.342   5.325   9.021 -0.3871  0.7703 -0.0112
   74SLPC  H14S 6590   3.477   5.418   8.959 -0.3525 -2.0070 -1.5998
   74SLPC  C215 6591   3.320   5.382   8.815  0.3271 -0.2082 -0.4776
   74SLPC  H15R 6592   3.216   5.343   8.817  0.0331  0.2439  4.0828
   74SLPC  H15S 6593   3.379   5.297   8.776 -1.0364 -1.5603  0.3061
   74SLPC  C216 6594   3.327   5.506   8.717  0.8533  0.9531 -0.2382
   74SLPC  H16R 6595   3.427   5.556   8.722  0.3048  2.2705 -1.5008
   74SLPC  H16S 6596   3.261   5.585   8.759 -0.7103  1.2489 -2.9722
   74SLPC  C217 6597   3.303   5.472   8.570 -0.5426 -0.0106 -0.1899
   74SLPC  H17R 6598   3.354   5.384   8.524 -0.9835  1.2116 -3.2925
   74SLPC  H17S 6599   3.352   5.560   8.523  2.6987 -1.4249  0.2748
   74SLPC  C218 6600   3.155   5.459   8.532 -0.6891 -0.6486  0.3350
   74SLPC  H18R 6601   3.089   5.487   8.616 -1.0409  2.2716 -0.8158
   74SLPC  H18S 6602   3.132   5.354   8.504  0.9125 -0.7989 -0.5660
   74SLPC  H18T 6603   3.136   5.520   8.441 -0.3821 -2.0398 -0.7008
   74SLPC   C33 6604   2.478   5.627   9.807  0.2947 -0.6347 -0.3188
   74SLPC   H3X 6605   2.484   5.524   9.847  0.5402 -0.9072 -1.0392
   74SLPC   H3Y 6606   2.580   5.673   9.805 -0.3357  0.8276  0.0657
   74SLPC   C34 6607   2.430   5.626   9.658 -0.0241  0.5177 -0.6967
   74SLPC   H4X 6608   2.406   5.729   9.624 -0.3994  0.0289 -1.9288
   74SLPC   H4Y 6609   2.333   5.571   9.657  0.1340 -0.1433  2.9706
   74SLPC   C35 6610   2.530   5.541   9.569 -0.3826 -0.3968 -0.1002
   74SLPC   H5X 6611   2.557   5.441   9.609  0.8372  0.5199  1.4901
   74SLPC   H5Y 6612   2.622   5.603   9.565 -2.2491  2.7261  1.6000
   74SLPC   C36 6613   2.489   5.550   9.418  0.2071  0.2024  0.0241
   74SLPC   H6X 6614   2.478   5.659   9.396  1.9345  0.3403 -0.3193
   74SLPC   H6Y 6615   2.386   5.508   9.416  0.1621  0.3260 -0.5497
   74SLPC   C37 6616   2.583   5.478   9.321 -0.2474  0.1485  0.1684
   74SLPC   H7X 6617   2.564   5.371   9.342  1.3921  0.0211  1.1533
   74SLPC   H7Y 6618   2.687   5.512   9.343 -0.2375  1.0768 -1.1602
   74SLPC   C38 6619   2.557   5.515   9.177 -0.5880  0.4457  0.1940
   74SLPC   H8X 6620   2.537   5.621   9.151 -2.1516  0.3086  0.7015
   74SLPC   H8Y 6621   2.461   5.473   9.138  0.4475 -2.2207  0.2991
   74SLPC   C39 6622   2.663   5.450   9.087  0.0772  0.2289  0.4369
   74SLPC   H9X 6623   2.669   5.343   9.114  0.3579 -0.2397 -1.3617
   74SLPC   H9Y 6624   2.764   5.484   9.115  0.3541 -0.0144 -0.2491
   74SLPC  C310 6625   2.650   5.466   8.925  0.3747 -0.0291 -0.2998
   74SLPC  H10X 6626   2.655   5.574   8.899 -2.9926 -0.1286 -1.9340
   74SLPC  H10Y 6627   2.543   5.437   8.912  0.1988  0.8306 -0.9404
   74SLPC  C311 6628   2.738   5.374   8.840  0.4307  0.0868 -0.2856
   74SLPC  H11X 6629   2.732   5.270   8.880 -2.4757  0.2760 -0.0191
   74SLPC  H11Y 6630   2.839   5.417   8.856  0.6253 -0.0999 -0.9568
   74SLPC  C312 6631   2.700   5.369   8.693  0.7078  0.6118  0.9199
   74SLPC  H12X 6632   2.710   5.461   8.632 -0.5357 -1.4094 -2.6180
   74SLPC  H12Y 6633   2.593   5.344   8.678  0.7688  0.5231  0.6266
   74SLPC  C313 6634   2.784   5.256   8.620  0.4663  0.3528 -0.0606
   74SLPC  H13X 6635   2.765   5.161   8.674  1.5489 -0.6595 -1.3835
   74SLPC  H13Y 6636   2.890   5.288   8.631 -0.0056  1.7327  0.7419
   74SLPC  C314 6637   2.786   5.237   8.470  0.4065  0.3955  1.1831
   74SLPC  H14X 6638   2.694   5.178   8.450 -0.4325  1.6266  1.3177
   74SLPC  H14Y 6639   2.875   5.177   8.443 -0.4415 -0.8528  1.0806
   74SLPC  C315 6640   2.784   5.373   8.381  0.4665 -0.1422  0.0759
   74SLPC  H15X 6641   2.878   5.432   8.386  0.7575 -0.5951  0.0002
   74SLPC  H15Y 6642   2.711   5.444   8.424  0.9001 -0.2755  1.0678
   74SLPC  C316 6643   2.764   5.351   8.229 -0.0120 -0.7405 -0.2654
   74SLPC  H16X 6644   2.659   5.314   8.227 -0.3655  0.0029  1.9938
   74SLPC  H16Y 6645   2.817   5.270   8.175  1.0450  1.2700 -2.4355
   74SLPC  C317 6646   2.760   5.483   8.146 -0.1563  0.1220  0.5603
   74SLPC  H17X 6647   2.853   5.543   8.148 -1.3509  2.0773  0.6453
   74SLPC  H17Y 6648   2.682   5.549   8.190 -2.0462 -0.5543 -1.5707
   74SLPC  C318 6649   2.712   5.450   8.010 -0.2533  0.3531  0.6802
   74SLPC  H18X 6650   2.748   5.348   7.984 -1.1811 -0.0537  0.9611
   74SLPC  H18Y 6651   2.728   5.534   7.939  0.2769  1.5168  2.1291
   74SLPC  H18Z 6652   2.602   5.440   8.024 -0.3514 -1.1787 -0.8013
   75SLPC     N 6653   0.496   1.666   5.728  0.3525 -0.0004  0.7232
   75SLPC   C13 6654   0.602   1.737   5.797 -0.2696 -0.2133 -0.7224
   75SLPC  H13A 6655   0.699   1.731   5.751  0.4350  1.0031  0.5230
   75SLPC  H13B 6656   0.576   1.842   5.797 -0.1229 -0.1161  1.4466
   75SLPC  H13C 6657   0.613   1.713   5.902  1.9849 -1.5524 -1.1976
   75SLPC   C14 6658   0.494   1.728   5.584 -0.2055  0.0013  0.1657
   75SLPC  H14A 6659   0.593   1.741   5.543 -0.8287  0.3567 -1.3016
   75SLPC  H14B 6660   0.442   1.667   5.511  0.0330  1.5714 -1.3692
   75SLPC  H14C 6661   0.447   1.825   5.592  0.1545  0.3365 -1.3958
   75SLPC   C15 6662   0.365   1.682   5.805  0.5031  0.4304 -1.1215
   75SLPC  H15A 6663   0.346   1.786   5.823  0.5143  0.8527 -3.2336
   75SLPC  H15B 6664   0.282   1.637   5.753  0.4289  1.8487 -2.2851
   75SLPC  H15C 6665   0.381   1.630   5.898  0.6852  1.5129 -0.5378
   75SLPC   C12 6666   0.527   1.512   5.724 -0.1577  0.2486 -0.1519
   75SLPC  H12A 6667   0.545   1.480   5.826  0.2126 -1.1491 -0.6389
   75SLPC  H12B 6668   0.621   1.502   5.671 -0.0048  1.2385 -0.0937
   75SLPC   C11 6669   0.426   1.406   5.669 -1.0758 -0.5563 -1.0654
   75SLPC  H11A 6670   0.480   1.311   5.687 -0.1240  0.2991  0.9845
   75SLPC  H11B 6671   0.408   1.420   5.560  0.6791 -2.3823 -1.6336
   75SLPC     P 6672   0.270   1.313   5.861  0.3486 -0.0374  0.0404
   75SLPC   O13 6673   0.174   1.384   5.953  0.2694 -0.6326 -0.0522
   75SLPC   O14 6674   0.226   1.185   5.805 -0.0548  0.6862 -0.3421
   75SLPC   O12 6675   0.303   1.402   5.741 -0.1580 -0.3507  0.1812
   75SLPC   O11 6676   0.406   1.304   5.928  1.0475  0.5537 -0.1661
   75SLPC    C1 6677   0.465   1.179   5.967  0.6568 -0.4678  0.4349
   75SLPC    HA 6678   0.445   1.089   5.906 -2.2173  1.1595 -1.2337
   75SLPC    HB 6679   0.576   1.187   5.958  0.4076  1.7907 -1.5534
   75SLPC    C2 6680   0.433   1.130   6.110 -0.5914  0.7574 -0.4334
   75SLPC    HS 6681   0.326   1.103   6.123  0.3596 -2.3397  2.1972
   75SLPC   O21 6682   0.482   1.241   6.199 -0.4389 -0.1695 -0.3961
   75SLPC   C21 6683   0.417   1.249   6.309  1.3039 -0.0424 -0.2661
   75SLPC   O22 6684   0.315   1.182   6.339  0.0229  0.4313 -0.2714
   75SLPC   C22 6685   0.477   1.366   6.396 -0.4957 -0.1760  0.6659
   75SLPC   H2R 6686   0.542   1.319   6.473  0.0808  0.8433  0.8172
   75SLPC   H2S 6687   0.531   1.435   6.328  2.2760 -1.8000  1.0824
   75SLPC    C3 6688   0.519   1.005   6.136  0.1646 -0.2339 -0.7091
   75SLPC    HX 6689   0.627   1.029   6.126  0.7373 -1.7555  1.1941
   75SLPC    HY 6690   0.494   0.935   6.053 -1.0970 -1.1028  0.3512
   75SLPC   O31 6691   0.499   0.944   6.266 -1.5352 -0.4959  0.0048
   75SLPC   C31 6692   0.424   0.840   6.271 -0.3618 -0.9485 -0.4168
   75SLPC   O32 6693   0.359   0.796   6.179  0.7733 -0.0669  0.0357
   75SLPC   C32 6694   0.437   0.785   6.425 -0.0580  0.1056  0.4909
   75SLPC   H2X 6695   0.502   0.856   6.479  0.5281 -0.4402  0.5228
   75SLPC   H2Y 6696   0.492   0.688   6.420  2.5601  1.5355 -0.1768
   75SLPC   C23 6697   0.360   1.437   6.465 -0.6441  0.2537 -0.6599
   75SLPC   H3R 6698   0.278   1.450   6.391 -1.6512 -2.2226 -0.0791
   75SLPC   H3S 6699   0.398   1.533   6.505  2.0648 -0.6097 -0.9202
   75SLPC   C24 6700   0.300   1.363   6.585 -0.0321 -0.2179 -0.2338
   75SLPC   H4R 6701   0.280   1.256   6.565 -1.3151  0.2918 -1.9130
   75SLPC   H4S 6702   0.213   1.424   6.618 -0.2390 -0.3564 -0.5255
   75SLPC   C25 6703   0.392   1.384   6.712 -0.6083  0.2943 -0.8592
   75SLPC   H5R 6704   0.415   1.492   6.721 -1.1273  0.5172 -2.0244
   75SLPC   H5S 6705   0.492   1.341   6.694  0.0344  2.3557 -2.5244
   75SLPC   C26 6706   0.341   1.322   6.845 -0.4683  0.1150 -0.3737
   75SLPC   H6R 6707   0.423   1.322   6.920 -2.4107 -0.8988  1.8912
   75SLPC   H6S 6708   0.324   1.214   6.823 -0.1001  0.2607 -1.4119
   75SLPC   C27 6709   0.226   1.384   6.927 -0.2545 -0.2149  0.9608
   75SLPC   H7R 6710   0.209   1.319   7.015  1.2089  0.6159  1.9045
   75SLPC   H7S 6711   0.137   1.395   6.861 -1.0318 -0.0382  2.0056
   75SLPC   C28 6712   0.268   1.523   6.973  0.1362 -0.5242 -0.6188
   75SLPC   H8R 6713   0.305   1.586   6.890 -3.5320  0.9867 -1.2888
   75SLPC   H8S 6714   0.353   1.526   7.043 -1.4008 -2.9737  1.5506
   75SLPC   C29 6715   0.145   1.599   7.034  1.0056  0.2731 -0.3433
   75SLPC   H9R 6716   0.064   1.615   6.961  0.1557  1.0293  0.7332
   75SLPC  C210 6717   0.127   1.639   7.159  0.4080 -0.0093 -0.1729
   75SLPC  H10R 6718   0.029   1.687   7.173  0.5974  1.0414 -2.0981
   75SLPC  C211 6719   0.220   1.625   7.284  0.2116  0.3158 -0.3677
   75SLPC  H11R 6720   0.193   1.693   7.368 -0.0070 -1.0790  0.7244
   75SLPC  H11S 6721   0.312   1.675   7.247  0.2122 -0.5741 -1.6516
   75SLPC  C212 6722   0.238   1.486   7.332 -0.5052 -0.2905  0.3019
   75SLPC  H12R 6723   0.241   1.408   7.254 -1.5967 -1.5383  1.4776
   75SLPC  C213 6724   0.246   1.436   7.456  0.3281 -0.7070  0.3002
   75SLPC  H13R 6725   0.230   1.328   7.471 -0.0085 -0.7077 -0.0620
   75SLPC  C214 6726   0.236   1.517   7.585  0.3700  0.2926  0.5176
   75SLPC  H14R 6727   0.146   1.496   7.646  1.4794  0.0047  2.1239
   75SLPC  H14S 6728   0.249   1.626   7.565  0.1822  0.6051  1.9302
   75SLPC  C215 6729   0.356   1.490   7.678  0.2593 -0.1675 -0.2034
   75SLPC  H15R 6730   0.350   1.555   7.768  0.8291 -1.7579  1.0181
   75SLPC  H15S 6731   0.456   1.510   7.635  0.1517  1.1187  0.0877
   75SLPC  C216 6732   0.344   1.345   7.741  0.0666  0.1527 -0.5099
   75SLPC  H16R 6733   0.359   1.267   7.663 -4.2266 -0.3847 -1.0984
   75SLPC  H16S 6734   0.239   1.324   7.772  0.6746  1.4276  2.7503
   75SLPC  C217 6735   0.436   1.323   7.862  0.0931 -0.3216  0.7110
   75SLPC  H17R 6736   0.396   1.391   7.940 -1.8574 -2.3737  1.6273
   75SLPC  H17S 6737   0.540   1.349   7.833 -0.0267  1.3075  1.6407
   75SLPC  C218 6738   0.424   1.184   7.925 -0.8483  0.5249  1.1522
   75SLPC  H18R 6739   0.433   1.116   7.838  2.4442  1.4934  0.5897
   75SLPC  H18S 6740   0.328   1.167   7.979 -1.4844  0.8814  0.1583
   75SLPC  H18T 6741   0.522   1.175   7.977  0.1879  1.8886 -0.4660
   75SLPC   C33 6742   0.299   0.780   6.499 -0.1679  0.1661  0.3592
   75SLPC   H3X 6743   0.251   0.880   6.499  0.1086  0.3109 -0.6197
   75SLPC   H3Y 6744   0.250   0.696   6.444  0.9146  0.7452 -1.5650
   75SLPC   C34 6745   0.311   0.736   6.646 -0.2793 -0.0217 -0.0000
   75SLPC   H4X 6746   0.360   0.637   6.659  0.6022  0.2725 -0.9038
   75SLPC   H4Y 6747   0.207   0.730   6.684 -0.1882  1.0031  0.4428
   75SLPC   C35 6748   0.388   0.839   6.731 -0.2581  0.0249 -0.0314
   75SLPC   H5X 6749   0.359   0.943   6.706  0.5282 -0.1212 -1.7461
   75SLPC   H5Y 6750   0.497   0.834   6.709 -0.5578 -1.3244 -1.4073
   75SLPC   C36 6751   0.358   0.815   6.881 -0.5420 -0.3366 -1.0116
   75SLPC   H6X 6752   0.248   0.829   6.892 -0.4130  0.8380 -1.0532
   75SLPC   H6Y 6753   0.406   0.898   6.937 -1.7520 -0.2137 -0.1365
   75SLPC   C37 6754   0.404   0.685   6.944  1.0019  0.0703 -0.2414
   75SLPC   H7X 6755   0.514   0.687   6.957  0.9887 -2.1579  0.5576
   75SLPC   H7Y 6756   0.376   0.597   6.883 -0.5455 -1.5098  2.5330
   75SLPC   C38 6757   0.330   0.645   7.069  0.2530  0.5584 -0.1348
   75SLPC   H8X 6758   0.340   0.535   7.082  0.5406  0.8301  2.2429
   75SLPC   H8Y 6759   0.222   0.673   7.063 -0.2354  0.3956  4.5753
   75SLPC   C39 6760   0.385   0.706   7.199  0.1516  0.4566  0.2522
   75SLPC   H9X 6761   0.387   0.817   7.193  0.4357  0.4375 -0.1147
   75SLPC   H9Y 6762   0.494   0.682   7.207  0.4656  1.6726 -0.2411
   75SLPC  C310 6763   0.323   0.648   7.327 -0.4202 -0.2530  0.1034
   75SLPC  H10X 6764   0.344   0.539   7.335 -0.3152 -0.3799 -1.4550
   75SLPC  H10Y 6765   0.212   0.657   7.322 -0.2499  2.2091 -0.4038
   75SLPC  C311 6766   0.367   0.724   7.447  0.2063 -0.6920  0.7956
   75SLPC  H11X 6767   0.348   0.832   7.429 -0.1355 -0.7553  0.7634
   75SLPC  H11Y 6768   0.478   0.720   7.449  0.2641 -0.8496 -0.8464
   75SLPC  C312 6769   0.298   0.690   7.583 -0.5980 -0.2313  0.1991
   75SLPC  H12X 6770   0.328   0.588   7.617 -0.0686  0.3080  1.4142
   75SLPC  H12Y 6771   0.189   0.709   7.581 -0.3876  1.2090  0.9055
   75SLPC  C313 6772   0.345   0.789   7.693  0.2641 -0.0012 -0.2202
   75SLPC  H13X 6773   0.289   0.884   7.680 -3.2979 -2.0391 -1.1013
   75SLPC  H13Y 6774   0.452   0.818   7.681  0.4420 -0.6765 -0.3198
   75SLPC  C314 6775   0.315   0.725   7.824 -0.2113 -0.5035 -0.3463
   75SLPC  H14X 6776   0.347   0.619   7.829  3.1327  0.4442  2.0999
   75SLPC  H14Y 6777   0.208   0.739   7.853  1.0840  1.2614  4.7638
   75SLPC  C315 6778   0.366   0.809   7.944  0.3975  0.1462  0.6265
   75SLPC  H15X 6779   0.312   0.906   7.932 -0.3456 -0.4962 -1.7685
   75SLPC  H15Y 6780   0.475   0.824   7.928  0.5654 -2.1381 -0.8556
   75SLPC  C316 6781   0.359   0.739   8.074  0.2092 -0.5182  0.4401
   75SLPC  H16X 6782   0.423   0.649   8.071 -1.6294 -1.8924  0.3360
   75SLPC  H16Y 6783   0.255   0.701   8.089 -0.9879  2.2510 -0.3269
   75SLPC  C317 6784   0.387   0.822   8.199 -0.1104 -0.0069  0.5280
   75SLPC  H17X 6785   0.494   0.852   8.193  0.0186 -0.3125  1.1962
   75SLPC  H17Y 6786   0.379   0.751   8.284  1.5221 -1.1336 -0.2040
   75SLPC  C318 6787   0.309   0.952   8.217 -0.6438 -0.6618 -0.3860
   75SLPC  H18X 6788   0.305   1.009   8.121  2.1417  1.9008  0.8732
   75SLPC  H18Y 6789   0.349   1.008   8.304 -1.2208 -0.4178 -0.2742
   75SLPC  H18Z 6790   0.202   0.934   8.241 -0.3137 -1.2919  0.6433
   76SLPC     N 6791   2.169   6.144   6.117  0.1731 -0.7180  0.3598
   76SLPC   C13 6792   2.191   6.003   6.066  0.7547  0.7016 -0.0831
   76SLPC  H13A 6793   2.096   5.952   6.057  0.3048  0.7823  3.1412
   76SLPC  H13B 6794   2.242   5.995   5.971  0.7395  1.3857 -0.1578
   76SLPC  H13C 6795   2.247   5.944   6.137 -0.6613 -1.9041 -0.9983
   76SLPC   C14 6796   2.119   6.128   6.254 -0.2399  0.1318 -0.0573
   76SLPC  H14A 6797   2.107   6.221   6.308 -1.1755 -0.7813  1.3688
   76SLPC  H14B 6798   2.018   6.091   6.248  0.5665 -2.4265  0.8563
   76SLPC  H14C 6799   2.174   6.059   6.317 -1.4435  0.1255  1.0134
   76SLPC   C15 6800   2.069   6.218   6.026  0.0025 -0.4449  0.5947
   76SLPC  H15A 6801   2.104   6.223   5.924  0.2823  0.6449  0.7353
   76SLPC  H15B 6802   1.972   6.170   6.032  0.0953 -0.4869  2.1828
   76SLPC  H15C 6803   2.037   6.316   6.059 -1.2381  0.0271 -1.7386
   76SLPC   C12 6804   2.302   6.218   6.126  0.3927  0.0771 -0.5622
   76SLPC  H12A 6805   2.376   6.173   6.189  0.6305 -1.8231 -2.1057
   76SLPC  H12B 6806   2.297   6.314   6.175  1.8826  0.6241 -1.4068
   76SLPC   C11 6807   2.372   6.245   5.993 -0.1237 -0.2176  0.2085
   76SLPC  H11A 6808   2.296   6.290   5.925  0.8232  0.1851 -0.6197
   76SLPC  H11B 6809   2.404   6.150   5.946 -0.9339 -0.4194  0.0574
   76SLPC     P 6810   2.463   6.488   6.026 -0.0462 -0.0855  0.2888
   76SLPC   O13 6811   2.469   6.550   5.894  0.4594 -0.2307  0.1455
   76SLPC   O14 6812   2.332   6.506   6.089  0.6729  0.1442 -0.1385
   76SLPC   O12 6813   2.492   6.328   6.015  0.1794 -0.0038 -0.2480
   76SLPC   O11 6814   2.578   6.549   6.114 -0.1782  0.0243 -0.1163
   76SLPC    C1 6815   2.659   6.473   6.202 -0.4941  0.6240  0.6318
   76SLPC    HA 6816   2.717   6.393   6.152 -1.6043  1.1985 -1.7035
   76SLPC    HB 6817   2.735   6.539   6.250 -0.5328  0.8287  0.4110
   76SLPC    C2 6818   2.582   6.411   6.318 -0.1178 -0.1938 -0.2302
   76SLPC    HS 6819   2.523   6.324   6.283 -0.9388  0.2883 -0.0660
   76SLPC   O21 6820   2.497   6.515   6.369 -0.4956 -0.2565  0.1046
   76SLPC   C21 6821   2.381   6.468   6.421  0.0409 -0.3017 -0.2920
   76SLPC   O22 6822   2.342   6.354   6.417  0.1496 -0.6884 -0.5020
   76SLPC   C22 6823   2.311   6.585   6.496 -0.9291 -0.2045 -0.6616
   76SLPC   H2R 6824   2.350   6.684   6.463 -1.7143  0.3372 -0.0088
   76SLPC   H2S 6825   2.202   6.596   6.478 -1.3216 -0.6249  1.1748
   76SLPC    C3 6826   2.683   6.361   6.424  0.0268 -0.2109  0.4089
   76SLPC    HX 6827   2.784   6.346   6.381 -0.2723 -0.3530 -0.2540
   76SLPC    HY 6828   2.640   6.265   6.459  2.1346 -1.5537 -0.5494
   76SLPC   O31 6829   2.686   6.439   6.545 -0.5567  0.1245  0.5851
   76SLPC   C31 6830   2.773   6.540   6.552  0.2020  0.3151  0.2296
   76SLPC   O32 6831   2.856   6.564   6.466 -0.9576 -0.3856 -0.1456
   76SLPC   C32 6832   2.753   6.608   6.686 -0.4921  0.1857  0.7536
   76SLPC   H2X 6833   2.644   6.618   6.706 -0.5462  0.7167  0.2250
   76SLPC   H2Y 6834   2.800   6.708   6.692 -0.2212 -0.0061  2.0965
   76SLPC   C23 6835   2.338   6.580   6.653  0.1218  0.0732  0.6081
   76SLPC   H3R 6836   2.448   6.595   6.656  0.2327 -0.4719 -0.2205
   76SLPC   H3S 6837   2.296   6.480   6.679  1.7425 -0.5812  0.8279
   76SLPC   C24 6838   2.260   6.676   6.736 -0.7044  0.2103 -0.4498
   76SLPC   H4R 6839   2.152   6.687   6.713 -0.7936 -0.6709 -0.4853
   76SLPC   H4S 6840   2.307   6.775   6.716  0.4809 -0.1814  0.2974
   76SLPC   C25 6841   2.290   6.640   6.887 -0.5507 -0.9649 -0.5879
   76SLPC   H5R 6842   2.401   6.638   6.891 -0.3609  2.5824 -0.7636
   76SLPC   H5S 6843   2.262   6.534   6.903  0.2276 -1.4228 -2.1465
   76SLPC   C26 6844   2.223   6.733   6.988  0.6136 -0.5560 -0.3010
   76SLPC   H6R 6845   2.119   6.757   6.960  0.3748  1.3948  1.9696
   76SLPC   H6S 6846   2.277   6.829   6.983 -0.3608  0.0738  0.8487
   76SLPC   C27 6847   2.225   6.685   7.137  0.7995  0.0434  0.9539
   76SLPC   H7R 6848   2.325   6.694   7.186 -0.3632  0.6158  3.3947
   76SLPC   H7S 6849   2.181   6.583   7.139 -1.0901  0.7913  0.0191
   76SLPC   C28 6850   2.134   6.777   7.218 -0.8373  0.0359 -0.1157
   76SLPC   H8R 6851   2.034   6.769   7.170 -0.9576 -3.6402  0.4482
   76SLPC   H8S 6852   2.128   6.728   7.318 -0.4925 -1.2664 -0.7099
   76SLPC   C29 6853   2.191   6.914   7.221 -0.0600 -0.0602  0.6164
   76SLPC   H9R 6854   2.196   6.963   7.122  1.1672  0.5922  0.9748
   76SLPC  C210 6855   2.227   6.985   7.333 -0.3340 -0.1770  0.2801
   76SLPC  H10R 6856   2.279   7.081   7.325  1.5855 -1.1570  0.5321
   76SLPC  C211 6857   2.220   6.937   7.476  0.2109  0.3995 -0.1866
   76SLPC  H11R 6858   2.323   6.952   7.516  0.2903  3.0358 -1.1625
   76SLPC  H11S 6859   2.198   6.828   7.481 -1.1176  0.6840  0.3297
   76SLPC  C212 6860   2.122   7.014   7.563 -0.4126 -0.0812 -0.0588
   76SLPC  H12R 6861   2.098   7.114   7.524 -2.1020 -0.8345 -1.0279
   76SLPC  C213 6862   2.065   6.967   7.678  0.2818 -0.5037  0.1732
   76SLPC  H13R 6863   1.986   7.026   7.726  0.8938  0.7997 -0.3598
   76SLPC  C214 6864   2.085   6.825   7.726 -0.3637 -0.2702 -0.0678
   76SLPC  H14R 6865   2.164   6.762   7.680 -1.6314 -0.1581 -2.5174
   76SLPC  H14S 6866   1.990   6.773   7.702 -1.9061  1.6709  1.4423
   76SLPC  C215 6867   2.100   6.809   7.887 -0.4710 -0.2801  0.0604
   76SLPC  H15R 6868   2.055   6.713   7.919 -0.0208 -0.9920 -1.3747
   76SLPC  H15S 6869   2.033   6.891   7.920 -0.8845  0.2907 -2.0617
   76SLPC  C216 6870   2.243   6.845   7.939 -0.7761  0.3207 -0.7630
   76SLPC  H16R 6871   2.265   6.945   7.896  0.5929  0.0183 -0.8017
   76SLPC  H16S 6872   2.330   6.783   7.909 -1.2845 -0.9680  0.2945
   76SLPC  C217 6873   2.254   6.854   8.093 -0.3813 -0.0457  0.0691
   76SLPC  H17R 6874   2.239   6.753   8.136 -0.9429 -0.7961 -1.8097
   76SLPC  H17S 6875   2.167   6.916   8.126 -0.9375  0.2702 -1.8564
   76SLPC  C218 6876   2.383   6.917   8.137  0.2170  0.2046  0.0656
   76SLPC  H18R 6877   2.391   6.951   8.243 -1.0714  2.1990 -0.4220
   76SLPC  H18S 6878   2.411   7.002   8.072  0.8465  0.5969  0.8320
   76SLPC  H18T 6879   2.456   6.833   8.136 -0.1560 -0.1993  2.1843
   76SLPC   C33 6880   2.822   6.526   6.804 -0.1804 -0.2896  0.4133
   76SLPC   H3X 6881   2.930   6.514   6.780 -0.2951 -0.5916  0.0485
   76SLPC   H3Y 6882   2.782   6.423   6.818 -1.1779 -0.2721 -1.9999
   76SLPC   C34 6883   2.815   6.606   6.935 -0.2097 -0.4930 -0.0278
   76SLPC   H4X 6884   2.711   6.606   6.974 -0.3486  2.4532 -0.1645
   76SLPC   H4Y 6885   2.838   6.710   6.903 -0.0823  0.3173  2.4637
   76SLPC   C35 6886   2.922   6.570   7.043 -0.2334 -0.3883 -0.7461
   76SLPC   H5X 6887   3.024   6.573   7.002 -0.1994  0.2354 -0.6255
   76SLPC   H5Y 6888   2.917   6.462   7.072  1.4399 -0.5768 -1.0998
   76SLPC   C36 6889   2.908   6.647   7.175 -0.7827  0.1430 -0.7106
   76SLPC   H6X 6890   2.817   6.606   7.225  0.4241 -0.2481  1.2542
   76SLPC   H6Y 6891   2.910   6.756   7.154  1.6578  0.8628  2.5135
   76SLPC   C37 6892   3.020   6.631   7.284 -0.1769 -0.0760  0.5110
   76SLPC   H7X 6893   3.113   6.671   7.239 -0.4321  0.8361  0.7521
   76SLPC   H7Y 6894   3.032   6.523   7.305 -2.1574 -1.2553 -3.5260
   76SLPC   C38 6895   2.988   6.697   7.416 -0.3725 -0.7057  0.6065
   76SLPC   H8X 6896   2.884   6.664   7.438 -0.5698 -1.7168 -1.5472
   76SLPC   H8Y 6897   2.985   6.808   7.420  1.0473 -0.6563  0.7918
   76SLPC   C39 6898   3.080   6.645   7.530 -0.5349  0.1995  0.2243
   76SLPC   H9X 6899   3.178   6.679   7.491 -0.7894 -1.4610 -2.0821
   76SLPC   H9Y 6900   3.089   6.534   7.533  2.7253  0.4021  2.1725
   76SLPC  C310 6901   3.039   6.702   7.667 -0.3330  0.1090 -0.3056
   76SLPC  H10X 6902   2.938   6.664   7.691 -1.5560  2.7858 -0.9078
   76SLPC  H10Y 6903   3.031   6.813   7.660  0.6666  0.1340 -1.4059
   76SLPC  C311 6904   3.144   6.677   7.785  0.5322 -0.4693  0.6864
   76SLPC  H11X 6905   3.105   6.728   7.876 -0.9240 -1.8475  0.8903
   76SLPC  H11Y 6906   3.249   6.701   7.760  1.0370 -3.5346 -0.6221
   76SLPC  C312 6907   3.134   6.519   7.805  0.0664 -0.7306  0.5203
   76SLPC  H12X 6908   3.191   6.462   7.729  2.8714 -0.9172  2.6001
   76SLPC  H12Y 6909   3.027   6.489   7.797  0.1852 -1.1812  0.6028
   76SLPC  C313 6910   3.169   6.473   7.945  0.3807  0.4205  0.5790
   76SLPC  H13X 6911   3.152   6.363   7.945  0.7740  0.3201 -1.4868
   76SLPC  H13Y 6912   3.105   6.529   8.017 -0.5717  0.6235 -0.3933
   76SLPC  C314 6913   3.317   6.502   7.969 -0.2884  0.0413 -0.1692
   76SLPC  H14X 6914   3.340   6.610   7.958  2.4056 -0.3073  1.1999
   76SLPC  H14Y 6915   3.372   6.452   7.886 -0.2232 -0.9537  0.4619
   76SLPC  C315 6916   3.374   6.448   8.107 -0.1386  0.3511  0.5638
   76SLPC  H15X 6917   3.484   6.461   8.105  0.1241 -1.5470 -1.0261
   76SLPC  H15Y 6918   3.368   6.338   8.121  0.7339  0.4184  1.4825
   76SLPC  C316 6919   3.315   6.520   8.225  0.0623  0.4588 -0.5680
   76SLPC  H16X 6920   3.352   6.476   8.319  0.3968 -0.6922 -1.2195
   76SLPC  H16Y 6921   3.205   6.508   8.239  0.0804  0.2742 -0.5873
   76SLPC  C317 6922   3.375   6.665   8.227 -0.4960  0.1811  0.1076
   76SLPC  H17X 6923   3.316   6.726   8.155 -3.2194 -2.7637 -0.3392
   76SLPC  H17Y 6924   3.482   6.679   8.200 -0.3024 -0.2504  0.6200
   76SLPC  C318 6925   3.363   6.726   8.367  1.0607  0.3102  0.0746
   76SLPC  H18X 6926   3.453   6.721   8.432  1.2693  1.7850 -0.0507
   76SLPC  H18Y 6927   3.284   6.677   8.426  2.5830 -1.2811  0.8815
   76SLPC  H18Z 6928   3.347   6.836   8.360  1.8539  0.4076 -0.5000
   77SLPC     N 6929   6.067   4.872   6.443 -0.3296 -0.0441  0.0617
   77SLPC   C13 6930   6.155   4.988   6.415  0.5498  0.3809  0.0513
   77SLPC  H13A 6931   6.227   4.961   6.339  0.4745  0.6560 -0.1203
   77SLPC  H13B 6932   6.093   5.067   6.375 -1.0140  0.5323  2.5917
   77SLPC  H13C 6933   6.195   5.031   6.505 -0.6879  2.1327 -0.2032
   77SLPC   C14 6934   6.157   4.765   6.484 -0.3257  0.9459 -0.5325
   77SLPC  H14A 6935   6.105   4.671   6.491  1.1822  0.0001 -1.3766
   77SLPC  H14B 6936   6.232   4.750   6.408  0.1520 -1.3758  0.3164
   77SLPC  H14C 6937   6.208   4.786   6.577 -0.5278 -0.1994 -0.1501
   77SLPC   C15 6938   6.005   4.829   6.307 -0.2362  0.3630  0.2297
   77SLPC  H15A 6939   5.951   4.911   6.262 -1.0819 -1.8668 -3.2097
   77SLPC  H15B 6940   6.077   4.784   6.240 -0.5727  0.0844  0.0518
   77SLPC  H15C 6941   5.930   4.752   6.320  0.9698 -0.6360  1.4979
   77SLPC   C12 6942   5.955   4.897   6.538 -0.3012 -0.2664 -0.0316
   77SLPC  H12A 6943   5.900   4.982   6.500  1.2379 -0.0147 -1.8405
   77SLPC  H12B 6944   5.980   4.944   6.631 -2.7512  0.9890  0.0852
   77SLPC   C11 6945   5.858   4.784   6.570  0.2781 -0.4567  0.8386
   77SLPC  H11A 6946   5.817   4.822   6.667 -0.7694  1.3349 -0.2463
   77SLPC  H11B 6947   5.905   4.684   6.579 -0.1636 -0.8318 -0.7852
   77SLPC     P 6948   5.622   4.710   6.477  0.1524  0.0923  0.4146
   77SLPC   O13 6949   5.562   4.690   6.338  0.5925  0.0869 -0.8496
   77SLPC   O14 6950   5.643   4.578   6.546 -0.5778 -0.3159 -0.3520
   77SLPC   O12 6951   5.761   4.790   6.471 -0.1919 -0.5172  0.2491
   77SLPC   O11 6952   5.522   4.796   6.557  0.1848 -0.4163 -0.4693
   77SLPC    C1 6953   5.500   4.928   6.517  0.0522  0.5931  0.5025
   77SLPC    HA 6954   5.516   4.940   6.408 -3.1560  0.1666 -0.1063
   77SLPC    HB 6955   5.394   4.963   6.521  0.4535  3.0222 -3.6626
   77SLPC    C2 6956   5.595   5.030   6.597 -0.5342 -0.6049  0.6894
   77SLPC    HS 6957   5.698   4.989   6.609  0.0841  0.6788 -0.0441
   77SLPC   O21 6958   5.524   5.059   6.721 -0.1965  0.0665  0.0017
   77SLPC   C21 6959   5.555   4.986   6.826 -0.5736 -0.4528  0.2370
   77SLPC   O22 6960   5.630   4.891   6.838 -0.7129 -0.6184 -0.0540
   77SLPC   C22 6961   5.451   5.043   6.933  0.2093  0.3955  0.6366
   77SLPC   H2R 6962   5.462   5.154   6.932  0.1228  0.4038  0.4297
   77SLPC   H2S 6963   5.349   5.009   6.903  1.0091 -0.8035 -0.8685
   77SLPC    C3 6964   5.621   5.162   6.520 -0.0154 -0.3754 -0.3362
   77SLPC    HX 6965   5.524   5.192   6.477  0.1055 -0.9953 -1.0819
   77SLPC    HY 6966   5.681   5.132   6.431 -0.5179 -0.1143 -0.7665
   77SLPC   O31 6967   5.683   5.265   6.594 -0.0340  0.3916 -0.4200
   77SLPC   C31 6968   5.813   5.265   6.617  0.4890 -0.0086 -0.2519
   77SLPC   O32 6969   5.889   5.174   6.587  0.1063  0.2764  0.3876
   77SLPC   C32 6970   5.851   5.388   6.703 -0.1644 -0.2486 -0.0666
   77SLPC   H2X 6971   5.757   5.441   6.729 -0.8835 -1.6458  0.2569
   77SLPC   H2Y 6972   5.909   5.461   6.643  1.5852 -1.2167  0.3607
   77SLPC   C23 6973   5.487   4.999   7.068  0.5134 -0.5148 -0.1601
   77SLPC   H3R 6974   5.588   5.029   7.101 -0.2626 -1.2940  3.2942
   77SLPC   H3S 6975   5.483   4.888   7.077  1.2152 -0.4077  2.2094
   77SLPC   C24 6976   5.386   5.046   7.180 -0.1768 -0.2387  0.2707
   77SLPC   H4R 6977   5.287   5.002   7.158  0.6939 -2.5139  0.6714
   77SLPC   H4S 6978   5.382   5.157   7.173  0.5928 -0.1139  1.4894
   77SLPC   C25 6979   5.434   4.996   7.316  0.5013 -0.3685 -0.0833
   77SLPC   H5R 6980   5.538   5.034   7.306 -0.2683  1.6037 -1.2243
   77SLPC   H5S 6981   5.432   4.885   7.316 -0.2300 -0.3687 -1.1430
   77SLPC   C26 6982   5.352   5.042   7.435  0.6322  0.8334 -0.3162
   77SLPC   H6R 6983   5.365   4.954   7.502  0.8212  1.5966  0.6803
   77SLPC   H6S 6984   5.244   5.048   7.413  0.0630  1.1785  2.2227
   77SLPC   C27 6985   5.398   5.173   7.493  0.3884 -0.4567  0.0116
   77SLPC   H7R 6986   5.366   5.254   7.424 -1.2161 -0.7388  0.3916
   77SLPC   H7S 6987   5.509   5.176   7.499  0.4068  2.1459 -0.5192
   77SLPC   C28 6988   5.328   5.207   7.624  0.3665 -0.7876  0.4484
   77SLPC   H8R 6989   5.226   5.245   7.604  1.8278  2.5576 -1.3624
   77SLPC   H8S 6990   5.370   5.297   7.674 -0.3349 -1.2454  1.9414
   77SLPC   C29 6991   5.323   5.099   7.719  0.0408  0.8443 -0.2769
   77SLPC   H9R 6992   5.271   5.010   7.680  0.7906  0.5786 -0.6784
   77SLPC  C210 6993   5.370   5.097   7.847 -0.1441 -0.8512  0.4881
   77SLPC  H10R 6994   5.359   5.007   7.909  0.6755 -1.8591 -0.7562
   77SLPC  C211 6995   5.433   5.207   7.928 -1.3099 -0.0554  0.4024
   77SLPC  H11R 6996   5.462   5.299   7.873  0.0092 -0.2880  0.6766
   77SLPC  H11S 6997   5.529   5.168   7.968 -1.2945 -1.1753 -0.6477
   77SLPC  C212 6998   5.344   5.249   8.037  0.1256 -0.4796  0.2780
   77SLPC  H12R 6999   5.236   5.253   8.016  0.2420  2.0807 -0.1689
   77SLPC  C213 7000   5.369   5.281   8.169  0.2161 -0.6878  0.2145
   77SLPC  H13R 7001   5.286   5.321   8.229  0.3715  1.0930 -0.6915
   77SLPC  C214 7002   5.508   5.270   8.230  0.3135 -0.1939 -0.0563
   77SLPC  H14R 7003   5.580   5.299   8.150 -1.7454 -0.0830 -1.9874
   77SLPC  H14S 7004   5.535   5.166   8.260  1.0538  0.1521  0.5069
   77SLPC  C215 7005   5.549   5.365   8.344 -0.0332  0.7418 -0.3765
   77SLPC  H15R 7006   5.518   5.313   8.437  1.0563  1.2143  0.2707
   77SLPC  H15S 7007   5.484   5.455   8.332 -3.4700 -1.6775 -1.2329
   77SLPC  C216 7008   5.694   5.398   8.350 -0.4523  0.0420 -0.0679
   77SLPC  H16R 7009   5.717   5.473   8.271  1.0786 -0.2460  0.0729
   77SLPC  H16S 7010   5.750   5.308   8.318  1.3477  0.8015  0.8161
   77SLPC  C217 7011   5.754   5.455   8.481  0.9494  0.4068 -0.2085
   77SLPC  H17R 7012   5.675   5.520   8.523  0.7850  1.0192 -1.4403
   77SLPC  H17S 7013   5.850   5.510   8.471  0.9280  0.8179  1.4943
   77SLPC  C218 7014   5.770   5.332   8.572 -0.5010  0.0884 -0.0047
   77SLPC  H18R 7015   5.862   5.273   8.551 -1.3365 -0.5701 -2.0218
   77SLPC  H18S 7016   5.688   5.258   8.559 -0.0002 -0.7994  1.6295
   77SLPC  H18T 7017   5.778   5.364   8.679  2.1735  0.2990 -0.2074
   77SLPC   C33 7018   5.946   5.354   6.826 -0.0239  0.6453  0.3314
   77SLPC   H3X 7019   5.980   5.453   6.863  0.6659  0.0578  1.3431
   77SLPC   H3Y 7020   6.034   5.293   6.797 -1.2291 -2.0105  1.8861
   77SLPC   C34 7021   5.860   5.269   6.930  0.5265  0.2575 -0.7690
   77SLPC   H4X 7022   5.800   5.185   6.887  0.3781 -0.7480  1.3125
   77SLPC   H4Y 7023   5.783   5.339   6.969  0.2307  0.0612 -0.9954
   77SLPC   C35 7024   5.942   5.231   7.046 -0.0421  0.0734 -0.0646
   77SLPC   H5X 7025   6.002   5.321   7.071  0.0917 -0.3231  1.1399
   77SLPC   H5Y 7026   6.005   5.144   7.018 -0.4442  0.3047 -1.7495
   77SLPC   C36 7027   5.847   5.200   7.165 -0.4462  0.0731 -0.9663
   77SLPC   H6X 7028   5.804   5.098   7.150  1.5029 -0.7279 -1.4001
   77SLPC   H6Y 7029   5.770   5.277   7.185 -1.1478 -0.2907 -2.1426
   77SLPC   C37 7030   5.931   5.194   7.299 -0.3584  0.0406  0.3473
   77SLPC   H7X 7031   5.976   5.294   7.317  0.8049 -0.4336  0.1626
   77SLPC   H7Y 7032   6.016   5.127   7.272 -1.6906 -1.5984  0.0693
   77SLPC   C38 7033   5.851   5.139   7.423  0.7772 -0.2483  0.7967
   77SLPC   H8X 7034   5.822   5.043   7.375  1.9121 -1.0488  1.6762
   77SLPC   H8Y 7035   5.757   5.195   7.441 -1.0562 -2.5198 -0.8893
   77SLPC   C39 7036   5.933   5.115   7.552  0.2927 -0.3347  0.4031
   77SLPC   H9X 7037   5.964   5.216   7.586 -0.0823 -0.1162  0.1070
   77SLPC   H9Y 7038   6.019   5.047   7.534 -0.5044 -1.1886 -0.2990
   77SLPC  C310 7039   5.834   5.058   7.654 -0.3906  0.6572  0.5028
   77SLPC  H10X 7040   5.798   4.961   7.616 -0.5577 -0.2935  2.8995
   77SLPC  H10Y 7041   5.741   5.119   7.654 -1.3080 -0.5978 -2.0552
   77SLPC  C311 7042   5.887   5.043   7.796  0.1483  0.1159  0.2050
   77SLPC  H11X 7043   5.927   5.142   7.827  2.6544  0.0658 -2.4642
   77SLPC  H11Y 7044   5.968   4.968   7.799 -3.6435 -4.4449 -0.1832
   77SLPC  C312 7045   5.768   5.000   7.883  0.3582 -0.4687 -0.3750
   77SLPC  H12X 7046   5.734   4.896   7.861 -2.4403  0.5358 -1.1288
   77SLPC  H12Y 7047   5.685   5.069   7.858  1.5545  1.0731 -0.2428
   77SLPC  C313 7048   5.804   5.009   8.034 -0.1534  0.1320 -0.0578
   77SLPC  H13X 7049   5.833   5.114   8.056  1.2160 -0.2680  0.1783
   77SLPC  H13Y 7050   5.895   4.946   8.048 -0.4762 -0.0703  1.2691
   77SLPC  C314 7051   5.691   4.957   8.125  0.0873  0.5961 -0.2086
   77SLPC  H14X 7052   5.669   4.853   8.092  0.4513  0.1676  0.8544
   77SLPC  H14Y 7053   5.596   5.012   8.114  0.7237  1.5975 -0.8446
   77SLPC  C315 7054   5.745   4.950   8.274  0.2899  0.1600  0.3908
   77SLPC  H15X 7055   5.771   5.057   8.290 -2.1690  0.9011 -0.1098
   77SLPC  H15Y 7056   5.845   4.901   8.278  0.2731 -0.4557 -3.1715
   77SLPC  C316 7057   5.652   4.898   8.388 -0.1405 -0.0510  0.8339
   77SLPC  H16X 7058   5.561   4.962   8.380 -0.8577 -1.2813 -2.3182
   77SLPC  H16Y 7059   5.702   4.922   8.485 -0.3115  2.8763  0.2989
   77SLPC  C317 7060   5.615   4.758   8.377  0.7992 -0.3024  0.4045
   77SLPC  H17X 7061   5.691   4.678   8.390 -0.2306 -1.3573  0.0738
   77SLPC  H17Y 7062   5.574   4.732   8.277  0.9773 -1.9684  0.7239
   77SLPC  C318 7063   5.522   4.740   8.494 -0.3462  0.3474 -0.1521
   77SLPC  H18X 7064   5.509   4.631   8.514 -2.3192  0.5122 -0.3591
   77SLPC  H18Y 7065   5.419   4.773   8.472 -1.2014 -0.3515  2.4419
   77SLPC  H18Z 7066   5.561   4.799   8.580  1.5366  0.1336 -0.7944
   78SLPC     N 7067   0.400   0.220   5.491 -0.0945 -0.0261 -0.2829
   78SLPC   C13 7068   0.547   0.200   5.454  0.8111 -0.4652  0.1886
   78SLPC  H13A 7069   0.578   0.099   5.435  1.6555  0.0179 -1.1588
   78SLPC  H13B 7070   0.569   0.264   5.369  1.6390  0.6027  1.1675
   78SLPC  H13C 7071   0.611   0.247   5.527  0.7133  0.8146 -0.5183
   78SLPC   C14 7072   0.332   0.140   5.383 -0.2413 -0.1614  0.6443
   78SLPC  H14A 7073   0.227   0.135   5.408 -0.4943 -0.0126 -0.3528
   78SLPC  H14B 7074   0.353   0.183   5.286 -2.2500 -2.8527 -1.1496
   78SLPC  H14C 7075   0.369   0.038   5.382 -0.3550 -0.2022 -0.3137
   78SLPC   C15 7076   0.376   0.368   5.480 -0.8357 -0.1731 -0.0830
   78SLPC  H15A 7077   0.452   0.415   5.540 -0.7776  0.4784 -0.6536
   78SLPC  H15B 7078   0.393   0.407   5.380  0.0214  1.3029  0.6117
   78SLPC  H15C 7079   0.281   0.396   5.523  0.1417  0.7110  1.5956
   78SLPC   C12 7080   0.375   0.170   5.633  0.7452 -0.6667  0.0046
   78SLPC  H12A 7081   0.436   0.228   5.700 -0.8162  0.8358  0.2156
   78SLPC  H12B 7082   0.408   0.068   5.640  0.0918 -0.8218  1.1057
   78SLPC   C11 7083   0.234   0.192   5.700 -0.3682  0.4737 -0.3508
   78SLPC  H11A 7084   0.218   0.126   5.787  1.9412 -1.2847 -1.1660
   78SLPC  H11B 7085   0.151   0.165   5.631  0.0835  0.2557 -0.8133
   78SLPC     P 7086   0.182   0.370   5.885  0.2528  0.3668  0.1062
   78SLPC   O13 7087   0.209   0.513   5.903  0.0734  0.1365  0.0580
   78SLPC   O14 7088   0.038   0.326   5.908  0.5214  0.0481  0.2470
   78SLPC   O12 7089   0.218   0.331   5.738  0.1357  0.0367  0.1394
   78SLPC   O11 7090   0.271   0.281   5.980  0.3412 -0.0371 -0.2296
   78SLPC    C1 7091   0.414   0.283   5.980  0.3179  0.2252  0.8494
   78SLPC    HA 7092   0.451   0.194   6.035 -1.6106 -1.1063  0.1177
   78SLPC    HB 7093   0.459   0.279   5.879  0.3839 -2.4615  0.9196
   78SLPC    C2 7094   0.474   0.408   6.047 -1.2851 -0.7810 -0.2403
   78SLPC    HS 7095   0.464   0.497   5.981  1.0162  0.7055  1.2764
   78SLPC   O21 7096   0.618   0.380   6.048  0.4057  0.3011 -1.0363
   78SLPC   C21 7097   0.692   0.487   6.054  0.6505 -0.1166 -0.3213
   78SLPC   O22 7098   0.655   0.604   6.048  0.3338 -0.5402  0.0716
   78SLPC   C22 7099   0.837   0.445   6.070 -0.1076  0.7452  1.3268
   78SLPC   H2R 7100   0.835   0.352   6.131 -1.2873 -1.7799 -2.2022
   78SLPC   H2S 7101   0.885   0.425   5.972  0.8485 -0.6171  2.0350
   78SLPC    C3 7102   0.419   0.437   6.180  0.1718  0.9021  0.1298
   78SLPC    HX 7103   0.318   0.480   6.165 -0.5432 -0.6237  0.3080
   78SLPC    HY 7104   0.477   0.516   6.233  1.3444 -0.1592  0.4914
   78SLPC   O31 7105   0.426   0.320   6.266  0.2147  0.1381 -0.3044
   78SLPC   C31 7106   0.335   0.316   6.355  0.2030 -0.3282  0.4870
   78SLPC   O32 7107   0.237   0.388   6.361 -0.1157 -0.9879 -0.3345
   78SLPC   C32 7108   0.363   0.202   6.453  0.2221  0.2295  0.4161
   78SLPC   H2X 7109   0.452   0.139   6.434  1.0682  0.8729  2.0266
   78SLPC   H2Y 7110   0.275   0.135   6.442 -0.1440  1.0187 -2.3002
   78SLPC   C23 7111   0.923   0.559   6.138  0.0156  0.1868  0.4949
   78SLPC   H3R 7112   0.900   0.658   6.095 -0.0823 -0.1583 -0.2715
   78SLPC   H3S 7113   1.028   0.534   6.110  0.4691 -0.6253  2.7013
   78SLPC   C24 7114   0.919   0.551   6.290  0.5668 -0.3980 -0.5462
   78SLPC   H4R 7115   0.999   0.614   6.335 -0.3981  1.0936 -0.8549
   78SLPC   H4S 7116   0.945   0.450   6.329  0.3645  0.3665  1.7584
   78SLPC   C25 7117   0.784   0.590   6.346  0.1586 -0.0884 -0.2284
   78SLPC   H5R 7118   0.702   0.523   6.312  0.4981  0.3205 -1.9455
   78SLPC   H5S 7119   0.744   0.685   6.305  3.3228  1.0031 -1.0442
   78SLPC   C26 7120   0.789   0.600   6.500 -0.2397 -0.1873 -0.4525
   78SLPC   H6R 7121   0.847   0.512   6.535  1.0004  2.1544  4.3272
   78SLPC   H6S 7122   0.690   0.602   6.550 -0.0799  3.5601 -0.0163
   78SLPC   C27 7123   0.863   0.722   6.564  0.3224 -0.3663  0.1940
   78SLPC   H7R 7124   0.782   0.796   6.582 -0.7771 -1.3415 -0.7071
   78SLPC   H7S 7125   0.923   0.772   6.485 -0.4499  0.7503  0.2964
   78SLPC   C28 7126   0.947   0.692   6.691 -0.5531  0.9668  0.4484
   78SLPC   H8R 7127   1.043   0.642   6.663  0.0618  1.7956  1.0364
   78SLPC   H8S 7128   0.882   0.623   6.747  0.2300 -0.5322 -0.4000
   78SLPC   C29 7129   0.989   0.810   6.769  0.0631  0.2332 -0.4068
   78SLPC   H9R 7130   1.054   0.877   6.710  0.2751 -1.8463 -2.6437
   78SLPC  C210 7131   0.976   0.822   6.903  0.1571 -0.5606 -0.1880
   78SLPC  H10R 7132   1.007   0.917   6.949  2.7253 -0.9951 -0.8631
   78SLPC  C211 7133   0.903   0.727   6.999 -0.3920 -0.4130  0.0236
   78SLPC  H11R 7134   0.983   0.681   7.061  1.0196  1.4928 -0.3113
   78SLPC  H11S 7135   0.856   0.645   6.940 -0.9717  0.1093 -0.2487
   78SLPC  C212 7136   0.795   0.778   7.088 -0.4304  0.8584  0.4286
   78SLPC  H12R 7137   0.702   0.803   7.035  0.4037 -0.1916 -1.6639
   78SLPC  C213 7138   0.815   0.801   7.218  0.4024  0.6336  0.7271
   78SLPC  H13R 7139   0.728   0.855   7.260 -1.0917 -0.0449 -1.3377
   78SLPC  C214 7140   0.931   0.767   7.306  0.7376  0.0117 -0.4981
   78SLPC  H14R 7141   0.956   0.852   7.375 -0.1801 -0.3635  0.3257
   78SLPC  H14S 7142   1.027   0.768   7.251  0.4251  1.7057 -1.0762
   78SLPC  C215 7143   0.917   0.631   7.388 -0.0273 -0.2638  0.0457
   78SLPC  H15R 7144   1.015   0.611   7.435  0.6849  0.7507 -0.9321
   78SLPC  H15S 7145   0.891   0.547   7.321  0.4672  0.2314 -0.7867
   78SLPC  C216 7146   0.807   0.651   7.501 -0.0350 -0.3420  0.3833
   78SLPC  H16R 7147   0.713   0.682   7.451  1.3154  0.7803 -1.5696
   78SLPC  H16S 7148   0.841   0.740   7.559  2.8309 -0.4347 -0.9456
   78SLPC  C217 7149   0.784   0.533   7.586  0.4225 -0.0566 -0.1003
   78SLPC  H17R 7150   0.879   0.504   7.635 -0.7501 -1.7910  1.2823
   78SLPC  H17S 7151   0.746   0.444   7.531  0.7030 -1.0823  1.3383
   78SLPC  C218 7152   0.700   0.547   7.712  0.4377  0.3719  0.3253
   78SLPC  H18R 7153   0.731   0.625   7.785 -1.6294 -0.6938  2.4738
   78SLPC  H18S 7154   0.702   0.460   7.780  2.7535  0.6056  0.6423
   78SLPC  H18T 7155   0.600   0.581   7.678  0.7053  1.3986  0.5168
   78SLPC   C33 7156   0.400   0.238   6.596 -0.8951  0.0073 -0.0475
   78SLPC   H3X 7157   0.492   0.300   6.594  0.6881 -2.2328 -1.7284
   78SLPC   H3Y 7158   0.430   0.141   6.640  0.0879  0.5918  0.6175
   78SLPC   C34 7159   0.286   0.301   6.675  0.0398  0.3505  0.5335
   78SLPC   H4X 7160   0.230   0.371   6.610  1.7657  1.1498 -0.1688
   78SLPC   H4Y 7161   0.303   0.362   6.766 -1.3658 -0.2424  1.2296
   78SLPC   C35 7162   0.188   0.188   6.727  0.1613  0.1913 -0.4097
   78SLPC   H5X 7163   0.181   0.111   6.646 -1.5726 -0.9387  0.7525
   78SLPC   H5Y 7164   0.081   0.217   6.729 -0.1522 -0.9444 -0.1258
   78SLPC   C36 7165   0.251   0.126   6.854  0.3768  0.6664  0.4359
   78SLPC   H6X 7166   0.360   0.107   6.841  0.6463  2.4691 -0.2513
   78SLPC   H6Y 7167   0.198   0.029   6.868 -1.0757  1.6045  1.8367
   78SLPC   C37 7168   0.217   0.213   6.975 -0.5499  0.7162  0.3820
   78SLPC   H7X 7169   0.109   0.229   6.992 -0.7612 -0.3595  0.1319
   78SLPC   H7Y 7170   0.259   0.315   6.961 -0.0726  0.1654 -3.0954
   78SLPC   C38 7171   0.275   0.139   7.098  1.0974  0.0748  0.2517
   78SLPC   H8X 7172   0.381   0.119   7.068  1.1465  0.7091 -0.0209
   78SLPC   H8Y 7173   0.232   0.037   7.107  1.6682 -0.2793 -0.7867
   78SLPC   C39 7174   0.268   0.213   7.233 -0.0501 -0.1094  0.0826
   78SLPC   H9X 7175   0.166   0.254   7.247  0.6045  2.3169 -1.6740
   78SLPC   H9Y 7176   0.340   0.297   7.243  0.2762 -0.4921  1.1665
   78SLPC  C310 7177   0.297   0.129   7.354  0.1199 -0.5264  0.6215
   78SLPC  H10X 7178   0.401   0.091   7.340  0.8873  1.4421  0.7047
   78SLPC  H10Y 7179   0.229   0.041   7.362 -1.4203  0.2253 -2.4085
   78SLPC  C311 7180   0.297   0.223   7.481 -0.1152 -0.4551 -0.5174
   78SLPC  H11X 7181   0.199   0.275   7.479  0.6402  1.0172 -2.2202
   78SLPC  H11Y 7182   0.379   0.295   7.460 -0.9001  0.2784 -1.1523
   78SLPC  C312 7183   0.321   0.145   7.616 -0.8245  0.3219 -0.1762
   78SLPC  H12X 7184   0.378   0.055   7.586  1.5894  1.9501 -0.7775
   78SLPC  H12Y 7185   0.222   0.109   7.649 -1.1659  1.1175 -0.2958
   78SLPC  C313 7186   0.401   0.230   7.722  0.5174 -0.3698 -0.9580
   78SLPC  H13X 7187   0.446   0.327   7.692  0.0729  0.3256  0.5103
   78SLPC  H13Y 7188   0.488   0.166   7.748  1.7006  1.5163 -0.1189
   78SLPC  C314 7189   0.324   0.250   7.855  0.4204 -0.6511 -0.1757
   78SLPC  H14X 7190   0.293   0.155   7.903  1.5269 -1.2350 -0.5875
   78SLPC  H14Y 7191   0.224   0.293   7.831  0.8331  1.0825  1.0799
   78SLPC  C315 7192   0.416   0.333   7.947 -0.7151  0.1965  0.0337
   78SLPC  H15X 7193   0.346   0.378   8.021 -0.7989  0.7788 -0.3921
   78SLPC  H15Y 7194   0.457   0.423   7.897  1.3222  0.5585  2.1952
   78SLPC  C316 7195   0.522   0.253   8.017 -0.6934 -0.4931 -0.3313
   78SLPC  H16X 7196   0.581   0.199   7.939  0.3723  0.8450 -0.4963
   78SLPC  H16Y 7197   0.469   0.177   8.077  1.1827 -0.7581  1.1001
   78SLPC  C317 7198   0.614   0.338   8.111  0.3559 -0.4385 -0.9372
   78SLPC  H17X 7199   0.554   0.421   8.154 -0.7864 -2.4698  1.7204
   78SLPC  H17Y 7200   0.683   0.390   8.043 -0.1839  0.4112 -0.8464
   78SLPC  C318 7201   0.704   0.261   8.208  0.3158  0.3726 -0.2419
   78SLPC  H18X 7202   0.774   0.191   8.158 -0.1655  0.4107 -0.9683
   78SLPC  H18Y 7203   0.650   0.201   8.284  1.3724 -0.4549 -0.1240
   78SLPC  H18Z 7204   0.762   0.328   8.277  0.1685 -0.9207  1.2000
   79SLPC     N 7205   6.522   3.721   5.918  0.7209  0.0006  0.2656
   79SLPC   C13 7206   6.455   3.845   5.863 -0.0009  0.6113 -0.0775
   79SLPC  H13A 7207   6.349   3.842   5.880  0.0223 -3.0539  0.2515
   79SLPC  H13B 7208   6.495   3.939   5.901  0.0039  0.2672  0.8051
   79SLPC  H13C 7209   6.461   3.837   5.756  0.3886 -2.0885  0.0854
   79SLPC   C14 7210   6.661   3.739   5.879  0.2819  0.2452 -0.2055
   79SLPC  H14A 7211   6.664   3.720   5.772  0.0695  1.0093 -0.3546
   79SLPC  H14B 7212   6.697   3.834   5.915  0.1387 -0.4490  1.8708
   79SLPC  H14C 7213   6.729   3.660   5.909  0.9680  0.3947 -1.3139
   79SLPC   C15 7214   6.467   3.607   5.838 -0.0157  0.5262 -0.3371
   79SLPC  H15A 7215   6.516   3.519   5.877 -0.3350  0.6433  0.3402
   79SLPC  H15B 7216   6.361   3.601   5.855  0.0231 -3.2677 -0.7425
   79SLPC  H15C 7217   6.475   3.616   5.731 -0.8876 -1.9157 -0.6697
   79SLPC   C12 7218   6.495   3.709   6.063 -0.4854  0.3657 -0.7082
   79SLPC  H12A 7219   6.389   3.714   6.080 -0.3377 -0.4877  0.5985
   79SLPC  H12B 7220   6.538   3.802   6.097 -1.0617 -0.0296  1.2335
   79SLPC   C11 7221   6.553   3.601   6.156  0.0096  0.1082 -0.5623
   79SLPC  H11A 7222   6.526   3.634   6.258 -1.6519 -1.7550 -0.3402
   79SLPC  H11B 7223   6.662   3.593   6.138 -0.1036 -0.1181 -1.2126
   79SLPC     P 7224   6.369   3.413   6.178  0.0005  0.4979 -0.3913
   79SLPC   O13 7225   6.268   3.488   6.106  0.4126  0.4964 -0.2838
   79SLPC   O14 7226   6.370   3.268   6.157 -0.2550  0.0500 -0.9955
   79SLPC   O12 7227   6.501   3.470   6.129  0.2918 -0.0217 -0.5217
   79SLPC   O11 7228   6.355   3.459   6.322 -0.5405  0.3292 -0.0950
   79SLPC    C1 7229   6.446   3.474   6.430  0.6041  0.5163  0.8301
   79SLPC    HA 7230   6.549   3.477   6.388  0.0428  1.3200 -0.5878
   79SLPC    HB 7231   6.416   3.569   6.478 -0.2795  1.0408 -0.6661
   79SLPC    C2 7232   6.435   3.362   6.532  0.3813  0.2627 -0.5914
   79SLPC    HS 7233   6.429   3.264   6.479 -0.7847 -0.8504  1.4649
   79SLPC   O21 7234   6.315   3.385   6.612  0.0557  0.1646  1.0785
   79SLPC   C21 7235   6.276   3.281   6.688 -0.6180  0.0513  0.1315
   79SLPC   O22 7236   6.333   3.170   6.685  0.1116 -0.4628 -0.3391
   79SLPC   C22 7237   6.144   3.314   6.752  0.3514  1.1280 -0.3855
   79SLPC   H2R 7238   6.132   3.409   6.809 -1.0523  1.3187 -0.9497
   79SLPC   H2S 7239   6.059   3.292   6.684 -0.1015  3.4144 -0.6445
   79SLPC    C3 7240   6.551   3.366   6.629 -0.2450  0.5953 -0.3101
   79SLPC    HX 7241   6.645   3.335   6.579  1.4815  2.1815  1.7733
   79SLPC    HY 7242   6.543   3.289   6.709  2.8969  1.2155  0.7173
   79SLPC   O31 7243   6.562   3.503   6.682 -0.6841  0.4576  0.0570
   79SLPC   C31 7244   6.664   3.572   6.628  0.0955 -0.4875 -0.2109
   79SLPC   O32 7245   6.738   3.531   6.543 -0.8713 -0.1945  0.5297
   79SLPC   C32 7246   6.667   3.708   6.703 -0.5092 -0.0829  0.0307
   79SLPC   H2X 7247   6.568   3.757   6.712 -0.1132  0.8516 -0.5656
   79SLPC   H2Y 7248   6.745   3.761   6.643 -0.4609  0.4489  0.5466
   79SLPC   C23 7249   6.114   3.219   6.875  0.4923  0.8043  0.2049
   79SLPC   H3R 7250   6.196   3.218   6.951  0.0254 -1.2582  0.7541
   79SLPC   H3S 7251   6.114   3.111   6.849 -0.3550  0.6301  0.8687
   79SLPC   C24 7252   5.983   3.258   6.945  0.0100  0.4260 -0.3670
   79SLPC   H4R 7253   5.909   3.282   6.866  1.4938 -0.4249 -2.1192
   79SLPC   H4S 7254   5.991   3.349   7.007 -0.0979 -0.4598  0.9780
   79SLPC   C25 7255   5.938   3.139   7.040 -0.1669  0.6019  0.0309
   79SLPC   H5R 7256   5.949   3.035   7.004 -0.0440 -0.5287  3.0320
   79SLPC   H5S 7257   5.828   3.152   7.042 -0.3631 -0.7467 -0.8556
   79SLPC   C26 7258   6.005   3.138   7.180 -0.6822 -0.2408  0.2215
   79SLPC   H6R 7259   6.008   3.243   7.217  2.2559  0.5392 -1.7997
   79SLPC   H6S 7260   6.111   3.113   7.156  0.6012  2.9077  1.9251
   79SLPC   C27 7261   5.951   3.042   7.284  0.5011 -0.5411 -0.8967
   79SLPC   H7R 7262   5.903   2.955   7.234 -2.0298  1.0164 -1.3341
   79SLPC   H7S 7263   5.865   3.090   7.336  1.0809  0.2464 -0.6456
   79SLPC   C28 7264   6.054   2.998   7.392 -0.4939  0.9035  0.2267
   79SLPC   H8R 7265   6.079   3.087   7.454 -1.9403  0.8838  0.8822
   79SLPC   H8S 7266   6.150   2.983   7.338 -1.3061  1.8922 -1.5624
   79SLPC   C29 7267   6.022   2.876   7.478 -0.3331 -0.7088  0.2732
   79SLPC   H9R 7268   5.999   2.787   7.417 -2.7937  0.0386  0.0106
   79SLPC  C210 7269   6.022   2.858   7.612  0.1525 -0.4527  0.2971
   79SLPC  H10R 7270   6.003   2.754   7.644 -0.8253 -0.4312 -0.1672
   79SLPC  C211 7271   6.064   2.957   7.717  0.4642  0.1650 -0.2671
   79SLPC  H11R 7272   6.031   3.058   7.684  0.1077 -0.5573 -2.2452
   79SLPC  H11S 7273   6.175   2.968   7.714  0.6271 -1.3739 -1.1161
   79SLPC  C212 7274   6.003   2.917   7.847  1.1123  0.8395 -0.2482
   79SLPC  H12R 7275   5.897   2.888   7.845  0.8659  1.7427 -0.6460
   79SLPC  C213 7276   6.071   2.891   7.959  0.2431  0.2827 -0.1974
   79SLPC  H13R 7277   6.017   2.870   8.053  1.3933 -1.2263  0.1784
   79SLPC  C214 7278   6.221   2.907   7.982  0.0510  0.0917  0.1900
   79SLPC  H14R 7279   6.282   2.903   7.889 -0.2265  0.3334 -0.0042
   79SLPC  H14S 7280   6.269   2.830   8.047 -2.2802 -1.4473  0.1882
   79SLPC  C215 7281   6.236   3.040   8.060 -0.4348 -0.5405  0.1884
   79SLPC  H15R 7282   6.176   3.121   8.013  0.3384  0.2687  0.5438
   79SLPC  H15S 7283   6.335   3.088   8.041 -0.9064  1.0560  1.5372
   79SLPC  C216 7284   6.196   3.025   8.205 -0.1561 -0.4866 -0.3881
   79SLPC  H16R 7285   6.269   2.963   8.260  0.8300  1.3728  0.4767
   79SLPC  H16S 7286   6.097   2.974   8.204  0.4733 -1.7724  0.2106
   79SLPC  C217 7287   6.178   3.155   8.280  0.0980  0.3649 -0.1868
   79SLPC  H17R 7288   6.101   3.222   8.237  0.8445  3.2021  2.5441
   79SLPC  H17S 7289   6.269   3.218   8.286  0.6642 -0.3809 -0.7526
   79SLPC  C218 7290   6.131   3.129   8.420  0.9776  1.1500 -0.2085
   79SLPC  H18R 7291   6.131   3.223   8.479  0.9153 -0.3342  2.3070
   79SLPC  H18S 7292   6.192   3.055   8.476 -0.9456 -1.8166 -1.7504
   79SLPC  H18T 7293   6.029   3.085   8.416  1.0751  0.7194  1.4479
   79SLPC   C33 7294   6.723   3.690   6.848  0.1470 -0.2888 -0.6141
   79SLPC   H3X 7295   6.828   3.654   6.847 -0.3563 -1.8364 -0.4704
   79SLPC   H3Y 7296   6.657   3.626   6.911  0.2351  0.5507  0.3513
   79SLPC   C34 7297   6.728   3.831   6.914 -0.4077 -0.4425  0.3867
   79SLPC   H4X 7298   6.625   3.872   6.913 -0.5170 -0.7201 -0.2711
   79SLPC   H4Y 7299   6.786   3.890   6.841 -0.9047 -3.2895 -2.5328
   79SLPC   C35 7300   6.811   3.831   7.042  0.0462  0.1612  0.0266
   79SLPC   H5X 7301   6.843   3.937   7.049  0.5818  0.2903 -3.0755
   79SLPC   H5Y 7302   6.904   3.770   7.040  0.0742  0.1526  1.0300
   79SLPC   C36 7303   6.725   3.794   7.170  0.5410 -0.6315 -0.0969
   79SLPC   H6X 7304   6.707   3.685   7.163  1.1653 -0.9537  2.3713
   79SLPC   H6Y 7305   6.627   3.845   7.158  0.0127 -1.0780  1.9526
   79SLPC   C37 7306   6.783   3.815   7.313  0.2179 -0.9261  0.3311
   79SLPC   H7X 7307   6.796   3.922   7.337 -1.4189 -0.7675  0.5895
   79SLPC   H7Y 7308   6.885   3.770   7.309 -0.3386 -2.1570 -2.0617
   79SLPC   C38 7309   6.698   3.743   7.416 -0.0331 -0.6177 -0.1980
   79SLPC   H8X 7310   6.682   3.638   7.381  1.1564 -1.0535  0.4939
   79SLPC   H8Y 7311   6.597   3.789   7.419 -0.1729 -0.7920 -1.5967
   79SLPC   C39 7312   6.778   3.735   7.542 -0.1542 -0.6640  0.3452
   79SLPC   H9X 7313   6.838   3.828   7.552 -0.1127 -0.6005 -0.4129
   79SLPC   H9Y 7314   6.851   3.652   7.537 -0.6491 -1.1631  1.2409
   79SLPC  C310 7315   6.700   3.690   7.667  0.1764  0.9246  0.6802
   79SLPC  H10X 7316   6.667   3.584   7.656 -1.0501  1.3960 -0.3649
   79SLPC  H10Y 7317   6.611   3.754   7.652 -1.4535 -1.7714 -2.7053
   79SLPC  C311 7318   6.780   3.726   7.790  0.3925 -0.1881  0.1036
   79SLPC  H11X 7319   6.799   3.835   7.782 -1.1092  0.0877 -0.0612
   79SLPC  H11Y 7320   6.878   3.677   7.805  0.8046  0.7862  0.7349
   79SLPC  C312 7321   6.709   3.710   7.926 -0.0734 -0.6832 -0.0293
   79SLPC  H12X 7322   6.720   3.603   7.952 -0.9525 -0.5162  1.1305
   79SLPC  H12Y 7323   6.602   3.741   7.917 -0.4813 -1.5096  1.4990
   79SLPC  C313 7324   6.788   3.793   8.034 -0.4672  0.6097 -0.1227
   79SLPC  H13X 7325   6.828   3.889   7.995  1.5807  0.0176  0.4034
   79SLPC  H13Y 7326   6.871   3.727   8.068 -0.1487 -0.6209 -2.9852
   79SLPC  C314 7327   6.717   3.839   8.159  0.0589  0.6450 -0.2430
   79SLPC  H14X 7328   6.609   3.814   8.152 -0.2116  1.9686 -1.3645
   79SLPC  H14Y 7329   6.710   3.949   8.172 -2.4194  0.5945 -0.6341
   79SLPC  C315 7330   6.783   3.776   8.280  0.1761  0.3160 -0.3824
   79SLPC  H15X 7331   6.892   3.792   8.273  0.3859 -1.0429 -0.4893
   79SLPC  H15Y 7332   6.760   3.668   8.271  1.9352 -0.1612  0.4121
   79SLPC  C316 7333   6.730   3.825   8.415 -0.6234 -0.3524 -0.0227
   79SLPC  H16X 7334   6.619   3.824   8.416 -0.6252 -0.1857 -0.1961
   79SLPC  H16Y 7335   6.785   3.920   8.433 -0.0413 -0.6543 -0.2046
   79SLPC  C317 7336   6.774   3.737   8.535 -0.3119 -0.2104  0.4402
   79SLPC  H17X 7337   6.885   3.735   8.538 -0.2973 -1.3393 -0.4395
   79SLPC  H17Y 7338   6.727   3.637   8.529 -0.1950 -0.3849  2.0131
   79SLPC  C318 7339   6.724   3.790   8.670 -0.7258 -0.1568 -0.0573
   79SLPC  H18X 7340   6.761   3.737   8.760 -3.6923  0.5497  1.7214
   79SLPC  H18Y 7341   6.614   3.803   8.683 -0.3143  0.9071  3.1345
   79SLPC  H18Z 7342   6.766   3.892   8.685 -1.4284  0.2842 -0.9619
   80SLPC     N 7343   5.846   1.293   6.271 -0.7201 -0.8599  0.2631
   80SLPC   C13 7344   5.934   1.179   6.329 -0.1846 -0.4981 -0.0041
   80SLPC  H13A 7345   6.009   1.233   6.385  0.6869 -2.2727  0.6137
   80SLPC  H13B 7346   5.872   1.118   6.394  0.8806 -0.1546  1.3884
   80SLPC  H13C 7347   5.991   1.125   6.255  2.9488 -1.1324  2.6385
   80SLPC   C14 7348   5.754   1.229   6.179 -0.0390  0.4559  0.2057
   80SLPC  H14A 7349   5.674   1.293   6.144 -0.1653  0.5563  0.6576
   80SLPC  H14B 7350   5.805   1.194   6.091 -2.7059 -1.9576 -0.5306
   80SLPC  H14C 7351   5.706   1.142   6.222  1.4146 -0.2591  0.4488
   80SLPC   C15 7352   5.922   1.406   6.198 -0.3196 -0.0896 -0.1279
   80SLPC  H15A 7353   5.861   1.493   6.182  1.5355  1.5431  1.2422
   80SLPC  H15B 7354   6.007   1.441   6.254  0.4973 -2.5612  0.3065
   80SLPC  H15C 7355   5.967   1.368   6.107 -0.2267  2.7215 -1.3434
   80SLPC   C12 7356   5.772   1.360   6.377  0.4607 -0.4816 -0.1680
   80SLPC  H12A 7357   5.734   1.442   6.317  0.0012 -1.0562 -0.6768
   80SLPC  H12B 7358   5.848   1.407   6.438  1.3360 -1.7261 -0.2688
   80SLPC   C11 7359   5.660   1.289   6.454  0.1445  0.3274  0.4392
   80SLPC  H11A 7360   5.585   1.252   6.381 -0.1362 -1.3364  1.4987
   80SLPC  H11B 7361   5.589   1.355   6.508 -0.0310 -0.7841  1.6265
   80SLPC     P 7362   5.717   1.204   6.694 -0.0860  0.3926  0.2682
   80SLPC   O13 7363   5.584   1.248   6.731  0.4974  1.2010 -0.4998
   80SLPC   O14 7364   5.755   1.076   6.762  0.2735 -0.3069  0.8944
   80SLPC   O12 7365   5.709   1.179   6.538 -0.4971  0.1105 -0.2381
   80SLPC   O11 7366   5.822   1.317   6.705 -0.4511 -0.4344  0.6116
   80SLPC    C1 7367   5.960   1.288   6.708 -0.8773  0.4857  0.6069
   80SLPC    HA 7368   5.992   1.217   6.629 -1.6550 -0.8888  1.4759
   80SLPC    HB 7369   6.009   1.386   6.689 -1.2655  0.9233  1.7495
   80SLPC    C2 7370   6.021   1.235   6.843  0.4001 -0.4061 -0.0940
   80SLPC    HS 7371   5.983   1.131   6.855  0.4125 -0.5619 -1.2794
   80SLPC   O21 7372   5.980   1.328   6.948 -0.5077 -0.1371  0.3810
   80SLPC   C21 7373   5.951   1.268   7.061 -0.2057  0.1778 -0.4792
   80SLPC   O22 7374   5.941   1.151   7.086  0.7539 -0.5137 -0.6534
   80SLPC   C22 7375   5.917   1.376   7.153 -0.2785 -0.1548  0.6011
   80SLPC   H2R 7376   5.979   1.467   7.143 -0.5092 -0.0903 -0.4504
   80SLPC   H2S 7377   5.813   1.402   7.121  0.5743  2.0706 -0.6360
   80SLPC    C3 7378   6.176   1.224   6.831 -0.2113  0.4901 -0.1191
   80SLPC    HX 7379   6.232   1.318   6.848  1.3556 -0.6396  1.3311
   80SLPC    HY 7380   6.185   1.182   6.729 -5.0612  1.2328 -1.1093
   80SLPC   O31 7381   6.232   1.134   6.934  0.9555 -0.0038  0.0759
   80SLPC   C31 7382   6.188   1.004   6.933  0.2085 -0.2353  0.2012
   80SLPC   O32 7383   6.122   0.954   6.843 -0.3654  0.4560 -0.1352
   80SLPC   C32 7384   6.247   0.926   7.046  0.6448 -0.4190 -0.0313
   80SLPC   H2X 7385   6.288   0.990   7.127  0.3600 -1.5586  1.0433
   80SLPC   H2Y 7386   6.327   0.863   7.003  0.1052 -0.0915 -1.6062
   80SLPC   C23 7387   5.899   1.322   7.298 -0.1892 -0.8692  0.2700
   80SLPC   H3R 7388   5.843   1.227   7.293 -0.9023 -0.4566  0.3485
   80SLPC   H3S 7389   5.841   1.399   7.353  2.2237  0.0560  1.7241
   80SLPC   C24 7390   6.037   1.309   7.363 -0.0522 -0.2417  0.7457
   80SLPC   H4R 7391   6.096   1.403   7.360 -0.8487  0.3827 -4.4515
   80SLPC   H4S 7392   6.091   1.231   7.304 -0.7373 -0.7830  0.8221
   80SLPC   C25 7393   6.047   1.257   7.505 -0.3858  0.6221 -0.5263
   80SLPC   H5R 7394   5.973   1.325   7.553  0.4122  0.7638  0.5161
   80SLPC   H5S 7395   6.149   1.264   7.547 -0.2489  0.3787 -0.8086
   80SLPC   C26 7396   6.007   1.109   7.532 -0.4358 -0.0854  0.4831
   80SLPC   H6R 7397   6.102   1.061   7.502  0.1190  1.7303 -0.9062
   80SLPC   H6S 7398   5.929   1.079   7.458  1.0848 -0.7343 -0.9158
   80SLPC   C27 7399   5.953   1.072   7.673  0.5430  0.1736 -0.2020
   80SLPC   H7R 7400   5.950   0.963   7.653 -0.7810  0.4484 -1.7173
   80SLPC   H7S 7401   5.852   1.114   7.693  0.6833  0.4426 -0.0546
   80SLPC   C28 7402   6.044   1.114   7.785 -0.1224  0.5160 -0.2612
   80SLPC   H8R 7403   6.050   1.225   7.780 -1.4844  0.8205  2.7780
   80SLPC   H8S 7404   6.139   1.073   7.744 -2.1458 -3.1378 -1.7822
   80SLPC   C29 7405   5.998   1.058   7.919 -0.2885 -0.6846 -0.2828
   80SLPC   H9R 7406   5.949   0.960   7.911  0.5843 -1.1106 -0.5931
   80SLPC  C210 7407   5.990   1.126   8.035 -0.9827 -0.5664 -0.5682
   80SLPC  H10R 7408   5.974   1.065   8.125  0.4223 -0.2948 -0.0965
   80SLPC  C211 7409   6.020   1.273   8.048 -0.1715 -0.2142 -0.3536
   80SLPC  H11R 7410   5.947   1.323   8.115 -2.0473  0.4588 -2.7465
   80SLPC  H11S 7411   6.002   1.333   7.957  0.0413  1.7731  0.8560
   80SLPC  C212 7412   6.170   1.281   8.091  0.6154 -0.0452  0.1809
   80SLPC  H12R 7413   6.227   1.307   8.001 -0.0944 -1.9544 -0.8907
   80SLPC  C213 7414   6.218   1.267   8.215  0.0113 -0.2298  0.5939
   80SLPC  H13R 7415   6.324   1.288   8.233  0.5376 -1.6511 -0.6450
   80SLPC  C214 7416   6.140   1.242   8.339  0.8425 -0.1096  0.2935
   80SLPC  H14R 7417   6.181   1.165   8.407  0.3080  0.9700  1.9043
   80SLPC  H14S 7418   6.035   1.211   8.318  1.0139 -0.2467 -0.3983
   80SLPC  C215 7419   6.119   1.378   8.413  0.0886  0.3905  0.2320
   80SLPC  H15R 7420   6.061   1.360   8.506 -1.0425 -0.2702 -0.5689
   80SLPC  H15S 7421   6.060   1.457   8.360  0.0603  1.0390  1.2036
   80SLPC  C216 7422   6.249   1.443   8.462  0.4846  0.2807 -0.3756
   80SLPC  H16R 7423   6.302   1.480   8.372 -1.7671 -1.1868 -2.4346
   80SLPC  H16S 7424   6.319   1.372   8.512  0.0917  1.6130  2.2577
   80SLPC  C217 7425   6.216   1.555   8.563  0.2810 -0.6824 -0.2432
   80SLPC  H17R 7426   6.157   1.524   8.652  0.8467  3.2156  1.6668
   80SLPC  H17S 7427   6.155   1.633   8.513  1.5641  0.5030 -0.0087
   80SLPC  C218 7428   6.345   1.615   8.615  0.1937  1.2170  0.4658
   80SLPC  H18R 7429   6.323   1.717   8.654 -0.0246  1.2871  0.1624
   80SLPC  H18S 7430   6.421   1.639   8.538  0.0809  1.0306  0.2980
   80SLPC  H18T 7431   6.393   1.545   8.686 -0.9775 -1.3917 -1.1769
   80SLPC   C33 7432   6.138   0.838   7.100  0.4295 -0.1446  0.1050
   80SLPC   H3X 7433   6.103   0.766   7.023 -0.7934 -0.2707  0.7609
   80SLPC   H3Y 7434   6.049   0.902   7.115  0.7592  1.4774 -3.7611
   80SLPC   C34 7435   6.184   0.762   7.227 -0.4524  0.5052  0.2204
   80SLPC   H4X 7436   6.273   0.700   7.199  2.1973  3.5784  1.1975
   80SLPC   H4Y 7437   6.098   0.696   7.249  0.0274 -0.6167 -1.0737
   80SLPC   C35 7438   6.226   0.837   7.350 -0.2588  0.4195  0.4873
   80SLPC   H5X 7439   6.138   0.891   7.388 -0.2943  0.8590 -0.2023
   80SLPC   H5Y 7440   6.308   0.911   7.338 -0.9996  1.1049 -0.4410
   80SLPC   C36 7441   6.277   0.742   7.462 -0.4912  0.4695  0.0389
   80SLPC   H6X 7442   6.374   0.710   7.420 -0.4714  2.0198 -1.1609
   80SLPC   H6Y 7443   6.197   0.665   7.474 -0.5059  0.5369  0.3796
   80SLPC   C37 7444   6.292   0.810   7.597  0.0141  0.1208  0.3562
   80SLPC   H7X 7445   6.267   0.918   7.595  1.0386  0.3745  0.6467
   80SLPC   H7Y 7446   6.400   0.793   7.617 -0.3161 -0.8125  1.4262
   80SLPC   C38 7447   6.216   0.736   7.707  1.0583 -0.4882  0.2309
   80SLPC   H8X 7448   6.228   0.627   7.687 -0.2237 -0.6878  0.4500
   80SLPC   H8Y 7449   6.108   0.761   7.693  0.7101 -1.4247  1.0699
   80SLPC   C39 7450   6.251   0.781   7.849 -0.2778 -0.0995 -0.4160
   80SLPC   H9X 7451   6.248   0.891   7.853  1.0290 -0.0892  1.4167
   80SLPC   H9Y 7452   6.356   0.746   7.861 -0.7464 -2.1262 -1.5300
   80SLPC  C310 7453   6.168   0.715   7.957  0.6096  0.1807  0.5202
   80SLPC  H10X 7454   6.170   0.604   7.961  2.0295 -0.0232 -2.8917
   80SLPC  H10Y 7455   6.061   0.731   7.932  0.7801 -0.2784 -0.5362
   80SLPC  C311 7456   6.188   0.788   8.093  0.3908 -0.1217 -0.1445
   80SLPC  H11X 7457   6.184   0.898   8.078  1.3832 -0.2237 -1.2837
   80SLPC  H11Y 7458   6.286   0.757   8.136 -0.1332  0.2524  1.3640
   80SLPC  C312 7459   6.086   0.739   8.203  0.6543  0.6293  0.0098
   80SLPC  H12X 7460   6.120   0.633   8.213  1.8988  0.8885 -1.1673
   80SLPC  H12Y 7461   5.982   0.743   8.162 -0.3303 -0.0508  2.2692
   80SLPC  C313 7462   6.101   0.819   8.333 -0.5974  0.3229 -0.4193
   80SLPC  H13X 7463   6.072   0.925   8.312 -0.9743  0.0862 -1.1564
   80SLPC  H13Y 7464   6.209   0.823   8.358 -0.8453 -1.4308  1.0941
   80SLPC  C314 7465   6.018   0.763   8.453 -0.3532 -0.7665 -0.3960
   80SLPC  H14X 7466   6.047   0.661   8.485  0.2547 -0.0101  1.6682
   80SLPC  H14Y 7467   5.912   0.757   8.419 -0.5037 -3.5809  0.3712
   80SLPC  C315 7468   6.038   0.860   8.573 -0.1101 -0.3724 -0.2442
   80SLPC  H15X 7469   6.008   0.962   8.542 -1.3206 -0.7293 -0.3064
   80SLPC  H15Y 7470   6.147   0.868   8.592 -0.5649  0.2008  2.6430
   80SLPC  C316 7471   5.982   0.828   8.706  0.2869  0.0470 -0.6399
   80SLPC  H16X 7472   5.873   0.849   8.711  0.3473  0.2451  0.0628
   80SLPC  H16Y 7473   6.020   0.898   8.784  1.4802  0.8508 -1.8976
   80SLPC  C317 7474   6.028   0.689   8.766  1.0195  0.6177  0.5434
   80SLPC  H17X 7475   6.137   0.675   8.752  0.8078  0.5382 -1.2482
   80SLPC  H17Y 7476   5.978   0.614   8.701  3.5277  0.4370 -1.3394
   80SLPC  C318 7477   5.992   0.676   8.911  0.0255  0.4504  0.3432
   80SLPC  H18X 7478   5.995   0.570   8.947 -0.8610  0.2345 -0.1845
   80SLPC  H18Y 7479   5.897   0.726   8.941 -0.0341 -0.1928  1.2976
   80SLPC  H18Z 7480   6.075   0.727   8.964  1.0214 -0.6036 -0.1520
   81SAPS     N 7481   6.351   3.230  11.347  0.6804 -0.0038  0.3507
   81SAPS   HN1 7482   6.350   3.195  11.444 -1.4851  1.2892  0.8576
   81SAPS   HN2 7483   6.337   3.333  11.354  0.1854 -0.1735  2.7385
   81SAPS   HN3 7484   6.269   3.191  11.297 -0.6116  0.7782  1.7869
   81SAPS   C12 7485   6.474   3.193  11.274  0.2613 -0.3423  0.7256
   81SAPS  H12A 7486   6.466   3.259  11.189  1.6645 -3.3702 -1.9669
   81SAPS   C13 7487   6.615   3.226  11.331  0.6023 -0.4791  0.6001
   81SAPS  O13A 7488   6.629   3.260  11.454 -0.1111  0.5973  0.2674
   81SAPS  O13B 7489   6.717   3.194  11.266  0.0632  0.1204 -0.6558
   81SAPS   C11 7490   6.461   3.050  11.215 -0.5840  0.2542  0.0645
   81SAPS  H11A 7491   6.454   2.980  11.301  0.0429  0.2488  0.1170
   81SAPS  H11B 7492   6.555   3.034  11.159 -1.0652 -2.6671 -0.0678
   81SAPS     P 7493   6.329   2.927  11.025 -0.5754  0.3462  0.3579
   81SAPS   O13 7494   6.355   2.803  11.094  0.5145  0.2368  0.4689
   81SAPS   O14 7495   6.194   2.931  10.958 -0.5671 -0.2557 -0.1476
   81SAPS   O12 7496   6.345   3.047  11.132 -0.0629 -0.2277 -0.0011
   81SAPS   O11 7497   6.440   2.961  10.919 -0.9845 -0.0382  0.3173
   81SAPS    C1 7498   6.464   3.079  10.841 -0.0375  0.2553 -0.1909
   81SAPS    HA 7499   6.377   3.147  10.854 -2.4698 -2.4059 -1.3722
   81SAPS    HB 7500   6.555   3.130  10.878 -0.6663  1.6432 -0.4811
   81SAPS    C2 7501   6.480   3.051  10.692  0.5173  0.0485  0.2602
   81SAPS    HS 7502   6.476   3.143  10.631 -0.3702 -0.3046 -0.2339
   81SAPS   O21 7503   6.386   2.958  10.647  0.3142 -0.0751  0.2773
   81SAPS   C21 7504   6.260   3.007  10.652  0.3199 -0.0315  0.0699
   81SAPS   O22 7505   6.223   3.123  10.676 -0.0549  0.1192  0.7482
   81SAPS   C22 7506   6.166   2.887  10.639  0.1165 -0.8215  0.3675
   81SAPS   H2R 7507   6.207   2.819  10.562  0.1454  0.6940 -1.0171
   81SAPS   H2S 7508   6.179   2.835  10.737  3.4166  0.1614  0.5727
   81SAPS    C3 7509   6.621   2.991  10.662 -0.8754  0.7616  0.5411
   81SAPS    HX 7510   6.617   2.891  10.710  0.0376  0.6517  0.4077
   81SAPS    HY 7511   6.700   3.052  10.711 -1.2376  1.1986  0.5906
   81SAPS   O31 7512   6.650   2.989  10.523  0.6339  0.2112 -0.3860
   81SAPS   C31 7513   6.768   2.945  10.483  0.5368  0.1147  0.1345
   81SAPS   O32 7514   6.854   2.906  10.561 -0.1751  0.3041  0.5407
   81SAPS   C32 7515   6.771   2.942  10.336 -0.2989  0.7842  0.6090
   81SAPS   H2X 7516   6.717   3.034  10.306 -1.6425 -0.7828 -2.0493
   81SAPS   H2Y 7517   6.709   2.860  10.296  0.3546  0.8558 -0.5887
   81SAPS   C23 7518   6.020   2.939  10.613 -0.1866 -0.5906 -0.6181
   81SAPS   H3R 7519   5.985   2.996  10.701  0.3924 -0.3589 -0.5342
   81SAPS   H3S 7520   5.951   2.852  10.614 -0.5082 -0.3383  0.9048
   81SAPS   C24 7521   6.007   3.019  10.481 -0.3670  0.0914  0.6727
   81SAPS   H4R 7522   6.070   3.111  10.484 -0.6770  0.3386 -0.1385
   81SAPS   H4S 7523   5.906   3.063  10.467  0.3068  1.8962  1.1945
   81SAPS   C25 7524   6.049   2.941  10.368 -0.2235 -0.6372 -0.0448
   81SAPS   H5R 7525   6.154   2.910  10.383  0.1710  1.0143  0.7359
   81SAPS   C26 7526   5.979   2.881  10.267  0.3025  0.1007  0.4707
   81SAPS   H6R 7527   6.039   2.838  10.185  1.1880  0.1867  1.0576
   81SAPS   C27 7528   5.830   2.889  10.248 -0.7749 -0.9295  0.5666
   81SAPS   H7R 7529   5.819   2.945  10.153  1.1964 -0.5788  0.4985
   81SAPS   H7S 7530   5.777   2.942  10.330 -0.9783 -1.3309  0.6956
   81SAPS   C28 7531   5.765   2.753  10.222  0.6606  0.1883 -1.0527
   81SAPS   H8R 7532   5.800   2.670  10.285  1.0106 -0.3418 -1.9327
   81SAPS   C29 7533   5.663   2.723  10.131 -1.1688 -0.0701 -0.0142
   81SAPS   H9R 7534   5.623   2.621  10.122 -1.8239  0.3253 -2.2330
   81SAPS  C210 7535   5.599   2.827  10.041 -0.0594 -0.0603  0.4866
   81SAPS  H10R 7536   5.652   2.924  10.033  0.8416 -0.4736  1.2091
   81SAPS  H10S 7537   5.498   2.857  10.076 -0.8768 -2.6095  0.5028
   81SAPS  C211 7538   5.577   2.767   9.906  0.0126 -0.0076 -0.4303
   81SAPS  H11R 7539   5.554   2.659   9.911 -0.8994  0.2008  0.1866
   81SAPS  C212 7540   5.576   2.824   9.783 -0.0497 -0.5272  0.3290
   81SAPS  H12R 7541   5.558   2.775   9.687  0.0996  2.9340 -1.6386
   81SAPS  C213 7542   5.613   2.964   9.759 -0.4347  0.2343  0.2220
   81SAPS  H13R 7543   5.674   2.964   9.666 -0.3007  0.1221  0.3115
   81SAPS  H13S 7544   5.685   3.001   9.834 -0.3460  1.0464 -0.2484
   81SAPS  C214 7545   5.508   3.069   9.762 -0.2021  0.1290 -0.1828
   81SAPS  H14R 7546   5.496   3.117   9.860  1.2208  1.4031 -0.5944
   81SAPS  C215 7547   5.423   3.099   9.659 -0.2973 -0.2600 -0.4872
   81SAPS  H15R 7548   5.347   3.172   9.692  0.9820  0.7625  0.2875
   81SAPS  C216 7549   5.430   3.052   9.514 -0.0393 -0.4468 -0.6120
   81SAPS  H16R 7550   5.540   3.046   9.499  0.3478  1.6730  0.9859
   81SAPS  H16S 7551   5.382   3.125   9.445 -1.2451 -0.5189  0.1190
   81SAPS  C217 7552   5.378   2.903   9.488 -0.7183 -0.4146  0.3158
   81SAPS  H17R 7553   5.268   2.911   9.497 -0.6464 -0.3571  1.2550
   81SAPS  H17S 7554   5.416   2.822   9.553  1.2854  1.8438  2.1476
   81SAPS  C218 7555   5.411   2.866   9.338  0.3182  0.2799 -0.7777
   81SAPS  H18R 7556   5.363   2.945   9.276 -1.3154  0.9764  1.2823
   81SAPS  H18S 7557   5.357   2.772   9.317  0.0248 -0.6779  3.4812
   81SAPS  C219 7558   5.556   2.860   9.279  0.1149 -0.1253  0.0440
   81SAPS  H19R 7559   5.627   2.803   9.342 -1.2457  1.6571  3.4463
   81SAPS  H19S 7560   5.599   2.963   9.278  1.2559 -0.5906  0.3228
   81SAPS  C220 7561   5.564   2.814   9.132  0.1676 -0.6353  0.3865
   81SAPS  H20R 7562   5.671   2.785   9.121  0.6598  0.5583  1.6764
   81SAPS  H20S 7563   5.531   2.896   9.066 -0.7319  1.1056  2.8540
   81SAPS  H20T 7564   5.492   2.731   9.121 -2.9320  1.9132  0.1475
   81SAPS   C33 7565   6.921   2.929  10.283  0.2283  0.1697 -0.0519
   81SAPS   H3X 7566   6.951   2.824  10.300 -1.0274 -0.0151  1.2106
   81SAPS   H3Y 7567   6.990   2.990  10.345  0.1621  0.4181 -0.2205
   81SAPS   C34 7568   6.951   2.978  10.131  0.0109  0.0379  0.6078
   81SAPS   H4X 7569   7.058   2.951  10.121 -0.3332 -1.8646  1.5099
   81SAPS   H4Y 7570   6.945   3.088  10.129  0.0867  0.0773  1.7297
   81SAPS   C35 7571   6.868   2.933  10.005 -0.8621  0.7734  0.2701
   81SAPS   H5X 7572   6.761   2.926  10.038 -0.8958  0.6177  0.1315
   81SAPS   H5Y 7573   6.900   2.827   9.993 -0.1895  1.1088 -0.9682
   81SAPS   C36 7574   6.893   3.001   9.872 -0.9165  0.1589 -0.8513
   81SAPS   H6X 7575   7.003   3.013   9.859 -0.9336  1.7773  0.2229
   81SAPS   H6Y 7576   6.862   3.106   9.890  1.1321  0.8549 -1.0846
   81SAPS   C37 7577   6.819   2.944   9.753 -0.5474  0.4710 -0.0104
   81SAPS   H7X 7578   6.712   2.923   9.776 -1.6670  2.6137 -2.6115
   81SAPS   H7Y 7579   6.866   2.849   9.719  0.6039  1.2520 -0.6803
   81SAPS   C38 7580   6.825   3.045   9.633  0.5293 -0.0919 -0.5818
   81SAPS   H8X 7581   6.931   3.070   9.613 -0.0913  2.9800 -0.5331
   81SAPS   H8Y 7582   6.780   3.133   9.683  0.6780 -1.5018  2.1956
   81SAPS   C39 7583   6.754   2.991   9.516 -0.4515 -0.0471  0.3832
   81SAPS   H9X 7584   6.650   2.962   9.540 -0.3330 -0.9616 -0.1601
   81SAPS   H9Y 7585   6.810   2.908   9.468  0.1068  0.4286  0.1831
   81SAPS  C310 7586   6.737   3.092   9.402 -0.1572  0.6163 -0.2370
   81SAPS  H10X 7587   6.707   3.190   9.445 -2.3633  0.1101 -0.4726
   81SAPS  H10Y 7588   6.655   3.057   9.335  1.5772  0.0968 -2.2011
   81SAPS  C311 7589   6.856   3.126   9.318  0.1133  0.3147 -0.5250
   81SAPS  H11X 7590   6.910   3.037   9.277 -0.8562 -0.3179 -0.4514
   81SAPS  H11Y 7591   6.936   3.184   9.369 -0.7270  2.5613 -1.6435
   81SAPS  C312 7592   6.822   3.209   9.195 -0.0151  0.5849 -0.1876
   81SAPS  H12X 7593   6.790   3.310   9.230  2.2859  1.6011 -0.8174
   81SAPS  H12Y 7594   6.736   3.177   9.132  0.4304 -0.8326 -0.0978
   81SAPS  C313 7595   6.942   3.245   9.113  0.7122  0.2598 -0.3497
   81SAPS  H13X 7596   6.981   3.147   9.079  0.4204  0.2938 -0.7986
   81SAPS  H13Y 7597   7.026   3.286   9.172 -2.1826  2.2640  2.7865
   81SAPS  C314 7598   6.904   3.340   8.998  0.3397 -0.7974  0.1062
   81SAPS  H14X 7599   6.872   3.438   9.039 -1.0103 -0.3965 -1.7628
   81SAPS  H14Y 7600   6.815   3.297   8.947  0.4263 -1.2253  0.3141
   81SAPS  C315 7601   7.008   3.385   8.898  0.0025 -0.3519  0.3932
   81SAPS  H15X 7602   7.039   3.302   8.830 -0.0131  0.4807 -0.6575
   81SAPS  H15Y 7603   7.097   3.431   8.946  1.1123 -0.4446 -1.4835
   81SAPS  C316 7604   6.951   3.492   8.799 -0.1139  0.4370 -0.1884
   81SAPS  H16X 7605   6.958   3.591   8.849 -1.9622 -1.0541  3.4038
   81SAPS  H16Y 7606   6.844   3.477   8.775  0.1965 -3.1817  0.1838
   81SAPS  C317 7607   7.022   3.491   8.668 -0.5593  0.2239  0.6310
   81SAPS  H17X 7608   6.963   3.561   8.604 -0.7403 -0.3008  0.2151
   81SAPS  H17Y 7609   7.005   3.393   8.619 -1.9897  0.7751 -0.0351
   81SAPS  C318 7610   7.170   3.535   8.680  0.3313 -0.1017  0.2917
   81SAPS  H18X 7611   7.223   3.494   8.769 -0.5802 -2.1881 -0.0598
   81SAPS  H18Y 7612   7.170   3.646   8.681  0.8507 -0.0845 -0.8591
   81SAPS  H18Z 7613   7.220   3.494   8.590 -0.6314 -1.6756  0.4365
   82SAPS     N 7614   5.638   2.072  11.332 -0.1278 -0.5978  0.5753
   82SAPS   HN1 7615   5.566   2.009  11.372  0.1098 -1.5970 -0.4995
   82SAPS   HN2 7616   5.686   2.118  11.411 -2.4242  0.9223  1.1678
   82SAPS   HN3 7617   5.589   2.153  11.290  3.9121  2.6271  1.4336
   82SAPS   C12 7618   5.724   2.003  11.234  0.4115 -0.4605  0.0597
   82SAPS  H12A 7619   5.781   2.081  11.186  1.2200 -0.4974  0.9254
   82SAPS   C13 7620   5.810   1.888  11.301 -0.3930 -0.0122 -0.5074
   82SAPS  O13A 7621   5.804   1.864  11.422 -0.2927  0.0430 -0.5145
   82SAPS  O13B 7622   5.888   1.821  11.228  0.2002 -0.0247 -0.0038
   82SAPS   C11 7623   5.632   1.941  11.125  0.1692  0.4703 -0.4181
   82SAPS  H11A 7624   5.695   1.919  11.036  0.4806  3.1059 -0.9531
   82SAPS  H11B 7625   5.547   2.003  11.087 -2.7199 -2.6032  0.5468
   82SAPS     P 7626   5.422   1.813  11.224 -0.1891 -0.2419 -0.1060
   82SAPS   O13 7627   5.394   1.672  11.255  0.1995  0.3270 -0.3931
   82SAPS   O14 7628   5.405   1.908  11.333  0.0823 -0.0573 -0.0136
   82SAPS   O12 7629   5.570   1.819  11.172 -0.1147  0.0781  0.3785
   82SAPS   O11 7630   5.327   1.855  11.103 -0.2188 -0.1955 -0.0723
   82SAPS    C1 7631   5.354   1.773  10.979  0.6512 -0.2442 -0.2584
   82SAPS    HA 7632   5.455   1.789  10.934 -0.7479  1.2242 -3.1298
   82SAPS    HB 7633   5.339   1.666  11.006 -0.6859 -0.0154 -0.0278
   82SAPS    C2 7634   5.257   1.798  10.859 -0.4667 -0.4063  0.1926
   82SAPS    HS 7635   5.283   1.892  10.806 -2.2288  0.3112  0.5413
   82SAPS   O21 7636   5.119   1.804  10.910  1.0291  0.1661  0.0398
   82SAPS   C21 7637   5.037   1.885  10.852 -0.2680  0.0848  1.4630
   82SAPS   O22 7638   5.060   1.969  10.766 -0.6482 -0.2880  0.0926
   82SAPS   C22 7639   4.901   1.865  10.927 -0.3530  0.2092 -0.2856
   82SAPS   H2R 7640   4.899   1.778  10.995  2.2350  2.5336  3.0814
   82SAPS   H2S 7641   4.884   1.948  10.999 -0.7414  1.1364 -1.4119
   82SAPS    C3 7642   5.272   1.673  10.760 -0.6295 -0.2662  0.2829
   82SAPS    HX 7643   5.248   1.582  10.819 -0.4702  0.5394  1.6167
   82SAPS    HY 7644   5.379   1.666  10.733 -0.9445  0.0552 -1.1686
   82SAPS   O31 7645   5.184   1.675  10.644  0.4551  0.0034  0.1461
   82SAPS   C31 7646   5.241   1.734  10.544  0.2000  0.4168  0.7694
   82SAPS   O32 7647   5.352   1.783  10.547  0.0596 -0.1751  1.0279
   82SAPS   C32 7648   5.152   1.735  10.418  0.1463  0.0686  0.4521
   82SAPS   H2X 7649   5.076   1.815  10.432 -1.2024 -1.4212  1.9434
   82SAPS   H2Y 7650   5.088   1.646  10.409 -2.5910  2.0267 -0.8584
   82SAPS   C23 7651   4.782   1.852  10.824 -0.2729  0.4249 -0.1623
   82SAPS   H3R 7652   4.698   1.832  10.894 -0.0815 -1.0038 -0.3179
   82SAPS   H3S 7653   4.792   1.770  10.749  2.6174  1.2819 -0.8705
   82SAPS   C24 7654   4.745   1.987  10.765  0.3606  0.8563 -0.0477
   82SAPS   H4R 7655   4.826   2.003  10.690 -0.9755  1.3794 -1.4369
   82SAPS   H4S 7656   4.745   2.061  10.848  0.6548 -0.4280  1.1287
   82SAPS   C25 7657   4.613   1.968  10.701 -0.1684  0.3234  0.1099
   82SAPS   H5R 7658   4.532   2.011  10.761 -0.9986 -0.1442 -0.6549
   82SAPS   C26 7659   4.573   1.911  10.583 -0.7970  0.2701 -0.6245
   82SAPS   H6R 7660   4.465   1.916  10.564 -0.3078 -0.5919 -4.4713
   82SAPS   C27 7661   4.667   1.865  10.473  0.2430 -0.2064  0.0997
   82SAPS   H7R 7662   4.720   1.774  10.508 -1.0742 -2.0397 -2.4062
   82SAPS   H7S 7663   4.745   1.944  10.463  0.8584 -0.5030  2.2137
   82SAPS   C28 7664   4.603   1.831  10.338  0.4378 -0.2574  0.2857
   82SAPS   H8R 7665   4.520   1.759  10.349 -0.4442  0.4077 -1.5866
   82SAPS   C29 7666   4.621   1.883  10.216  0.5183  0.5522 -0.3318
   82SAPS   H9R 7667   4.567   1.825  10.140 -1.1466  0.5936  0.7683
   82SAPS  C210 7668   4.712   1.986  10.155 -0.1863  0.3832 -0.0972
   82SAPS  H10R 7669   4.817   1.951  10.153 -0.0282  0.8842 -2.2793
   82SAPS  H10S 7670   4.720   2.084  10.208  0.1759  1.5379 -2.2096
   82SAPS  C211 7671   4.679   2.015  10.015  0.4080 -0.0931 -0.4936
   82SAPS  H11R 7672   4.607   2.098  10.010  1.7518  1.0682 -1.7309
   82SAPS  C212 7673   4.713   1.942   9.906  0.5904 -0.5876  0.4390
   82SAPS  H12R 7674   4.679   1.977   9.808 -2.3016  1.6032  2.0606
   82SAPS  C213 7675   4.796   1.822   9.902  0.2222  0.4510  0.0205
   82SAPS  H13R 7676   4.726   1.742   9.870 -0.0106 -0.2139  2.0606
   82SAPS  H13S 7677   4.814   1.787  10.005  0.4196 -3.1699 -1.1045
   82SAPS  C214 7678   4.916   1.845   9.815 -0.0659 -0.6295  1.2608
   82SAPS  H14R 7679   4.976   1.930   9.849  0.3095  0.0684 -1.0028
   82SAPS  C215 7680   4.942   1.789   9.695 -0.1521  0.0893 -0.9822
   82SAPS  H15R 7681   5.037   1.809   9.643  1.4538 -0.7990  1.4583
   82SAPS  C216 7682   4.859   1.668   9.647 -0.4958 -0.5762 -0.1763
   82SAPS  H16R 7683   4.753   1.698   9.632 -0.6778 -0.7231  0.7119
   82SAPS  H16S 7684   4.852   1.594   9.730 -1.2592 -0.1478  0.1649
   82SAPS  C217 7685   4.924   1.613   9.524 -0.2791 -0.5746  0.5874
   82SAPS  H17R 7686   4.894   1.507   9.509 -0.0404 -0.1597 -4.1281
   82SAPS  H17S 7687   5.034   1.621   9.540  0.0983 -2.8072 -0.5206
   82SAPS  C218 7688   4.897   1.687   9.390 -0.4230  0.5317  0.3728
   82SAPS  H18R 7689   4.933   1.792   9.403 -1.1847  0.6697  1.4600
   82SAPS  H18S 7690   4.788   1.689   9.369 -0.0642 -0.6067 -1.9112
   82SAPS  C219 7691   4.968   1.615   9.275  1.1838  0.0231  0.3107
   82SAPS  H19R 7692   4.950   1.506   9.270 -1.5822  0.4484 -1.1457
   82SAPS  H19S 7693   5.078   1.623   9.288  0.8701  2.9220  2.1059
   82SAPS  C220 7694   4.919   1.661   9.131  0.2865 -0.8116 -0.2749
   82SAPS  H20R 7695   4.819   1.616   9.114 -0.3337  1.1762 -2.4275
   82SAPS  H20S 7696   4.989   1.631   9.051 -0.5533  0.0396 -1.3632
   82SAPS  H20T 7697   4.908   1.772   9.139 -1.6312 -0.7621 -2.6154
   82SAPS   C33 7698   5.227   1.769  10.293  0.3815  0.8100 -0.0292
   82SAPS   H3X 7699   5.332   1.734  10.287  0.1868  0.1528  0.3198
   82SAPS   H3Y 7700   5.233   1.880  10.287  1.3005  0.7505 -0.3842
   82SAPS   C34 7701   5.145   1.709  10.177 -0.8660 -0.3010 -0.9180
   82SAPS   H4X 7702   5.048   1.761  10.170 -0.4826  0.6159  0.3023
   82SAPS   H4Y 7703   5.132   1.602  10.204  0.6000 -0.3114 -0.1351
   82SAPS   C35 7704   5.213   1.717  10.039  0.0676  0.0146  0.3143
   82SAPS   H5X 7705   5.127   1.705   9.970 -1.0753  1.4443  1.4235
   82SAPS   H5Y 7706   5.285   1.637  10.011  1.2210  0.5922  1.5127
   82SAPS   C36 7707   5.266   1.853  10.004  0.4951 -0.0750  0.5453
   82SAPS   H6X 7708   5.358   1.872  10.063 -0.4289  5.1628  0.7288
   82SAPS   H6Y 7709   5.191   1.925  10.043  0.0182  0.3703 -1.1291
   82SAPS   C37 7710   5.289   1.884   9.862 -0.3028  0.3993 -0.0069
   82SAPS   H7X 7711   5.330   1.987   9.858 -0.6770  0.5486 -0.0279
   82SAPS   H7Y 7712   5.192   1.890   9.809  0.4186  0.8714 -1.3066
   82SAPS   C38 7713   5.387   1.786   9.789  0.0110  0.0049  0.0942
   82SAPS   H8X 7714   5.349   1.682   9.793 -2.7326  0.5985 -4.0451
   82SAPS   H8Y 7715   5.472   1.796   9.860  0.2436  0.9268 -0.2985
   82SAPS   C39 7716   5.426   1.827   9.650 -0.5256 -0.1918 -0.4493
   82SAPS   H9X 7717   5.530   1.798   9.625 -0.3866 -1.3938  1.3292
   82SAPS   H9Y 7718   5.418   1.937   9.644  0.1875 -0.2241 -2.7726
   82SAPS  C310 7719   5.327   1.760   9.549  0.1352 -0.1075  0.4636
   82SAPS  H10X 7720   5.229   1.813   9.546  0.1931  0.0311  0.9512
   82SAPS  H10Y 7721   5.308   1.655   9.580  0.5328 -0.4704 -0.4538
   82SAPS  C311 7722   5.384   1.734   9.411  0.3768  0.4866 -0.6010
   82SAPS  H11X 7723   5.306   1.676   9.358  0.8318 -0.4446 -0.2758
   82SAPS  H11Y 7724   5.475   1.670   9.421 -0.3104 -0.9032 -2.5825
   82SAPS  C312 7725   5.411   1.862   9.333  0.4752  0.4900 -0.4431
   82SAPS  H12X 7726   5.485   1.919   9.393  1.1328 -0.7319 -0.0632
   82SAPS  H12Y 7727   5.320   1.925   9.328 -0.4611 -0.8059 -0.2298
   82SAPS  C313 7728   5.466   1.852   9.195  0.4297  0.1558 -0.2992
   82SAPS  H13X 7729   5.559   1.791   9.197 -0.6819 -1.5992  0.1151
   82SAPS  H13Y 7730   5.487   1.955   9.159  1.8341 -0.3281 -0.9190
   82SAPS  C314 7731   5.363   1.788   9.099  0.0339 -0.0265 -0.2994
   82SAPS  H14X 7732   5.264   1.832   9.125 -0.8454 -2.5814  1.0581
   82SAPS  H14Y 7733   5.345   1.679   9.112 -2.8150  0.2775 -1.0147
   82SAPS  C315 7734   5.403   1.811   8.953 -0.0049 -0.3508 -0.3068
   82SAPS  H15X 7735   5.510   1.782   8.948  0.4374  1.2745 -0.8303
   82SAPS  H15Y 7736   5.399   1.918   8.925  3.0205 -0.5185 -1.8402
   82SAPS  C316 7737   5.314   1.730   8.860 -0.0995  0.1500  0.0310
   82SAPS  H16X 7738   5.207   1.755   8.874 -1.0772 -1.0326 -3.9337
   82SAPS  H16Y 7739   5.335   1.624   8.883  1.8528  0.4192 -0.3387
   82SAPS  C317 7740   5.353   1.763   8.714 -0.4217 -0.5435 -0.7901
   82SAPS  H17X 7741   5.401   1.863   8.715 -1.7467  0.1808  2.3056
   82SAPS  H17Y 7742   5.261   1.763   8.652 -1.1900 -0.3806  0.3188
   82SAPS  C318 7743   5.448   1.658   8.669 -0.2042 -0.0166  0.7069
   82SAPS  H18X 7744   5.388   1.566   8.687 -0.4350  0.2738  1.4472
   82SAPS  H18Y 7745   5.539   1.663   8.732  0.2616  0.1895  0.0366
   82SAPS  H18Z 7746   5.481   1.668   8.563  1.7587  2.4781  1.4564
   83SAPS     N 7747   6.036   3.741  10.918 -0.3474 -0.4933  0.4654
   83SAPS   HN1 7748   5.953   3.799  10.942 -1.0929 -0.7186 -1.4033
   83SAPS   HN2 7749   6.121   3.798  10.935 -1.1946  0.9195  0.0884
   83SAPS   HN3 7750   6.028   3.705  10.821 -0.1927 -2.5498  1.1657
   83SAPS   C12 7751   6.051   3.636  11.013  0.4986  0.0978  0.7504
   83SAPS  H12A 7752   6.147   3.592  10.994 -0.3321 -2.2857  1.7355
   83SAPS   C13 7753   6.073   3.682  11.161 -0.8408  0.4524 -1.1485
   83SAPS  O13A 7754   6.073   3.805  11.192 -0.0936  0.2363  0.1441
   83SAPS  O13B 7755   6.108   3.594  11.248  0.2185 -0.6095  0.5597
   83SAPS   C11 7756   5.941   3.527  11.016 -0.7533 -0.2800  0.0327
   83SAPS  H11A 7757   5.962   3.467  11.106  2.5663 -0.1266 -0.5045
   83SAPS  H11B 7758   5.960   3.475  10.919 -1.5986 -0.8895  0.1824
   83SAPS     P 7759   5.673   3.506  11.003 -0.1111 -0.0919 -0.1222
   83SAPS   O13 7760   5.626   3.428  11.120 -0.0704  0.2327 -0.5730
   83SAPS   O14 7761   5.573   3.593  10.944  0.5400  0.5150  0.1697
   83SAPS   O12 7762   5.807   3.585  11.033  0.6264  0.5604  0.1742
   83SAPS   O11 7763   5.723   3.406  10.895 -0.1042  0.3865 -0.0492
   83SAPS    C1 7764   5.748   3.422  10.752  0.3225 -0.4334  0.4004
   83SAPS    HA 7765   5.794   3.519  10.723  1.1974 -1.0976 -0.5014
   83SAPS    HB 7766   5.815   3.344  10.710  1.2356  0.2768  0.4992
   83SAPS    C2 7767   5.618   3.404  10.667  0.4723 -0.0885  0.1401
   83SAPS    HS 7768   5.544   3.459  10.729  0.3236 -1.2600  1.0203
   83SAPS   O21 7769   5.588   3.268  10.666 -0.2613  0.5639  0.0096
   83SAPS   C21 7770   5.464   3.237  10.653 -0.3387  0.9285  0.2124
   83SAPS   O22 7771   5.370   3.311  10.629 -0.4737 -0.3169  0.7928
   83SAPS   C22 7772   5.455   3.090  10.686 -0.2834 -0.3994 -0.4571
   83SAPS   H2R 7773   5.555   3.042  10.701 -0.1543 -1.0021 -2.8996
   83SAPS   H2S 7774   5.399   3.077  10.781  0.0699 -2.5621 -0.4926
   83SAPS    C3 7775   5.626   3.468  10.530  0.0292 -0.4892  1.3562
   83SAPS    HX 7776   5.656   3.575  10.536 -1.4852 -0.0490  1.4118
   83SAPS    HY 7777   5.523   3.470  10.487  0.7564 -1.4142 -0.5660
   83SAPS   O31 7778   5.722   3.393  10.439 -0.2227 -0.8636 -0.4968
   83SAPS   C31 7779   5.850   3.432  10.432 -0.1948  0.2171  0.7336
   83SAPS   O32 7780   5.897   3.534  10.488  0.9216 -0.6265  0.1853
   83SAPS   C32 7781   5.927   3.330  10.345  0.6512 -0.0797 -0.5729
   83SAPS   H2X 7782   5.878   3.231  10.352  2.3747 -0.8668  2.4517
   83SAPS   H2Y 7783   6.030   3.342  10.384  1.0633 -0.5210 -1.5094
   83SAPS   C23 7784   5.382   3.004  10.584  0.2013  0.2348  0.2706
   83SAPS   H3R 7785   5.293   3.057  10.544  1.7345  1.3819 -1.8163
   83SAPS   H3S 7786   5.349   2.913  10.638  2.1232 -1.5390 -1.3586
   83SAPS   C24 7787   5.468   2.954  10.461  0.1670 -1.7693 -0.3239
   83SAPS   H4R 7788   5.401   2.882  10.409  0.6700 -1.3096 -1.6491
   83SAPS   H4S 7789   5.550   2.886  10.495  1.7685  0.7793  1.2189
   83SAPS   C25 7790   5.532   3.073  10.392  0.4583  0.2582  0.1529
   83SAPS   H5R 7791   5.631   3.115  10.417  1.5140 -1.1708 -1.3797
   83SAPS   C26 7792   5.467   3.139  10.299 -0.1930 -0.9884 -0.0093
   83SAPS   H6R 7793   5.534   3.209  10.247  0.1088 -0.8968  0.4963
   83SAPS   C27 7794   5.334   3.110  10.243  0.2304  0.4712 -0.2849
   83SAPS   H7R 7795   5.276   3.204  10.255  0.4903  0.6793 -0.6692
   83SAPS   H7S 7796   5.284   3.036  10.309  1.0086 -0.7682 -1.0429
   83SAPS   C28 7797   5.329   3.069  10.099  0.0799 -0.0452 -0.0237
   83SAPS   H8R 7798   5.421   3.023  10.060  1.3057  2.6862 -0.5525
   83SAPS   C29 7799   5.224   3.085  10.015  0.8860  0.1822  0.6419
   83SAPS   H9R 7800   5.228   3.060   9.908 -0.2968  0.9594  0.3915
   83SAPS  C210 7801   5.086   3.132  10.060  0.8475 -0.1018 -0.9615
   83SAPS  H10R 7802   5.085   3.163  10.167 -0.3268  0.0846 -1.0125
   83SAPS  H10S 7803   5.011   3.051  10.067  0.4006  0.3919  3.8808
   83SAPS  C211 7804   5.033   3.256   9.996 -0.0769 -0.5082  0.2309
   83SAPS  H11R 7805   5.092   3.347  10.014 -1.8496  1.1384 -1.6723
   83SAPS  C212 7806   4.919   3.263   9.920 -0.2175 -0.7169 -1.0579
   83SAPS  H12R 7807   4.905   3.361   9.872  0.0938 -0.4629 -0.6464
   83SAPS  C213 7808   4.820   3.154   9.888  0.5892 -0.1895 -0.4618
   83SAPS  H13R 7809   4.766   3.129   9.982 -0.4775  0.9715 -0.7278
   83SAPS  H13S 7810   4.871   3.061   9.856  2.0064  0.9540 -1.6641
   83SAPS  C214 7811   4.702   3.193   9.800 -0.1252  0.0814 -0.1432
   83SAPS  H14R 7812   4.674   3.298   9.815  0.8284 -0.0170  3.1044
   83SAPS  C215 7813   4.653   3.118   9.707  0.2763 -0.2283 -0.3190
   83SAPS  H15R 7814   4.573   3.169   9.652  0.8095  2.0674  0.9026
   83SAPS  C216 7815   4.686   2.974   9.670  0.4853 -0.2677  0.7847
   83SAPS  H16R 7816   4.598   2.914   9.641  0.1562  0.8170 -0.5684
   83SAPS  H16S 7817   4.706   2.920   9.765 -3.2124 -1.2647  1.1276
   83SAPS  C217 7818   4.793   2.974   9.558 -0.0564  0.4193 -0.3797
   83SAPS  H17R 7819   4.819   2.872   9.524  1.7072  1.2110 -1.5835
   83SAPS  H17S 7820   4.877   3.028   9.607 -1.0064  1.7004 -0.1006
   83SAPS  C218 7821   4.756   3.048   9.434  0.4556 -0.0891 -0.7098
   83SAPS  H18R 7822   4.757   3.155   9.465 -0.6762  0.1115 -1.2812
   83SAPS  H18S 7823   4.655   3.027   9.392 -0.6233  2.6411  0.2838
   83SAPS  C219 7824   4.858   3.013   9.327 -0.1224 -0.5082  0.8525
   83SAPS  H19R 7825   4.826   2.911   9.297 -1.2660 -0.5672  2.2048
   83SAPS  H19S 7826   4.958   3.002   9.375 -0.4603  1.6585  2.1995
   83SAPS  C220 7827   4.868   3.105   9.199 -0.0106  0.0565 -0.4111
   83SAPS  H20R 7828   4.942   3.186   9.215  0.5880 -0.3656 -0.9937
   83SAPS  H20S 7829   4.765   3.141   9.179 -1.1477 -1.9679  1.4567
   83SAPS  H20T 7830   4.889   3.055   9.102 -0.4323  1.5744 -1.3288
   83SAPS   C33 7831   5.941   3.387  10.203  0.0810 -0.9325 -0.3077
   83SAPS   H3X 7832   5.971   3.494  10.205  0.5315 -1.0465 -0.7008
   83SAPS   H3Y 7833   5.838   3.397  10.162 -0.4354 -1.9797  0.6950
   83SAPS   C34 7834   6.026   3.308  10.107  0.2765  0.3536  0.2583
   83SAPS   H4X 7835   6.011   3.198  10.112 -0.0403  0.4468  2.0494
   83SAPS   H4Y 7836   6.129   3.318  10.149  0.0504  4.0252  0.2304
   83SAPS   C35 7837   5.996   3.351   9.962  1.1152  0.5116 -0.0915
   83SAPS   H5X 7838   6.026   3.457   9.949  1.0693  0.3204 -2.2164
   83SAPS   H5Y 7839   5.888   3.341   9.938  0.8326  4.7161 -1.4606
   83SAPS   C36 7840   6.065   3.274   9.850 -0.7021 -0.0588  0.4042
   83SAPS   H6X 7841   6.176   3.271   9.859 -0.6755 -0.5190  0.0064
   83SAPS   H6Y 7842   6.049   3.328   9.754 -1.0215 -2.0292 -0.7042
   83SAPS   C37 7843   6.001   3.135   9.837  0.3611 -0.2605 -0.4403
   83SAPS   H7X 7844   5.895   3.151   9.864  0.6170 -0.9993  1.0804
   83SAPS   H7Y 7845   6.042   3.063   9.910  0.5405  0.1825 -0.0950
   83SAPS   C38 7846   6.020   3.071   9.702 -0.2891 -0.3464 -0.1816
   83SAPS   H8X 7847   5.965   2.976   9.720 -0.2297 -0.0351  1.8823
   83SAPS   H8Y 7848   6.126   3.044   9.685  0.2825  0.3898  1.9614
   83SAPS   C39 7849   5.959   3.147   9.574 -0.0926 -0.3330 -0.5213
   83SAPS   H9X 7850   5.987   3.255   9.569 -1.2208 -0.0487 -1.0880
   83SAPS   H9Y 7851   5.850   3.162   9.587  0.2224  1.5176  0.3632
   83SAPS  C310 7852   5.994   3.070   9.450  0.2096  0.7635 -0.7706
   83SAPS  H10X 7853   5.973   2.962   9.466 -0.0713  0.9264 -0.0304
   83SAPS  H10Y 7854   6.104   3.077   9.438  0.2480  0.7900 -0.4052
   83SAPS  C311 7855   5.916   3.123   9.328 -0.5048  0.3994 -0.0668
   83SAPS  H11X 7856   5.919   3.234   9.330 -1.5423  0.4238  1.0366
   83SAPS  H11Y 7857   5.812   3.088   9.341 -0.0261 -0.7626  0.9007
   83SAPS  C312 7858   5.970   3.062   9.195  0.6737  0.0770 -1.0676
   83SAPS  H12X 7859   5.990   2.957   9.227 -1.2622  0.1420  0.5557
   83SAPS  H12Y 7860   6.058   3.118   9.157  0.1450  0.2339 -2.1131
   83SAPS  C313 7861   5.863   3.062   9.080 -0.4504 -0.4017 -0.3862
   83SAPS  H13X 7862   5.842   3.167   9.051 -2.2555 -0.9511 -1.2147
   83SAPS  H13Y 7863   5.773   3.020   9.130 -0.2070  0.4659  0.8351
   83SAPS  C314 7864   5.901   2.988   8.956 -0.1604 -0.3959  0.2956
   83SAPS  H14X 7865   5.945   2.888   8.976 -0.8255 -1.0329 -1.2448
   83SAPS  H14Y 7866   5.976   3.048   8.899 -1.8317 -0.6658 -2.3286
   83SAPS  C315 7867   5.784   2.984   8.849  0.2871  0.2266 -0.1490
   83SAPS  H15X 7868   5.742   3.086   8.836  2.5146  1.5497  2.1648
   83SAPS  H15Y 7869   5.705   2.916   8.888 -1.1292  0.7642 -1.9360
   83SAPS  C316 7870   5.830   2.923   8.715 -0.4549 -0.0798 -0.5063
   83SAPS  H16X 7871   5.885   2.829   8.735 -2.3133 -0.8071  1.6484
   83SAPS  H16Y 7872   5.895   2.991   8.656  1.0165  0.2158  1.3595
   83SAPS  C317 7873   5.715   2.875   8.629  0.5913  0.6673  0.4129
   83SAPS  H17X 7874   5.646   2.962   8.618  1.0512  1.0567  0.5597
   83SAPS  H17Y 7875   5.659   2.805   8.695  0.1296 -0.0212 -0.6801
   83SAPS  C318 7876   5.748   2.813   8.496  0.7507  0.6552 -0.5791
   83SAPS  H18X 7877   5.820   2.877   8.440  1.2171 -0.3003 -1.1118
   83SAPS  H18Y 7878   5.658   2.804   8.432 -0.7612  0.4122  1.5013
   83SAPS  H18Z 7879   5.786   2.710   8.514 -0.6192  0.1969 -0.2019
   84SAPS     N 7880   1.883   1.864  10.641 -0.1508 -0.0371  0.1832
   84SAPS   HN1 7881   1.813   1.877  10.564 -1.3506  0.8167  1.3779
   84SAPS   HN2 7882   1.956   1.938  10.632 -0.9558  1.1187  2.4914
   84SAPS   HN3 7883   1.928   1.771  10.639 -0.1505 -0.0979  1.7791
   84SAPS   C12 7884   1.815   1.880  10.766 -0.6785  0.3202  0.4788
   84SAPS  H12A 7885   1.774   1.781  10.782 -1.4006  0.5885  0.3440
   84SAPS   C13 7886   1.906   1.910  10.886  0.1970  0.3765  0.2092
   84SAPS  O13A 7887   2.028   1.942  10.871  0.4552 -0.2394 -0.1151
   84SAPS  O13B 7888   1.856   1.893  10.999 -0.1791 -0.0322  0.2442
   84SAPS   C11 7889   1.707   1.994  10.759 -0.9015 -0.6514 -0.3326
   84SAPS  H11A 7890   1.764   2.090  10.768  1.0966 -1.6493 -1.5481
   84SAPS  H11B 7891   1.652   1.990  10.855 -2.0413  1.0347 -0.8564
   84SAPS     P 7892   1.456   2.000  10.689 -0.5944  0.2885  0.4075
   84SAPS   O13 7893   1.426   1.901  10.798  0.6221 -0.7454 -0.2208
   84SAPS   O14 7894   1.432   2.143  10.708 -0.2624 -0.1821 -0.3496
   84SAPS   O12 7895   1.616   1.984  10.649 -0.0681 -0.2113 -0.0182
   84SAPS   O11 7896   1.378   1.938  10.555  0.1449 -0.0733 -0.8553
   84SAPS    C1 7897   1.383   2.010  10.430 -0.2483 -0.0844  0.5108
   84SAPS    HA 7898   1.291   1.982  10.373 -1.0648 -0.7367  2.0849
   84SAPS    HB 7899   1.378   2.120  10.446 -0.7308  0.1169 -0.8863
   84SAPS    C2 7900   1.504   1.971  10.342 -0.3680 -0.3919  0.2027
   84SAPS    HS 7901   1.598   2.010  10.385  1.1770 -0.9441 -2.4757
   84SAPS   O21 7902   1.488   2.011  10.203 -0.1951  0.3937 -0.5452
   84SAPS   C21 7903   1.492   2.140  10.183  0.0030  0.1597  0.1460
   84SAPS   O22 7904   1.520   2.227  10.263  0.3923 -0.1021  0.4662
   84SAPS   C22 7905   1.493   2.162  10.025 -0.2346  0.6722  0.2823
   84SAPS   H2R 7906   1.600   2.172   9.995 -0.5195  2.5382 -0.1866
   84SAPS   H2S 7907   1.446   2.071   9.982  0.2981  0.7123 -0.3953
   84SAPS    C3 7908   1.532   1.817  10.330 -0.5273  0.3874 -0.3632
   84SAPS    HX 7909   1.435   1.778  10.294 -0.3295 -1.1865  0.7409
   84SAPS    HY 7910   1.535   1.754  10.421 -1.3713 -2.7754 -2.3722
   84SAPS   O31 7911   1.629   1.782  10.230  0.7023  0.2868  0.2667
   84SAPS   C31 7912   1.760   1.804  10.257 -0.5973 -0.9254 -0.4669
   84SAPS   O32 7913   1.801   1.849  10.365  0.1220 -0.1883 -0.7504
   84SAPS   C32 7914   1.853   1.758  10.143  0.3504 -0.5627 -0.0747
   84SAPS   H2X 7915   1.943   1.717  10.193 -1.2133  0.0005  3.5119
   84SAPS   H2Y 7916   1.872   1.843  10.074  1.5950 -0.3443  0.5206
   84SAPS   C23 7917   1.423   2.281   9.973 -0.4242  0.9399 -0.7799
   84SAPS   H3R 7918   1.447   2.379  10.020 -0.6221  0.5090  0.2503
   84SAPS   H3S 7919   1.314   2.269   9.992 -1.1442  2.7287 -3.2328
   84SAPS   C24 7920   1.462   2.299   9.828 -0.0164 -0.5095  0.2775
   84SAPS   H4R 7921   1.457   2.197   9.783  0.6985 -0.5447  0.2570
   84SAPS   H4S 7922   1.571   2.319   9.840  0.0055 -0.4435 -0.0174
   84SAPS   C25 7923   1.401   2.409   9.744  0.4519 -0.2076  0.1762
   84SAPS   H5R 7924   1.353   2.495   9.795  0.1262 -1.0753  1.3893
   84SAPS   C26 7925   1.393   2.400   9.612 -0.4140 -0.3041  0.0949
   84SAPS   H6R 7926   1.343   2.481   9.557  0.1377 -0.1327 -0.1625
   84SAPS   C27 7927   1.456   2.294   9.527 -0.1079  0.2245  0.1821
   84SAPS   H7R 7928   1.492   2.200   9.575 -1.1711 -2.2439 -3.4206
   84SAPS   H7S 7929   1.546   2.341   9.481  1.0434 -1.5112  0.5516
   84SAPS   C28 7930   1.367   2.264   9.410 -0.4653  1.3306  0.0266
   84SAPS   H8R 7931   1.278   2.205   9.436  0.8022 -0.7281 -0.0406
   84SAPS   C29 7932   1.365   2.321   9.287 -0.4026  0.4575  0.0096
   84SAPS   H9R 7933   1.283   2.286   9.223 -1.4670 -2.2068  2.6062
   84SAPS  C210 7934   1.460   2.424   9.229  0.6411 -0.5019 -0.4322
   84SAPS  H10R 7935   1.552   2.381   9.182  2.2691  0.4066  1.7490
   84SAPS  H10S 7936   1.508   2.477   9.314 -0.5877  0.6645 -0.4254
   84SAPS  C211 7937   1.389   2.528   9.149  0.1050  0.0591 -0.1172
   84SAPS  H11R 7938   1.292   2.568   9.182 -0.8449  0.0181 -2.6458
   84SAPS  C212 7939   1.435   2.589   9.036 -0.8230  0.0672  0.0955
   84SAPS  H12R 7940   1.360   2.659   8.997 -0.1014  0.5847 -0.4026
   84SAPS  C213 7941   1.566   2.577   8.958  0.1552  0.3971 -0.1145
   84SAPS  H13R 7942   1.547   2.642   8.870  1.7947  1.5109  0.3034
   84SAPS  H13S 7943   1.581   2.474   8.919 -1.5266 -0.1088  0.4609
   84SAPS  C214 7944   1.680   2.637   9.030  0.3914 -0.0659  0.6412
   84SAPS  H14R 7945   1.686   2.627   9.139 -0.6933  2.2628  0.9817
   84SAPS  C215 7946   1.774   2.709   8.974 -0.5672  0.3768 -0.5841
   84SAPS  H15R 7947   1.856   2.747   9.037  1.6159  1.2641 -3.7150
   84SAPS  C216 7948   1.793   2.733   8.830 -0.4266 -0.2886 -0.4439
   84SAPS  H16R 7949   1.737   2.664   8.762 -1.6810  0.3818 -0.1107
   84SAPS  H16S 7950   1.899   2.719   8.799 -0.5701 -2.0146 -0.2578
   84SAPS  C217 7951   1.756   2.879   8.777 -0.2716  0.2748 -0.5381
   84SAPS  H17R 7952   1.784   2.961   8.847 -0.4252 -0.2496  0.1504
   84SAPS  H17S 7953   1.645   2.883   8.780 -0.3636 -1.9110  1.3172
   84SAPS  C218 7954   1.818   2.904   8.641 -0.7038  0.6626 -0.4988
   84SAPS  H18R 7955   1.803   2.813   8.579  0.8143 -0.3854  0.6104
   84SAPS  H18S 7956   1.929   2.907   8.647 -0.6593 -1.4534  0.5393
   84SAPS  C219 7957   1.773   3.036   8.573  0.5740 -0.1111 -0.0898
   84SAPS  H19R 7958   1.801   3.128   8.628 -0.9664  0.7583 -0.7024
   84SAPS  H19S 7959   1.663   3.043   8.563  0.4587  0.3945  1.3105
   84SAPS  C220 7960   1.835   3.064   8.441  0.5979  0.5755 -0.2368
   84SAPS  H20R 7961   1.804   2.987   8.367 -1.1283  0.5531  0.4625
   84SAPS  H20S 7962   1.945   3.060   8.458  0.4416  0.2302  0.7754
   84SAPS  H20T 7963   1.809   3.162   8.397 -1.7828 -1.1474 -3.0002
   84SAPS   C33 7964   1.785   1.650  10.054  0.4591  0.0017 -0.5442
   84SAPS   H3X 7965   1.684   1.683  10.022  0.5219  1.2273  0.4604
   84SAPS   H3Y 7966   1.765   1.557  10.111 -1.5077 -0.4545 -1.8841
   84SAPS   C34 7967   1.861   1.615   9.934 -0.1686  0.0161  0.0009
   84SAPS   H4X 7968   1.948   1.553   9.965 -0.7305  0.4172  2.5712
   84SAPS   H4Y 7969   1.900   1.706   9.883  2.0025  0.0617  1.5671
   84SAPS   C35 7970   1.779   1.536   9.844 -0.7649 -0.0210  0.4935
   84SAPS   H5X 7971   1.689   1.599   9.826  0.0524  1.0177 -0.0947
   84SAPS   H5Y 7972   1.745   1.443   9.895 -0.3315 -1.1769 -1.2561
   84SAPS   C36 7973   1.841   1.492   9.710  0.2620 -0.6210 -0.0275
   84SAPS   H6X 7974   1.764   1.455   9.638  2.4004 -0.4421 -2.5315
   84SAPS   H6Y 7975   1.898   1.397   9.724 -0.3818 -1.3595 -1.9766
   84SAPS   C37 7976   1.910   1.603   9.640 -0.8558  0.0644  1.0931
   84SAPS   H7X 7977   2.001   1.623   9.701 -1.4152 -0.4985  2.1506
   84SAPS   H7Y 7978   1.849   1.696   9.636  0.2504  0.8181  1.4602
   84SAPS   C38 7979   1.954   1.569   9.500 -0.1480 -0.3738 -0.2850
   84SAPS   H8X 7980   2.021   1.482   9.511  1.3428  0.9182  1.3623
   84SAPS   H8Y 7981   2.022   1.651   9.466 -0.0236 -0.2944  0.1532
   84SAPS   C39 7982   1.847   1.546   9.402  0.4366 -0.2725  0.2921
   84SAPS   H9X 7983   1.770   1.624   9.418  1.1436  0.3754  0.5696
   84SAPS   H9Y 7984   1.790   1.451   9.406  1.0844 -0.7315 -0.8681
   84SAPS  C310 7985   1.902   1.553   9.255 -0.0854  0.7333 -0.6177
   84SAPS  H10X 7986   1.820   1.521   9.188 -0.1594 -0.4952  0.0483
   84SAPS  H10Y 7987   1.983   1.479   9.243 -0.2029  0.4202  0.4038
   84SAPS  C311 7988   1.951   1.686   9.203 -0.0870  0.5657 -0.8701
   84SAPS  H11X 7989   2.041   1.718   9.261 -1.2062  1.4326  0.4275
   84SAPS  H11Y 7990   1.865   1.751   9.226 -0.0260 -0.0111  1.2417
   84SAPS  C312 7991   1.996   1.694   9.058 -1.3789  0.5572  0.0421
   84SAPS  H12X 7992   1.988   1.799   9.022  0.3233  0.2540 -1.3521
   84SAPS  H12Y 7993   1.931   1.633   8.992  1.1297  0.8122 -2.8819
   84SAPS  C313 7994   2.145   1.640   9.032  0.6221  0.3764 -0.6508
   84SAPS  H13X 7995   2.141   1.533   9.061  2.7000  0.7171  1.1570
   84SAPS  H13Y 7996   2.201   1.691   9.113 -1.0098 -0.4226  1.0520
   84SAPS  C314 7997   2.205   1.673   8.897 -0.1228 -0.4772  0.0389
   84SAPS  H14X 7998   2.309   1.632   8.897  0.5164  1.0283  1.8313
   84SAPS  H14Y 7999   2.210   1.783   8.887  0.9250 -0.6775 -2.4909
   84SAPS  C315 8000   2.127   1.612   8.784 -0.5688 -0.2615 -0.4541
   84SAPS  H15X 8001   2.019   1.638   8.783 -0.3404  0.7130 -1.3829
   84SAPS  H15Y 8002   2.144   1.503   8.795 -0.1472 -0.4639 -2.7748
   84SAPS  C316 8003   2.199   1.656   8.648  0.9393  0.6067 -0.3459
   84SAPS  H16X 8004   2.309   1.656   8.668  1.1119  1.6815 -1.2450
   84SAPS  H16Y 8005   2.175   1.761   8.621 -0.7254  0.4156  0.3219
   84SAPS  C317 8006   2.175   1.557   8.534 -0.0995 -0.5882  0.3513
   84SAPS  H17X 8007   2.065   1.563   8.519 -0.1703 -0.4175  0.9038
   84SAPS  H17Y 8008   2.191   1.452   8.567 -1.9371 -0.6491  1.1906
   84SAPS  C318 8009   2.246   1.588   8.406 -0.2838  0.3174 -0.2369
   84SAPS  H18X 8010   2.232   1.512   8.325 -0.8704 -0.2609  0.3979
   84SAPS  H18Y 8011   2.354   1.591   8.431  0.0673 -0.7330 -1.4918
   84SAPS  H18Z 8012   2.210   1.682   8.361 -0.5421 -0.0310 -0.7690
   85SAPS     N 8013   3.226   4.671  10.485  0.1855 -0.6791 -0.1837
   85SAPS   HN1 8014   3.269   4.711  10.400 -0.2681  2.9652  1.1266
   85SAPS   HN2 8015   3.212   4.569  10.468  0.0731 -1.3489  3.1457
   85SAPS   HN3 8016   3.134   4.704  10.519  1.5144  2.7426  0.4759
   85SAPS   C12 8017   3.314   4.663  10.600  0.4314 -0.3116 -0.5287
   85SAPS  H12A 8018   3.300   4.753  10.658 -0.3839 -0.8121  0.0757
   85SAPS   C13 8019   3.286   4.557  10.704  0.1315  0.6919 -0.3913
   85SAPS  O13A 8020   3.174   4.489  10.698 -0.8188 -0.3369 -0.7085
   85SAPS  O13B 8021   3.351   4.541  10.810 -0.1700  0.3249 -0.0728
   85SAPS   C11 8022   3.460   4.656  10.550  0.2432 -0.7353  0.0599
   85SAPS  H11A 8023   3.482   4.562  10.496  2.6616 -0.5483  0.6333
   85SAPS  H11B 8024   3.512   4.644  10.647 -3.9783 -1.0843  2.5412
   85SAPS     P 8025   3.582   4.886  10.524  0.4430  0.2999 -0.0613
   85SAPS   O13 8026   3.510   4.918  10.653  0.5196 -0.0831  0.0106
   85SAPS   O14 8027   3.724   4.848  10.528 -0.6007  0.0578  0.4216
   85SAPS   O12 8028   3.495   4.768  10.468 -0.6039  0.3737 -0.0694
   85SAPS   O11 8029   3.556   4.999  10.424  0.3754 -0.1973  0.2531
   85SAPS    C1 8030   3.661   5.057  10.347 -0.0944  0.0363 -0.7821
   85SAPS    HA 8031   3.742   5.084  10.419 -1.4205 -0.6739  1.0486
   85SAPS    HB 8032   3.701   5.003  10.258  1.9215  2.0542 -1.1989
   85SAPS    C2 8033   3.609   5.195  10.312 -0.7648  0.1469  0.5583
   85SAPS    HS 8034   3.548   5.225  10.399  1.5262 -0.8294  2.6140
   85SAPS   O21 8035   3.534   5.185  10.189  0.0589  0.7884  0.6388
   85SAPS   C21 8036   3.426   5.260  10.173 -0.2736 -0.1238 -1.2225
   85SAPS   O22 8037   3.392   5.347  10.255  0.5572 -0.2146 -0.2164
   85SAPS   C22 8038   3.365   5.244  10.031  0.2597 -0.6983 -0.1874
   85SAPS   H2R 8039   3.452   5.269   9.968  0.7238  0.0538  0.7268
   85SAPS   H2S 8040   3.325   5.143  10.006 -0.8900 -0.1064 -0.7975
   85SAPS    C3 8041   3.729   5.297  10.290 -0.4174 -0.6151  0.3703
   85SAPS    HX 8042   3.769   5.296  10.393 -0.5104 -0.4245  0.4104
   85SAPS    HY 8043   3.693   5.396  10.254 -0.4805 -1.2453 -1.4426
   85SAPS   O31 8044   3.832   5.239  10.208  0.5509  0.0066  0.6117
   85SAPS   C31 8045   3.830   5.286  10.078 -0.5870 -0.1414  0.6086
   85SAPS   O32 8046   3.747   5.366  10.039  0.5362  0.1448 -0.0416
   85SAPS   C32 8047   3.951   5.222   9.997  0.1235 -0.4354  0.4053
   85SAPS   H2X 8048   4.043   5.225  10.059 -1.3928 -1.5216  2.8423
   85SAPS   H2Y 8049   3.981   5.291   9.915 -1.3277  0.7943  0.8632
   85SAPS   C23 8050   3.256   5.355   9.998 -0.1957 -0.0582  0.8208
   85SAPS   H3R 8051   3.287   5.453  10.040  0.3284  0.2110 -0.1629
   85SAPS   H3S 8052   3.161   5.321  10.045  0.5621 -2.0416  1.0247
   85SAPS   C24 8053   3.229   5.373   9.845  0.2112 -0.3781 -0.2923
   85SAPS   H4R 8054   3.302   5.446   9.804 -1.3375  0.7671 -1.0936
   85SAPS   H4S 8055   3.126   5.413   9.837  0.9137  1.7859  0.9380
   85SAPS   C25 8056   3.227   5.250   9.755  0.1844  0.2798  0.2022
   85SAPS   H5R 8057   3.141   5.186   9.784 -0.8215  2.2105  1.7438
   85SAPS   C26 8058   3.311   5.214   9.653  0.3651  0.1093 -0.4337
   85SAPS   H6R 8059   3.297   5.118   9.602 -2.2807 -0.1605  0.6329
   85SAPS   C27 8060   3.440   5.289   9.624 -0.0467 -0.2763 -0.0498
   85SAPS   H7R 8061   3.524   5.219   9.642  0.2734  0.2098  0.3590
   85SAPS   H7S 8062   3.451   5.369   9.700 -0.5320  0.5246 -0.8000
   85SAPS   C28 8063   3.428   5.350   9.488 -0.0388 -0.6325  0.4913
   85SAPS   H8R 8064   3.400   5.456   9.484  0.6878 -0.4814 -1.6347
   85SAPS   C29 8065   3.464   5.294   9.373  0.2747 -0.1633  0.0869
   85SAPS   H9R 8066   3.457   5.366   9.290 -2.6333  0.1772  0.5350
   85SAPS  C210 8067   3.507   5.153   9.340 -0.3617 -0.1380 -0.9692
   85SAPS  H10R 8068   3.501   5.088   9.431 -0.4280  2.7603  1.2339
   85SAPS  H10S 8069   3.615   5.144   9.314  0.4180  0.3761  1.7553
   85SAPS  C211 8070   3.420   5.086   9.236 -0.1855  0.1457 -0.1578
   85SAPS  H11R 8071   3.338   5.026   9.278 -1.0721  1.2442 -0.2757
   85SAPS  C212 8072   3.456   5.068   9.110  0.1892  0.6288  0.4835
   85SAPS  H12R 8073   3.380   5.015   9.051 -2.0717  1.6462  2.3253
   85SAPS  C213 8074   3.567   5.137   9.033  0.0359 -0.2890 -0.0864
   85SAPS  H13R 8075   3.625   5.212   9.090  0.3222 -0.1881 -0.5059
   85SAPS  H13S 8076   3.517   5.197   8.955  1.3754  3.1798  1.5054
   85SAPS  C214 8077   3.668   5.051   8.956 -0.9876  0.5873 -0.1324
   85SAPS  H14R 8078   3.713   4.968   9.013 -2.0380  1.0622  1.4563
   85SAPS  C215 8079   3.697   5.053   8.828  0.7380 -0.5374 -0.1281
   85SAPS  H15R 8080   3.777   4.997   8.777  0.1434  0.7451 -2.5975
   85SAPS  C216 8081   3.635   5.151   8.729 -0.0635 -0.4938 -0.5381
   85SAPS  H16R 8082   3.717   5.172   8.656  1.0662  0.0465  0.8326
   85SAPS  H16S 8083   3.606   5.253   8.760 -0.2714 -0.6695 -0.1498
   85SAPS  C217 8084   3.533   5.088   8.634 -0.1952  0.0045  0.0826
   85SAPS  H17R 8085   3.460   5.151   8.579  0.2678 -0.5379 -1.1955
   85SAPS  H17S 8086   3.477   5.024   8.705  0.4682  0.4167  0.9980
   85SAPS  C218 8087   3.587   4.990   8.533 -0.6724  0.4803  0.6298
   85SAPS  H18R 8088   3.648   4.916   8.590 -0.1450 -1.2750 -2.0174
   85SAPS  H18S 8089   3.645   5.041   8.453  0.2002 -0.8142  0.3958
   85SAPS  C219 8090   3.474   4.904   8.476  0.5938  0.2899 -0.3757
   85SAPS  H19R 8091   3.424   4.950   8.388  1.1203 -0.8314 -1.2852
   85SAPS  H19S 8092   3.400   4.882   8.556  1.8209  1.3189  1.1084
   85SAPS  C220 8093   3.520   4.761   8.426  0.0210 -0.8144  0.1685
   85SAPS  H20R 8094   3.586   4.772   8.337 -0.1987  1.6315  0.2457
   85SAPS  H20S 8095   3.437   4.699   8.386 -1.3352  0.9529  0.1369
   85SAPS  H20T 8096   3.585   4.703   8.495  3.1084 -0.3654 -2.1378
   85SAPS   C33 8097   3.922   5.072   9.962  0.3323 -0.1406 -0.9851
   85SAPS   H3X 8098   3.885   5.015  10.050 -1.7111  0.3303 -1.4801
   85SAPS   H3Y 8099   4.021   5.028   9.938  0.2720 -1.9773  1.6827
   85SAPS   C34 8100   3.825   5.055   9.849  0.2297 -0.0759 -0.4356
   85SAPS   H4X 8101   3.730   5.104   9.881  0.2173 -0.7093  0.5151
   85SAPS   H4Y 8102   3.804   4.949   9.824  0.3630 -0.3204  0.4705
   85SAPS   C35 8103   3.867   5.131   9.722  0.2435  0.1886 -0.6795
   85SAPS   H5X 8104   3.959   5.190   9.738 -0.5854  1.3366 -0.0474
   85SAPS   H5Y 8105   3.792   5.204   9.684 -0.4483 -0.4425 -0.5535
   85SAPS   C36 8106   3.878   5.045   9.595  0.4517 -0.1029  0.2999
   85SAPS   H6X 8107   3.779   4.996   9.580 -0.0027  0.7972  0.2683
   85SAPS   H6Y 8108   3.959   4.971   9.610  1.1545  0.3698 -0.9807
   85SAPS   C37 8109   3.928   5.130   9.466  0.5373 -0.3572  0.5368
   85SAPS   H7X 8110   3.998   5.208   9.503  0.6688  0.0699 -0.5790
   85SAPS   H7Y 8111   3.835   5.179   9.429 -1.1071 -0.9653  3.5357
   85SAPS   C38 8112   3.997   5.047   9.357  0.3999 -0.1189 -0.2543
   85SAPS   H8X 8113   3.927   4.964   9.333  1.6368 -0.9066 -1.2659
   85SAPS   H8Y 8114   4.094   5.011   9.398  0.7541  1.9941  0.8978
   85SAPS   C39 8115   4.019   5.123   9.224 -0.0050  0.3323 -0.5910
   85SAPS   H9X 8116   4.105   5.193   9.231  2.6617 -2.5195 -2.2578
   85SAPS   H9Y 8117   3.920   5.169   9.205 -0.3840 -1.2607 -2.7810
   85SAPS  C310 8118   4.032   5.033   9.105  0.1505  0.1554 -0.9158
   85SAPS  H10X 8119   3.953   4.956   9.112  0.9006 -0.5222  0.7308
   85SAPS  H10Y 8120   4.128   4.978   9.100  1.0298  1.7200 -3.1854
   85SAPS  C311 8121   4.000   5.105   8.976  0.1193  0.0820  0.1876
   85SAPS  H11X 8122   3.922   5.183   8.987 -0.6345 -0.9308  2.7823
   85SAPS  H11Y 8123   3.965   5.022   8.910 -1.3170  0.3408  0.5925
   85SAPS  C312 8124   4.127   5.156   8.913  0.1471 -1.2633  0.7145
   85SAPS  H12X 8125   4.210   5.087   8.938  0.9168 -0.0325  1.6714
   85SAPS  H12Y 8126   4.146   5.251   8.966 -0.1254  2.0458 -4.4710
   85SAPS  C313 8127   4.106   5.214   8.766  0.4697  0.3558 -0.9137
   85SAPS  H13X 8128   4.033   5.295   8.784  0.5819  0.4627 -0.9406
   85SAPS  H13Y 8129   4.071   5.135   8.695 -0.2401  0.2148 -0.4146
   85SAPS  C314 8130   4.228   5.292   8.710  0.1829 -0.2985 -0.4210
   85SAPS  H14X 8131   4.321   5.239   8.682  2.4783  2.3814  1.5752
   85SAPS  H14Y 8132   4.258   5.350   8.800  1.3136 -1.1168 -0.2535
   85SAPS  C315 8133   4.189   5.379   8.586 -0.3991 -0.2808  0.2926
   85SAPS  H15X 8134   4.126   5.462   8.625  0.6773 -0.5202  2.7810
   85SAPS  H15Y 8135   4.124   5.308   8.531 -1.1497 -0.3274  1.2009
   85SAPS  C316 8136   4.301   5.433   8.497 -0.4233  1.0661  0.2594
   85SAPS  H16X 8137   4.353   5.354   8.440  2.9246  0.5564  3.6070
   85SAPS  H16Y 8138   4.381   5.461   8.569  1.2172 -2.7320  0.1263
   85SAPS  C317 8139   4.256   5.536   8.392  0.4638 -0.8990  0.2656
   85SAPS  H17X 8140   4.196   5.618   8.437  0.5700  0.3179 -1.6915
   85SAPS  H17Y 8141   4.178   5.485   8.332  0.8980 -1.8441  0.4727
   85SAPS  C318 8142   4.376   5.599   8.318  0.1461 -0.0109  1.1894
   85SAPS  H18X 8143   4.438   5.653   8.392 -0.1939 -2.8193  3.7556
   85SAPS  H18Y 8144   4.334   5.662   8.237 -1.4177  0.5076  2.3434
   85SAPS  H18Z 8145   4.432   5.515   8.271 -2.8642 -2.3083  1.3381
   86SAPS     N 8146   6.458   4.257  10.858 -0.7531 -0.2608 -0.4333
   86SAPS   HN1 8147   6.516   4.322  10.800 -1.3490 -0.3804 -1.1718
   86SAPS   HN2 8148   6.444   4.175  10.796  0.1275  0.9857 -2.4022
   86SAPS   HN3 8149   6.371   4.307  10.884 -0.6734  0.7056 -1.8807
   86SAPS   C12 8150   6.524   4.201  10.981 -0.4201  0.0756  0.0608
   86SAPS  H12A 8151   6.627   4.178  10.961 -0.5931 -0.9721  0.2903
   86SAPS   C13 8152   6.511   4.301  11.101  0.3697  0.6411 -0.8706
   86SAPS  O13A 8153   6.477   4.422  11.083  0.0699 -0.1867 -0.0728
   86SAPS  O13B 8154   6.577   4.267  11.203  0.9243 -0.3370  0.7004
   86SAPS   C11 8155   6.449   4.066  11.017  0.5766 -0.3440  0.2639
   86SAPS  H11A 8156   6.339   4.078  11.018  0.7783  1.8814  0.0020
   86SAPS  H11B 8157   6.484   4.030  11.116 -0.5923 -2.0296  0.1148
   86SAPS     P 8158   6.409   3.834  10.920  0.1383 -0.1104 -0.0406
   86SAPS   O13 8159   6.449   3.753  11.040 -0.1229  0.3222 -0.0824
   86SAPS   O14 8160   6.263   3.865  10.898 -0.1985  0.2886  0.1887
   86SAPS   O12 8161   6.491   3.970  10.924 -1.0749  0.1582 -0.1618
   86SAPS   O11 8162   6.474   3.758  10.799  0.7293 -0.0767 -0.2815
   86SAPS    C1 8163   6.547   3.826  10.703  0.7241  0.5040 -0.0253
   86SAPS    HA 8164   6.494   3.914  10.660 -0.7643 -0.0661  0.5707
   86SAPS    HB 8165   6.643   3.859  10.748 -0.1500  1.6598  1.0897
   86SAPS    C2 8166   6.581   3.736  10.576  0.0051  0.9077 -0.2241
   86SAPS    HS 8167   6.643   3.788  10.500  2.0298 -1.6388 -0.4476
   86SAPS   O21 8168   6.462   3.682  10.525  0.3031  0.6453  0.2224
   86SAPS   C21 8169   6.374   3.774  10.474  0.6753 -0.2362  0.1148
   86SAPS   O22 8170   6.402   3.893  10.455 -0.4449  0.9222  0.3420
   86SAPS   C22 8171   6.252   3.710  10.423  0.0963  0.1072 -0.0890
   86SAPS   H2R 8172   6.254   3.608  10.467  1.0834 -0.3306 -1.0991
   86SAPS   H2S 8173   6.159   3.759  10.459 -1.6550 -1.1167 -2.6496
   86SAPS    C3 8174   6.655   3.611  10.630  0.5391  0.0930  0.6197
   86SAPS    HX 8175   6.607   3.574  10.723 -0.1353 -0.5236  0.0414
   86SAPS    HY 8176   6.759   3.643  10.652  0.4068  1.1297 -0.1223
   86SAPS   O31 8177   6.666   3.500  10.530 -0.2572  0.1308  0.3495
   86SAPS   C31 8178   6.572   3.409  10.534  0.0949  0.0441 -0.4300
   86SAPS   O32 8179   6.501   3.383  10.626  0.1172  0.0058 -0.0049
   86SAPS   C32 8180   6.563   3.343  10.397  0.7204  0.0839 -0.0521
   86SAPS   H2X 8181   6.660   3.291  10.380  0.8335  0.0336  0.7027
   86SAPS   H2Y 8182   6.560   3.424  10.322 -0.5389 -1.0498 -1.2746
   86SAPS   C23 8183   6.254   3.667  10.273  1.0221  0.2739 -0.3451
   86SAPS   H3R 8184   6.167   3.598  10.266  0.8967  0.1220  1.9662
   86SAPS   H3S 8185   6.346   3.609  10.252 -0.1339 -1.3580 -1.2065
   86SAPS   C24 8186   6.241   3.785  10.168 -0.1050 -0.0799 -0.1454
   86SAPS   H4R 8187   6.221   3.733  10.072  2.1210  0.5088 -0.9911
   86SAPS   H4S 8188   6.334   3.846  10.159  0.3050 -0.3935  1.5694
   86SAPS   C25 8189   6.126   3.876  10.193 -0.0066  0.0750  0.1625
   86SAPS   H5R 8190   6.141   3.958  10.266 -1.1645 -0.4956  1.0866
   86SAPS   C26 8191   6.014   3.856  10.113  0.1457  0.2361  0.1013
   86SAPS   H6R 8192   5.927   3.917  10.140 -2.6961 -3.1349 -0.7120
   86SAPS   C27 8193   5.979   3.754  10.002  0.4595  0.6122  0.2177
   86SAPS   H7R 8194   5.941   3.666  10.058  1.4131  0.3950  0.5369
   86SAPS   H7S 8195   6.068   3.725   9.943 -0.6167 -0.8078 -0.7849
   86SAPS   C28 8196   5.862   3.802   9.907 -0.2469 -0.2167  0.0185
   86SAPS   H8R 8197   5.771   3.832   9.962 -0.3420  0.9582 -0.7371
   86SAPS   C29 8198   5.866   3.822   9.775  0.5231 -0.0546  0.2970
   86SAPS   H9R 8199   5.775   3.863   9.727  1.4089  0.5430 -0.9556
   86SAPS  C210 8200   5.991   3.805   9.684  0.1374 -0.1627  0.1254
   86SAPS  H10R 8201   5.963   3.723   9.614 -1.2238  2.6348 -2.8712
   86SAPS  H10S 8202   6.090   3.781   9.727  0.8929  1.1892 -0.7880
   86SAPS  C211 8203   6.008   3.929   9.595 -0.4001 -0.1041  0.1697
   86SAPS  H11R 8204   6.058   4.007   9.655 -0.0454 -0.9517  1.0126
   86SAPS  C212 8205   5.951   3.959   9.473 -0.5129 -0.0044  0.3676
   86SAPS  H12R 8206   5.988   4.051   9.425 -0.4581  0.2017  0.8008
   86SAPS  C213 8207   5.866   3.865   9.397 -0.0472 -0.3562 -0.0984
   86SAPS  H13R 8208   5.788   3.931   9.353  0.2570 -0.6547 -1.1022
   86SAPS  H13S 8209   5.818   3.789   9.461 -0.4867  0.0156  0.0200
   86SAPS  C214 8210   5.952   3.799   9.289  0.4906 -0.3939  0.6405
   86SAPS  H14R 8211   5.979   3.694   9.306  2.2883 -0.0987 -0.1661
   86SAPS  C215 8212   5.969   3.835   9.158 -0.5619 -1.0720  0.1014
   86SAPS  H15R 8213   6.036   3.776   9.093  0.3043  0.7180 -0.7013
   86SAPS  C216 8214   5.932   3.963   9.085  0.4557  0.4443 -0.4658
   86SAPS  H16R 8215   5.884   4.028   9.161 -1.8714 -1.4637 -0.1708
   86SAPS  H16S 8216   5.847   3.939   9.017 -0.4410 -0.2219  0.8335
   86SAPS  C217 8217   6.042   4.028   9.003  0.5066 -0.1317  0.1292
   86SAPS  H17R 8218   6.073   3.951   8.930 -0.7158  0.0907 -0.6612
   86SAPS  H17S 8219   6.124   4.056   9.073 -0.8009 -0.5912  1.9347
   86SAPS  C218 8220   5.996   4.152   8.925  0.1508  0.5992  1.5139
   86SAPS  H18R 8221   5.968   4.234   8.995 -0.7951  2.5509 -0.9666
   86SAPS  H18S 8222   5.909   4.122   8.863  2.0149  0.5706 -1.2757
   86SAPS  C219 8223   6.101   4.209   8.826  0.2716 -0.1257 -0.5704
   86SAPS  H19R 8224   6.045   4.290   8.774  0.7875  1.1958  0.8600
   86SAPS  H19S 8225   6.138   4.131   8.755  1.4192 -1.9116  1.8250
   86SAPS  C220 8226   6.213   4.272   8.902  0.5023  0.6091 -0.8564
   86SAPS  H20R 8227   6.294   4.311   8.836  1.2024 -0.7600 -0.8294
   86SAPS  H20S 8228   6.267   4.205   8.971  0.2711  1.3437  0.0543
   86SAPS  H20T 8229   6.174   4.359   8.959  1.6898 -0.2568  1.4033
   86SAPS   C33 8230   6.443   3.238  10.386  0.1961 -0.6544 -0.4866
   86SAPS   H3X 8231   6.361   3.272  10.452  0.5198 -0.9068  0.0574
   86SAPS   H3Y 8232   6.464   3.138  10.431 -2.1422  0.1638  2.8299
   86SAPS   C34 8233   6.373   3.227  10.254 -0.1102  0.4071 -0.6935
   86SAPS   H4X 8234   6.331   3.323  10.216 -1.4044  0.7865  1.5212
   86SAPS   H4Y 8235   6.288   3.156  10.262 -0.1500 -0.0178 -3.7475
   86SAPS   C35 8236   6.467   3.179  10.146  0.4634  0.7912 -0.2502
   86SAPS   H5X 8237   6.487   3.070  10.162 -0.1937  0.8408  1.1060
   86SAPS   H5Y 8238   6.566   3.230  10.148  2.2516 -2.2360  3.4054
   86SAPS   C36 8239   6.399   3.188  10.013 -0.3871  0.4251 -0.2560
   86SAPS   H6X 8240   6.378   3.295   9.992  1.2884  0.7278 -0.5055
   86SAPS   H6Y 8241   6.305   3.129  10.005 -1.0544  1.3985  0.2569
   86SAPS   C37 8242   6.484   3.131   9.902 -0.6703  0.0437 -0.0047
   86SAPS   H7X 8243   6.508   3.023   9.914  0.3801  0.1763 -0.7302
   86SAPS   H7Y 8244   6.577   3.191   9.911 -0.8361  0.3533 -0.2973
   86SAPS   C38 8245   6.431   3.141   9.764 -0.3916  0.0097  0.2694
   86SAPS   H8X 8246   6.332   3.092   9.773 -1.1338  1.3838 -0.1504
   86SAPS   H8Y 8247   6.494   3.071   9.705 -2.0688 -1.1469 -0.2227
   86SAPS   C39 8248   6.410   3.282   9.713  0.8625 -0.0456  0.3315
   86SAPS   H9X 8249   6.513   3.323   9.710  0.6967  0.3482 -1.7245
   86SAPS   H9Y 8250   6.369   3.351   9.790  1.2098  2.8901 -1.8970
   86SAPS  C310 8251   6.335   3.291   9.583 -0.2859 -0.5765 -0.3085
   86SAPS  H10X 8252   6.313   3.399   9.571  0.8360 -0.3776 -0.7439
   86SAPS  H10Y 8253   6.241   3.233   9.593  0.4628 -1.5877  1.3885
   86SAPS  C311 8254   6.403   3.238   9.458  0.1132  0.7097 -0.3387
   86SAPS  H11X 8255   6.428   3.130   9.460  1.1912  0.9499  0.3865
   86SAPS  H11Y 8256   6.504   3.283   9.448 -0.4702  1.8021 -1.5224
   86SAPS  C312 8257   6.327   3.273   9.329 -0.1108 -0.1743  0.1268
   86SAPS  H12X 8258   6.325   3.384   9.322 -1.6136 -0.0240  1.9957
   86SAPS  H12Y 8259   6.230   3.221   9.320 -0.6364  0.9205 -0.8523
   86SAPS  C313 8260   6.398   3.204   9.213  0.0394 -0.3652 -0.2130
   86SAPS  H13X 8261   6.358   3.101   9.209 -2.1478  0.3668  0.8065
   86SAPS  H13Y 8262   6.508   3.199   9.222  0.1435  1.2703 -0.2929
   86SAPS  C314 8263   6.378   3.261   9.073  0.1275 -0.1925 -0.4483
   86SAPS  H14X 8264   6.275   3.249   9.035  0.9822 -1.0937 -2.6422
   86SAPS  H14Y 8265   6.431   3.202   8.994  0.6337  0.0929 -0.3284
   86SAPS  C315 8266   6.427   3.404   9.044 -0.3714 -0.7069  0.2235
   86SAPS  H15X 8267   6.537   3.416   9.052 -0.2574  0.7187 -2.5694
   86SAPS  H15Y 8268   6.383   3.482   9.110  0.1263 -0.9953  0.9059
   86SAPS  C316 8269   6.399   3.433   8.895  0.3322 -1.0116 -0.2460
   86SAPS  H16X 8270   6.288   3.433   8.881  0.2296  1.9195 -0.0677
   86SAPS  H16Y 8271   6.438   3.355   8.826 -1.4091 -1.0335 -1.2899
   86SAPS  C317 8272   6.469   3.560   8.846  0.1288  0.1070  0.4638
   86SAPS  H17X 8273   6.471   3.550   8.736 -1.4286  0.7681  0.3440
   86SAPS  H17Y 8274   6.577   3.560   8.871 -0.0752  0.4646  1.4162
   86SAPS  C318 8275   6.401   3.687   8.875  0.0685 -0.2532 -0.0668
   86SAPS  H18X 8276   6.291   3.682   8.886 -0.1431 -4.3187 -2.3945
   86SAPS  H18Y 8277   6.429   3.759   8.795 -1.1931  0.9603  0.5545
   86SAPS  H18Z 8278   6.430   3.725   8.976 -0.0656 -1.4143  0.4172
   87SAPS     N 8279   6.120   4.497  11.402 -0.5337 -0.4858  0.7485
   87SAPS   HN1 8280   6.127   4.599  11.424 -1.9080 -0.0398 -0.7108
   87SAPS   HN2 8281   6.132   4.440  11.488 -0.2940 -1.7262 -0.0825
   87SAPS   HN3 8282   6.196   4.478  11.334 -0.6210  2.4461 -0.3104
   87SAPS   C12 8283   5.983   4.461  11.340  0.5517  0.7610 -0.2958
   87SAPS  H12A 8284   5.990   4.354  11.351  0.3857  0.6840 -0.8927
   87SAPS   C13 8285   5.861   4.509  11.416 -0.0524  0.2376  0.4629
   87SAPS  O13A 8286   5.876   4.556  11.530 -0.3198 -0.2248 -0.2271
   87SAPS  O13B 8287   5.749   4.485  11.369  0.2361  0.0560  0.0432
   87SAPS   C11 8288   5.972   4.507  11.193 -0.3648  0.3463 -0.3206
   87SAPS  H11A 8289   5.972   4.618  11.192  3.6483  0.5780  2.1246
   87SAPS  H11B 8290   5.879   4.473  11.142 -2.3759  1.0830  2.6437
   87SAPS     P 8291   6.107   4.348  11.014  0.5938  0.8906 -0.4167
   87SAPS   O13 8292   6.236   4.367  10.944 -0.0913  0.2614  1.0116
   87SAPS   O14 8293   6.090   4.218  11.081  0.4262 -0.3276 -0.0503
   87SAPS   O12 8294   6.088   4.465  11.119 -0.4032 -0.2600 -0.2993
   87SAPS   O11 8295   5.990   4.365  10.910 -0.5725  0.2065 -0.0433
   87SAPS    C1 8296   5.956   4.493  10.858  0.2610 -0.7844 -0.4028
   87SAPS    HA 8297   5.895   4.553  10.929  0.9422  1.5389 -1.6456
   87SAPS    HB 8298   6.042   4.560  10.833 -0.1494  1.1571  2.8098
   87SAPS    C2 8299   5.875   4.485  10.720 -0.5301 -0.1663  0.3005
   87SAPS    HS 8300   5.781   4.430  10.744  0.5635 -2.0803  0.3725
   87SAPS   O21 8301   5.961   4.419  10.625 -0.9550 -0.1533  0.1963
   87SAPS   C21 8302   5.903   4.347  10.535  0.7277 -0.4482 -0.6142
   87SAPS   O22 8303   5.778   4.334  10.528 -0.2197 -0.3910  0.1338
   87SAPS   C22 8304   6.004   4.251  10.471 -0.9772  0.5141 -0.4060
   87SAPS   H2R 8305   6.053   4.190  10.549 -3.2818 -0.1899  0.5694
   87SAPS   H2S 8306   5.950   4.182  10.403  2.9690 -3.5298  0.1483
   87SAPS    C3 8307   5.854   4.626  10.653 -0.6635  0.0821  0.1731
   87SAPS    HX 8308   5.951   4.664  10.616  0.7625 -1.8344  1.7481
   87SAPS    HY 8309   5.829   4.693  10.739 -1.5526  1.2811 -0.9714
   87SAPS   O31 8310   5.756   4.624  10.550 -0.1028  0.1048  0.1154
   87SAPS   C31 8311   5.631   4.604  10.593  0.2631  0.0464 -0.2950
   87SAPS   O32 8312   5.603   4.585  10.711 -0.3022 -0.1352  0.3911
   87SAPS   C32 8313   5.519   4.633  10.488 -0.0808 -0.0630  0.7853
   87SAPS   H2X 8314   5.533   4.737  10.451 -0.1567 -0.3605 -0.1050
   87SAPS   H2Y 8315   5.427   4.617  10.547  0.6213 -2.6234  1.3156
   87SAPS   C23 8316   6.111   4.324  10.389  0.3092 -0.3846 -0.7575
   87SAPS   H3R 8317   6.208   4.270  10.392  0.3813 -0.2251  0.0367
   87SAPS   H3S 8318   6.137   4.412  10.451  0.3620 -1.1477  0.3246
   87SAPS   C24 8319   6.071   4.369  10.248 -0.0274 -0.1395  0.4225
   87SAPS   H4R 8320   6.147   4.445  10.219  0.9613 -1.4331 -0.5011
   87SAPS   H4S 8321   5.971   4.414  10.264 -1.0347 -2.1305  0.1050
   87SAPS   C25 8322   6.049   4.249  10.153 -0.9999 -0.3203 -0.5574
   87SAPS   H5R 8323   5.985   4.174  10.202 -0.5707  0.9871  2.1724
   87SAPS   C26 8324   6.095   4.228  10.030 -0.8588 -0.6466 -0.4446
   87SAPS   H6R 8325   6.071   4.129   9.988  0.0766 -1.1089  0.0835
   87SAPS   C27 8326   6.171   4.322   9.941  0.3101  0.1324  0.3655
   87SAPS   H7R 8327   6.205   4.416   9.989 -1.0372 -0.1441  1.9372
   87SAPS   H7S 8328   6.096   4.352   9.864  0.3253  1.5693  0.8909
   87SAPS   C28 8329   6.289   4.273   9.866 -0.6968 -0.0044 -0.0690
   87SAPS   H8R 8330   6.373   4.231   9.924 -0.7436 -0.1560 -0.1106
   87SAPS   C29 8331   6.306   4.267   9.735 -0.2318 -0.0568 -0.4917
   87SAPS   H9R 8332   6.401   4.231   9.692  0.8409 -0.6429  2.1663
   87SAPS  C210 8333   6.215   4.302   9.620 -0.0365 -0.0073  0.1251
   87SAPS  H10R 8334   6.205   4.413   9.619  0.9358  0.0914  0.4956
   87SAPS  H10S 8335   6.116   4.261   9.648  0.4123 -0.3127  1.3496
   87SAPS  C211 8336   6.266   4.248   9.487  0.1865  0.3473  0.6430
   87SAPS  H11R 8337   6.351   4.179   9.498 -0.7824 -0.6374  2.2570
   87SAPS  C212 8338   6.212   4.277   9.360  0.3167 -0.2954 -0.7010
   87SAPS  H12R 8339   6.259   4.237   9.269  1.1774  2.2045 -1.4590
   87SAPS  C213 8340   6.081   4.354   9.329  0.9606 -0.5034 -0.7791
   87SAPS  H13R 8341   6.056   4.406   9.424 -1.0670  1.4106 -2.2515
   87SAPS  H13S 8342   5.993   4.287   9.316 -2.2790  3.5952 -1.9269
   87SAPS  C214 8343   6.080   4.458   9.216  0.4615  1.0549 -0.4419
   87SAPS  H14R 8344   6.180   4.480   9.175  0.5210  0.3744 -0.6756
   87SAPS  C215 8345   5.981   4.530   9.172  0.3575 -1.6750  0.9314
   87SAPS  H15R 8346   5.995   4.588   9.080  0.3972 -0.5508  1.6175
   87SAPS  C216 8347   5.834   4.512   9.210  0.5604 -0.2974  0.5957
   87SAPS  H16R 8348   5.820   4.541   9.317  1.6406  1.7489  0.2431
   87SAPS  H16S 8349   5.799   4.407   9.201 -0.2649  0.1440 -2.4305
   87SAPS  C217 8350   5.725   4.587   9.122 -0.3624 -0.2954  0.3601
   87SAPS  H17R 8351   5.733   4.697   9.111  1.8037 -0.4930 -0.4956
   87SAPS  H17S 8352   5.624   4.570   9.164 -1.0880  1.5900 -0.5132
   87SAPS  C218 8353   5.716   4.535   8.973 -0.4406  0.2178  0.3814
   87SAPS  H18R 8354   5.728   4.425   8.967  1.8344  0.2836  2.2265
   87SAPS  H18S 8355   5.809   4.569   8.923 -1.5041  0.3927 -1.5863
   87SAPS  C219 8356   5.605   4.592   8.897  0.2536  0.6548  0.0414
   87SAPS  H19R 8357   5.613   4.701   8.876  1.6677  1.0065  2.1123
   87SAPS  H19S 8358   5.514   4.580   8.960 -1.0569 -0.6210 -1.9512
   87SAPS  C220 8359   5.571   4.523   8.761 -0.0870  0.2900  0.0789
   87SAPS  H20R 8360   5.471   4.564   8.734  0.2740  0.4812 -1.0030
   87SAPS  H20S 8361   5.567   4.414   8.781 -0.3217 -0.1218 -2.0117
   87SAPS  H20T 8362   5.653   4.541   8.688 -1.3140  1.5538 -1.0523
   87SAPS   C33 8363   5.528   4.538  10.363  0.0920 -0.0491 -0.2945
   87SAPS   H3X 8364   5.422   4.538  10.330  0.3801  1.1445 -1.2860
   87SAPS   H3Y 8365   5.549   4.432  10.387  0.0986 -0.8041 -3.2401
   87SAPS   C34 8366   5.640   4.576  10.266 -0.1584 -0.2747  0.2848
   87SAPS   H4X 8367   5.738   4.600  10.313  0.6010 -4.1887  1.0364
   87SAPS   H4Y 8368   5.604   4.664  10.209  0.6648 -1.6560 -2.5752
   87SAPS   C35 8369   5.661   4.471  10.159 -0.9315 -0.7387  0.3830
   87SAPS   H5X 8370   5.561   4.435  10.126 -0.0062 -1.1393 -2.2959
   87SAPS   H5Y 8371   5.708   4.384  10.209 -2.3473 -0.7623  1.7640
   87SAPS   C36 8372   5.743   4.514  10.036 -0.0818 -0.6379 -0.2226
   87SAPS   H6X 8373   5.842   4.563  10.048 -0.5578  0.5279 -0.9380
   87SAPS   H6Y 8374   5.685   4.598   9.992 -1.8241 -1.8876 -0.4208
   87SAPS   C37 8375   5.763   4.403   9.928 -0.0713  0.3567 -0.1271
   87SAPS   H7X 8376   5.713   4.316   9.976  1.6047 -0.2249  0.6310
   87SAPS   H7Y 8377   5.869   4.377   9.911 -0.1188 -0.4202  0.7219
   87SAPS   C38 8378   5.685   4.440   9.799 -0.3721 -0.0213 -0.4453
   87SAPS   H8X 8379   5.711   4.542   9.763  0.5541  0.1634  0.6995
   87SAPS   H8Y 8380   5.581   4.429   9.835 -0.9178  2.0811 -1.2248
   87SAPS   C39 8381   5.726   4.345   9.683 -0.5745 -0.3659  0.0879
   87SAPS   H9X 8382   5.732   4.237   9.710  0.6012 -0.1384  0.7673
   87SAPS   H9Y 8383   5.830   4.374   9.658 -0.2450 -0.9427  0.7499
   87SAPS  C310 8384   5.632   4.361   9.561  0.6205 -0.3205  0.1145
   87SAPS  H10X 8385   5.642   4.466   9.528  2.4902 -0.3858  0.3717
   87SAPS  H10Y 8386   5.524   4.359   9.588  0.7674 -2.5226  0.7342
   87SAPS  C311 8387   5.671   4.259   9.459 -0.1328  0.3383 -0.1510
   87SAPS  H11X 8388   5.658   4.165   9.516  1.6762  1.9821  3.2635
   87SAPS  H11Y 8389   5.780   4.266   9.439 -0.2694 -0.6240 -1.3291
   87SAPS  C312 8390   5.575   4.256   9.335 -0.0672  0.1528 -0.2598
   87SAPS  H12X 8391   5.565   4.360   9.297  2.2906 -0.4865 -2.9348
   87SAPS  H12Y 8392   5.478   4.223   9.377  0.1782 -0.5101 -0.2142
   87SAPS  C313 8393   5.634   4.165   9.231 -0.1562 -0.8365  0.6626
   87SAPS  H13X 8394   5.640   4.060   9.266  0.2048 -1.2962 -0.7100
   87SAPS  H13Y 8395   5.733   4.197   9.192 -0.7880 -2.0528 -2.2017
   87SAPS  C314 8396   5.547   4.154   9.108 -1.0766 -0.5405 -0.3734
   87SAPS  H14X 8397   5.541   4.250   9.052  0.4443 -0.9459 -1.2869
   87SAPS  H14Y 8398   5.443   4.139   9.144 -0.8600 -0.1461  0.4413
   87SAPS  C315 8399   5.602   4.060   9.002 -0.1905 -0.0494 -0.4940
   87SAPS  H15X 8400   5.612   3.956   9.040 -0.6428  1.2062  3.5277
   87SAPS  H15Y 8401   5.705   4.088   8.970 -0.5387  1.5864 -0.2673
   87SAPS  C316 8402   5.522   4.067   8.873 -0.3100 -0.4192  0.2487
   87SAPS  H16X 8403   5.514   4.172   8.835  1.1854 -0.3761 -0.0006
   87SAPS  H16Y 8404   5.417   4.035   8.887 -0.8295  0.9554 -0.2644
   87SAPS  C317 8405   5.576   3.979   8.758 -0.2432 -0.8394 -0.6074
   87SAPS  H17X 8406   5.581   3.875   8.797  0.9919 -1.7610 -3.0136
   87SAPS  H17Y 8407   5.677   4.016   8.728 -0.7003 -1.4688 -3.2071
   87SAPS  C318 8408   5.489   3.995   8.632  0.4169  0.5910 -0.4881
   87SAPS  H18X 8409   5.489   4.102   8.600  4.1074  0.0807 -2.7822
   87SAPS  H18Y 8410   5.386   3.955   8.643  0.4157  1.0779  1.8139
   87SAPS  H18Z 8411   5.547   3.940   8.555  1.8680 -0.4326  1.2738
   88SAPS     N 8412   3.333   4.221  11.124 -0.8090 -0.8336  0.9222
   88SAPS   HN1 8413   3.268   4.269  11.058 -0.4214 -1.3315  0.1707
   88SAPS   HN2 8414   3.348   4.276  11.210 -0.0968  2.0584 -0.9288
   88SAPS   HN3 8415   3.425   4.210  11.078 -1.0740  1.9012 -0.4289
   88SAPS   C12 8416   3.282   4.073  11.151  0.5010 -0.3445 -0.8910
   88SAPS  H12A 8417   3.354   4.018  11.211  1.3014  0.5370 -1.0127
   88SAPS   C13 8418   3.158   4.062  11.242  0.1832 -0.3944 -0.0645
   88SAPS  O13A 8419   3.119   4.174  11.289  0.1162 -0.2304 -0.1224
   88SAPS  O13B 8420   3.108   3.956  11.278 -0.3327 -0.2084  0.1869
   88SAPS   C11 8421   3.248   4.010  11.008  0.2976  0.1781 -0.5091
   88SAPS  H11A 8422   3.165   4.073  10.969 -1.8158 -1.6234  0.8054
   88SAPS  H11B 8423   3.208   3.909  11.031 -1.5322  0.8267 -0.6728
   88SAPS     P 8424   3.483   3.917  10.943  0.2851 -0.2887 -0.2373
   88SAPS   O13 8425   3.577   3.977  11.037 -0.3878  0.1225 -0.5911
   88SAPS   O14 8426   3.429   3.785  10.978 -0.2286  0.5819 -0.0862
   88SAPS   O12 8427   3.360   4.010  10.925 -0.1135 -0.0089 -0.0998
   88SAPS   O11 8428   3.542   3.911  10.791 -0.2499  0.6152 -0.1821
   88SAPS    C1 8429   3.467   3.973  10.687 -0.0694 -0.8067 -0.1213
   88SAPS    HA 8430   3.359   3.949  10.685  0.0628 -1.4072 -1.9653
   88SAPS    HB 8431   3.481   4.083  10.692  0.7389 -0.9544  2.6954
   88SAPS    C2 8432   3.495   3.918  10.551  0.0948 -0.2948  0.6444
   88SAPS    HS 8433   3.487   3.809  10.571  0.3557 -0.9065 -2.2323
   88SAPS   O21 8434   3.625   3.962  10.512  0.2086 -0.2289 -0.0006
   88SAPS   C21 8435   3.684   3.888  10.426 -0.4134  0.6238  0.4574
   88SAPS   O22 8436   3.642   3.775  10.398  0.1957  0.6289  0.4956
   88SAPS   C22 8437   3.803   3.961  10.366 -0.5881  0.2712  1.1383
   88SAPS   H2R 8438   3.824   4.057  10.419 -1.3631  0.1891  1.6082
   88SAPS   H2S 8439   3.892   3.900  10.391  0.7088  1.6775  0.1647
   88SAPS    C3 8440   3.380   3.949  10.446  0.3505 -0.6554  0.0329
   88SAPS    HX 8441   3.361   4.058  10.445 -0.2694 -0.7607 -0.6329
   88SAPS    HY 8442   3.285   3.897  10.469  0.1602 -0.9542 -1.3483
   88SAPS   O31 8443   3.415   3.910  10.305 -0.3158  0.0588 -0.3832
   88SAPS   C31 8444   3.383   3.790  10.255 -0.2731  0.2323  0.2333
   88SAPS   O32 8445   3.305   3.717  10.309  0.3312  0.0532  0.2466
   88SAPS   C32 8446   3.448   3.763  10.126  0.5186 -0.3447  0.4573
   88SAPS   H2X 8447   3.392   3.674  10.090  0.4945 -0.6970  1.3364
   88SAPS   H2Y 8448   3.550   3.720  10.133  0.1878 -1.5396 -1.4403
   88SAPS   C23 8449   3.791   3.985  10.214  0.6401  0.1111  0.2424
   88SAPS   H3R 8450   3.697   4.043  10.201  1.0145  0.7773  0.4943
   88SAPS   H3S 8451   3.786   3.884  10.168  0.4000 -0.9069  2.4024
   88SAPS   C24 8452   3.907   4.062  10.163  0.3170  0.6296 -0.5001
   88SAPS   H4R 8453   4.007   4.017  10.182  1.7847  3.1608 -1.7403
   88SAPS   H4S 8454   3.902   4.161  10.213 -2.5402  1.1871 -1.6906
   88SAPS   C25 8455   3.886   4.095  10.020 -0.8774 -0.3500  0.6077
   88SAPS   H5R 8456   3.783   4.130  10.005 -1.3624 -1.5269  1.0705
   88SAPS   C26 8457   3.963   4.057   9.911  0.3321 -0.5592 -0.5148
   88SAPS   H6R 8458   3.921   4.079   9.812 -1.7652  1.5887  0.7424
   88SAPS   C27 8459   4.097   3.989   9.908  0.6062  0.2885  0.2581
   88SAPS   H7R 8460   4.140   3.953  10.004  2.9436  1.6027 -0.2287
   88SAPS   H7S 8461   4.177   4.057   9.872  0.9797 -0.2838 -0.0169
   88SAPS   C28 8462   4.099   3.861   9.829  0.6468  0.4520 -0.0006
   88SAPS   H8R 8463   4.051   3.777   9.882  1.4839  0.3553  0.6209
   88SAPS   C29 8464   4.145   3.828   9.707  0.4672  0.7163 -0.5491
   88SAPS   H9R 8465   4.129   3.727   9.666  2.5324 -0.3095  0.9721
   88SAPS  C210 8466   4.193   3.921   9.605  0.0602  0.0600 -0.3318
   88SAPS  H10R 8467   4.248   3.871   9.522  0.3033 -0.3347  0.0620
   88SAPS  H10S 8468   4.270   3.983   9.656  2.3479 -3.0183  0.2724
   88SAPS  C211 8469   4.081   4.005   9.550  1.0054 -0.0958 -0.5322
   88SAPS  H11R 8470   4.024   4.057   9.629 -0.0932 -0.3152 -1.1548
   88SAPS  C212 8471   4.050   4.027   9.419 -0.2647 -0.9720 -0.2004
   88SAPS  H12R 8472   3.957   4.078   9.389 -0.6841 -1.4314  0.3076
   88SAPS  C213 8473   4.142   3.986   9.306  0.0941 -0.5414  0.7759
   88SAPS  H13R 8474   4.245   4.010   9.339 -0.6339  2.8975  0.8501
   88SAPS  H13S 8475   4.119   4.059   9.226 -0.1657  0.5683  1.8420
   88SAPS  C214 8476   4.136   3.839   9.258 -0.7268 -0.2535  0.5222
   88SAPS  H14R 8477   4.107   3.762   9.332  0.8513 -0.4978  0.9242
   88SAPS  C215 8478   4.186   3.794   9.145 -0.2857  0.3751  0.1299
   88SAPS  H15R 8479   4.172   3.688   9.121 -1.5413  0.1885  1.5400
   88SAPS  C216 8480   4.264   3.867   9.034 -0.6094  0.2432 -0.5824
   88SAPS  H16R 8481   4.291   3.969   9.069 -0.3185  0.0706 -0.3038
   88SAPS  H16S 8482   4.209   3.861   8.937 -0.1618 -0.2638 -0.8105
   88SAPS  C217 8483   4.398   3.793   9.017  0.0888  0.0650  0.0434
   88SAPS  H17R 8484   4.371   3.692   8.980 -0.1417  0.2740 -0.3620
   88SAPS  H17S 8485   4.461   3.776   9.107 -0.6288 -0.1546  0.5185
   88SAPS  C218 8486   4.491   3.867   8.919 -0.1840 -0.3126  0.2102
   88SAPS  H18R 8487   4.518   3.967   8.958  1.3308  0.2730 -2.1501
   88SAPS  H18S 8488   4.443   3.896   8.823  0.2893 -0.9271 -0.2199
   88SAPS  C219 8489   4.618   3.793   8.881 -0.0195  0.8923 -0.2885
   88SAPS  H19R 8490   4.586   3.694   8.843  0.5806  0.6108 -0.0661
   88SAPS  H19S 8491   4.674   3.768   8.973 -1.9266  0.8586  0.9223
   88SAPS  C220 8492   4.710   3.860   8.780  0.0642 -0.3097 -0.1240
   88SAPS  H20R 8493   4.807   3.806   8.772 -0.1689 -0.9747  1.3577
   88SAPS  H20S 8494   4.727   3.965   8.813  2.1169 -1.4220  2.7332
   88SAPS  H20T 8495   4.660   3.872   8.681  0.7615 -0.2967 -0.4856
   88SAPS   C33 8496   3.453   3.889  10.034 -0.6601  0.0820 -0.1286
   88SAPS   H3X 8497   3.535   3.953  10.075  1.8175 -3.4331  0.8287
   88SAPS   H3Y 8498   3.357   3.945  10.035  0.0040  1.3024 -1.0945
   88SAPS   C34 8499   3.493   3.854   9.888 -0.2809  0.3328 -0.0639
   88SAPS   H4X 8500   3.593   3.806   9.895  0.3686  1.8275  2.0599
   88SAPS   H4Y 8501   3.505   3.946   9.827 -3.1484  0.3470 -0.7093
   88SAPS   C35 8502   3.398   3.753   9.822  0.5367  0.1225  0.7926
   88SAPS   H5X 8503   3.291   3.777   9.838 -0.0312 -0.0468 -2.2148
   88SAPS   H5Y 8504   3.413   3.656   9.876 -1.7980 -0.3051  0.7685
   88SAPS   C36 8505   3.399   3.744   9.671  0.5052  0.2264  0.3901
   88SAPS   H6X 8506   3.347   3.832   9.628 -1.7628 -1.5370 -0.6203
   88SAPS   H6Y 8507   3.328   3.665   9.641  0.6828  0.4292 -0.6023
   88SAPS   C37 8508   3.540   3.732   9.615 -0.2732  0.0976 -0.2061
   88SAPS   H7X 8509   3.610   3.812   9.645  0.4555 -0.1268 -1.2356
   88SAPS   H7Y 8510   3.531   3.744   9.505 -2.3597 -0.9830 -0.2159
   88SAPS   C38 8511   3.621   3.605   9.644  0.8306 -0.2511  0.6889
   88SAPS   H8X 8512   3.640   3.618   9.752  0.1006 -0.2756  0.8251
   88SAPS   H8Y 8513   3.717   3.620   9.589  0.8487  0.3591  0.8820
   88SAPS   C39 8514   3.554   3.473   9.612 -0.0116  0.1003  0.3354
   88SAPS   H9X 8515   3.462   3.464   9.674  0.1055 -0.5380  0.4267
   88SAPS   H9Y 8516   3.608   3.383   9.649 -1.6634 -0.8238  0.6326
   88SAPS  C310 8517   3.534   3.435   9.467  0.6617  0.1111  0.2163
   88SAPS  H10X 8518   3.633   3.442   9.419  0.5860 -3.6342 -0.7953
   88SAPS  H10Y 8519   3.459   3.507   9.426  1.3732  0.2813 -0.8146
   88SAPS  C311 8520   3.490   3.286   9.442  0.6803  0.1907 -0.1742
   88SAPS  H11X 8521   3.396   3.242   9.481  1.0966 -1.2219 -0.6879
   88SAPS  H11Y 8522   3.569   3.218   9.481 -0.3042 -0.2343  1.1380
   88SAPS  C312 8523   3.486   3.253   9.295  0.4801  0.3509 -0.5424
   88SAPS  H12X 8524   3.581   3.292   9.254  0.4762 -0.0356 -0.9319
   88SAPS  H12Y 8525   3.406   3.320   9.255  1.7000  3.1571  1.4451
   88SAPS  C313 8526   3.454   3.108   9.271 -0.2561 -0.2466 -1.5543
   88SAPS  H13X 8527   3.364   3.098   9.336 -0.0466  1.0823 -1.0297
   88SAPS  H13Y 8528   3.534   3.044   9.316 -0.4962 -0.3632 -1.2917
   88SAPS  C314 8529   3.423   3.075   9.128  0.7281 -0.2271  0.1721
   88SAPS  H14X 8530   3.327   3.119   9.093  0.3906 -0.1340  1.1715
   88SAPS  H14Y 8531   3.429   2.966   9.107  1.2830 -0.0721 -0.4744
   88SAPS  C315 8532   3.520   3.150   9.034  0.9170  0.1097  0.6583
   88SAPS  H15X 8533   3.622   3.138   9.077  1.0417 -1.6489 -0.0575
   88SAPS  H15Y 8534   3.487   3.256   9.040 -2.7690 -0.6631 -2.3875
   88SAPS  C316 8535   3.529   3.096   8.887 -0.7105 -0.4052  0.4824
   88SAPS  H16X 8536   3.424   3.100   8.853 -0.9212  0.5759  1.1922
   88SAPS  H16Y 8537   3.570   2.993   8.900 -1.2210 -0.8742 -1.3153
   88SAPS  C317 8538   3.613   3.188   8.797 -0.5751  1.0407 -0.1746
   88SAPS  H17X 8539   3.721   3.192   8.826 -1.2982 -0.6846  3.3473
   88SAPS  H17Y 8540   3.573   3.291   8.814 -1.4900  0.3700  2.1013
   88SAPS  C318 8541   3.598   3.151   8.651 -0.4702  0.6165 -0.0590
   88SAPS  H18X 8542   3.675   3.200   8.588 -0.6624  1.0393  0.0354
   88SAPS  H18Y 8543   3.496   3.177   8.617 -1.1487 -3.0788 -1.3267
   88SAPS  H18Z 8544   3.619   3.043   8.632 -0.7830  0.1164  2.1420
   89SAPS     N 8545   1.174   5.728  10.905  0.6439  0.5799  1.1426
   89SAPS   HN1 8546   1.264   5.679  10.922  1.8481  2.5241  0.6460
   89SAPS   HN2 8547   1.102   5.653  10.912  1.4962 -0.5398 -1.0994
   89SAPS   HN3 8548   1.177   5.759  10.806  2.5931 -1.4926  0.4722
   89SAPS   C12 8549   1.149   5.835  11.009 -0.6708 -0.0022 -0.6894
   89SAPS  H12A 8550   1.051   5.876  10.987 -1.0939 -0.8222 -0.4028
   89SAPS   C13 8551   1.132   5.776  11.156 -1.1902  0.1474 -0.5074
   89SAPS  O13A 8552   1.170   5.663  11.183  0.2470  0.4116  0.1156
   89SAPS  O13B 8553   1.118   5.862  11.247 -0.3129 -0.1557  0.2949
   89SAPS   C11 8554   1.261   5.944  11.003 -0.1410  0.4126 -0.0754
   89SAPS  H11A 8555   1.337   5.897  11.069 -0.5890 -1.4056 -0.8040
   89SAPS  H11B 8556   1.229   6.040  11.051 -0.3028 -0.7923  2.3825
   89SAPS     P 8557   1.308   6.096  10.799  0.1185 -0.3450 -0.1253
   89SAPS   O13 8558   1.194   6.090  10.698 -0.6173  0.1361 -0.1420
   89SAPS   O14 8559   1.296   6.205  10.900 -0.2424 -0.0254 -0.0959
   89SAPS   O12 8560   1.312   5.962  10.874  0.8383 -0.2725 -0.5523
   89SAPS   O11 8561   1.448   6.100  10.725 -0.0604 -0.1235  0.6217
   89SAPS    C1 8562   1.542   5.986  10.747 -0.3351  0.3518 -0.5312
   89SAPS    HA 8563   1.580   5.974  10.851  0.8144 -1.4761 -1.1278
   89SAPS    HB 8564   1.504   5.886  10.720 -2.0430  1.4438 -2.4795
   89SAPS    C2 8565   1.671   5.991  10.652  0.1443 -0.0692  0.3047
   89SAPS    HS 8566   1.719   6.089  10.672  0.9438 -0.6001  1.1024
   89SAPS   O21 8567   1.624   5.985  10.516  0.1982  0.2631  0.2582
   89SAPS   C21 8568   1.665   6.089  10.434  0.2851 -0.0099 -0.0108
   89SAPS   O22 8569   1.738   6.180  10.465  0.1747 -0.3221  0.2653
   89SAPS   C22 8570   1.596   6.068  10.297  0.2773  0.5453  0.2405
   89SAPS   H2R 8571   1.649   5.982  10.250  0.5381 -1.4445  3.8125
   89SAPS   H2S 8572   1.490   6.038  10.310 -0.2087  1.6721 -0.9173
   89SAPS    C3 8573   1.776   5.888  10.677 -0.9540 -0.4366 -0.0768
   89SAPS    HX 8574   1.716   5.795  10.663 -2.4597  0.3420  0.8621
   89SAPS    HY 8575   1.805   5.883  10.784 -0.4166  0.4565 -0.1737
   89SAPS   O31 8576   1.882   5.892  10.582 -0.2269  0.2515 -0.1393
   89SAPS   C31 8577   1.986   5.970  10.607  0.7145 -0.1423  0.8150
   89SAPS   O32 8578   1.988   6.050  10.702  0.6047  0.6232  0.4512
   89SAPS   C32 8579   2.078   5.956  10.487  0.2784  0.6692  0.0581
   89SAPS   H2X 8580   2.036   5.891  10.408 -1.0149  1.9613 -0.3738
   89SAPS   H2Y 8581   2.177   5.922  10.524  1.5015  4.4811  0.7403
   89SAPS   C23 8582   1.589   6.194  10.215 -0.6967 -0.4050  0.1482
   89SAPS   H3R 8583   1.561   6.281  10.279  0.1256 -0.2162  0.2538
   89SAPS   H3S 8584   1.503   6.177  10.147 -1.1429  0.7162  0.4015
   89SAPS   C24 8585   1.719   6.231  10.135 -0.4714  0.4333  1.2453
   89SAPS   H4R 8586   1.723   6.151  10.058  1.5519  2.3802 -0.8296
   89SAPS   H4S 8587   1.805   6.210  10.202  0.8101 -1.7412 -0.9133
   89SAPS   C25 8588   1.718   6.367  10.085  0.5489 -0.1110 -0.4436
   89SAPS   H5R 8589   1.707   6.445  10.162 -1.2042 -2.2562  1.6099
   89SAPS   C26 8590   1.704   6.402   9.949 -0.5899  0.7040 -0.0153
   89SAPS   H6R 8591   1.725   6.507   9.922 -2.6781  0.4392 -3.2679
   89SAPS   C27 8592   1.705   6.310   9.831  0.7723 -0.2720  0.0221
   89SAPS   H7R 8593   1.625   6.351   9.765 -0.6617 -0.9665  1.2533
   89SAPS   H7S 8594   1.671   6.210   9.864 -0.0203  0.1575  0.5418
   89SAPS   C28 8595   1.843   6.296   9.767 -0.2751  0.0263  0.6937
   89SAPS   H8R 8596   1.923   6.299   9.842  0.4208 -0.4300 -0.0171
   89SAPS   C29 8597   1.861   6.282   9.635 -0.5970  0.0470 -1.0224
   89SAPS   H9R 8598   1.967   6.293   9.610  0.2476  1.8275  2.7225
   89SAPS  C210 8599   1.766   6.256   9.523 -0.3294 -0.5694  0.3269
   89SAPS  H10R 8600   1.768   6.343   9.453  1.2046 -0.7203  0.1436
   89SAPS  H10S 8601   1.659   6.253   9.553 -0.0550 -0.4179  1.3381
   89SAPS  C211 8602   1.796   6.131   9.441  0.2557 -0.3750  0.1683
   89SAPS  H11R 8603   1.823   6.051   9.510 -0.3326  0.8671  1.9208
   89SAPS  C212 8604   1.807   6.118   9.308  0.1077 -0.1354 -0.5413
   89SAPS  H12R 8605   1.843   6.022   9.269 -0.7516 -0.5942 -0.2278
   89SAPS  C213 8606   1.779   6.235   9.217 -0.0378 -0.2862 -0.6227
   89SAPS  H13R 8607   1.841   6.221   9.126 -1.3981  0.0904 -1.6458
   89SAPS  H13S 8608   1.826   6.326   9.261  2.0894 -2.0148  0.8736
   89SAPS  C214 8609   1.630   6.255   9.184  0.5198  0.5453  0.8044
   89SAPS  H14R 8610   1.552   6.215   9.251  0.6359 -3.7583 -1.2628
   89SAPS  C215 8611   1.585   6.318   9.073 -0.4558 -0.1964  0.9610
   89SAPS  H15R 8612   1.483   6.307   9.034  0.9716 -1.7289 -2.8961
   89SAPS  C216 8613   1.677   6.385   8.969  0.0208  0.3315 -0.1903
   89SAPS  H16R 8614   1.780   6.409   9.003 -0.4964  1.7869  0.4576
   89SAPS  H16S 8615   1.633   6.484   8.943 -2.5819 -0.7723 -0.3274
   89SAPS  C217 8616   1.679   6.299   8.840 -0.2724  0.3419  0.5368
   89SAPS  H17R 8617   1.582   6.277   8.791 -0.2167  0.6148  0.3062
   89SAPS  H17S 8618   1.725   6.200   8.862 -0.5563 -0.1102 -0.8110
   89SAPS  C218 8619   1.759   6.370   8.720 -0.0990 -0.0264 -0.3719
   89SAPS  H18R 8620   1.868   6.363   8.744  0.2245  1.3954 -1.3566
   89SAPS  H18S 8621   1.733   6.478   8.723  1.0955  0.2694  0.0367
   89SAPS  C219 8622   1.729   6.310   8.588  0.0089 -0.0740  0.7966
   89SAPS  H19R 8623   1.621   6.318   8.563  0.2748 -1.0423 -0.7444
   89SAPS  H19S 8624   1.757   6.203   8.584 -3.1544 -0.9942 -0.0637
   89SAPS  C220 8625   1.829   6.376   8.483  0.5831  0.0904  0.1517
   89SAPS  H20R 8626   1.837   6.314   8.391 -0.9622 -0.9107  0.6427
   89SAPS  H20S 8627   1.930   6.377   8.527  0.8223  1.3912 -0.3671
   89SAPS  H20T 8628   1.798   6.480   8.457  2.2752  1.0424  1.6997
   89SAPS   C33 8629   2.107   6.089  10.411 -0.4590 -0.4567  0.0348
   89SAPS   H3X 8630   2.133   6.173  10.479  1.4957 -2.0978  1.4024
   89SAPS   H3Y 8631   2.015   6.116  10.355 -0.7391 -0.0045  0.6937
   89SAPS   C34 8632   2.212   6.064  10.308  0.0960  0.1560  0.0551
   89SAPS   H4X 8633   2.175   6.000  10.225 -1.7010 -1.2055  1.7744
   89SAPS   H4Y 8634   2.293   5.999  10.347  0.5129  1.2909  1.1660
   89SAPS   C35 8635   2.260   6.197  10.252 -0.2544 -0.7852  0.1900
   89SAPS   H5X 8636   2.339   6.230  10.323 -0.8345 -2.1014  1.5143
   89SAPS   H5Y 8637   2.175   6.267  10.264 -0.7815 -1.1210 -1.3407
   89SAPS   C36 8638   2.305   6.189  10.103  0.5803  0.2857  0.9824
   89SAPS   H6X 8639   2.378   6.105  10.099 -0.0771 -0.3318  1.5131
   89SAPS   H6Y 8640   2.373   6.276  10.089 -0.3154  1.0920  1.5892
   89SAPS   C37 8641   2.190   6.162  10.004 -0.0386  0.0508 -0.6437
   89SAPS   H7X 8642   2.114   6.241  10.023 -1.6599 -1.6298  0.2127
   89SAPS   H7Y 8643   2.138   6.069  10.033 -0.0026  0.5677  1.1463
   89SAPS   C38 8644   2.226   6.144   9.860  0.1654 -0.9310 -0.4607
   89SAPS   H8X 8645   2.136   6.127   9.797 -0.1834 -0.5985 -0.0540
   89SAPS   H8Y 8646   2.302   6.063   9.856 -0.7696 -2.0533  2.3418
   89SAPS   C39 8647   2.286   6.268   9.798 -0.5361  0.2537 -0.0604
   89SAPS   H9X 8648   2.347   6.317   9.876  0.0290 -1.2773  0.5019
   89SAPS   H9Y 8649   2.209   6.342   9.767 -0.7528  0.3271  0.6359
   89SAPS  C310 8650   2.387   6.228   9.683  0.2107 -0.6486  0.0846
   89SAPS  H10X 8651   2.404   6.119   9.680  0.2067 -0.6299 -0.9351
   89SAPS  H10Y 8652   2.488   6.273   9.693 -0.2247 -0.0018  1.9649
   89SAPS  C311 8653   2.316   6.248   9.543 -0.4079  0.2567  0.2186
   89SAPS  H11X 8654   2.309   6.356   9.517  0.3378  0.4409  0.7660
   89SAPS  H11Y 8655   2.212   6.210   9.538 -1.0816  1.9495  0.5563
   89SAPS  C312 8656   2.406   6.193   9.430  0.4763  0.0302  0.2753
   89SAPS  H12X 8657   2.406   6.083   9.448  4.4116 -0.0077  0.9417
   89SAPS  H12Y 8658   2.504   6.244   9.440  0.7350 -0.7818  2.6699
   89SAPS  C313 8659   2.345   6.227   9.297 -1.1636 -0.5522 -0.4409
   89SAPS  H13X 8660   2.315   6.334   9.283  0.3500 -0.1240 -0.5667
   89SAPS  H13Y 8661   2.242   6.186   9.298 -2.3605  2.2078 -0.5443
   89SAPS  C314 8662   2.427   6.165   9.184 -0.2861  0.7450  0.9485
   89SAPS  H14X 8663   2.453   6.059   9.205 -1.0531  0.0669 -1.2329
   89SAPS  H14Y 8664   2.531   6.203   9.168 -0.2371  0.1248 -0.2958
   89SAPS  C315 8665   2.353   6.166   9.045 -0.5731 -0.1664  0.3369
   89SAPS  H15X 8666   2.272   6.090   9.053 -3.2854  2.5238  0.1160
   89SAPS  H15Y 8667   2.427   6.128   8.972 -0.1843 -3.2463  2.1233
   89SAPS  C316 8668   2.301   6.302   9.018 -0.5951  1.3325 -0.0305
   89SAPS  H16X 8669   2.377   6.378   9.046  1.6260 -0.3471 -1.2426
   89SAPS  H16Y 8670   2.208   6.322   9.076 -1.1388 -2.6447  0.7440
   89SAPS  C317 8671   2.272   6.313   8.867  0.2061 -0.4573 -0.3675
   89SAPS  H17X 8672   2.371   6.321   8.817  0.1355 -0.6844 -0.5409
   89SAPS  H17Y 8673   2.227   6.412   8.844  0.2478 -0.1328  0.8475
   89SAPS  C318 8674   2.202   6.190   8.795 -0.0012 -0.1012 -0.6627
   89SAPS  H18X 8675   2.244   6.090   8.818 -0.0325  0.0911  0.3107
   89SAPS  H18Y 8676   2.197   6.203   8.685  0.3785 -0.5982 -0.7412
   89SAPS  H18Z 8677   2.093   6.186   8.818 -0.0596  2.3620 -0.1863
   90SAPS     N 8678   4.024   5.272  10.545  0.1270 -0.1151 -0.4988
   90SAPS   HN1 8679   3.941   5.210  10.535  0.2044 -0.3694  0.3615
   90SAPS   HN2 8680   4.045   5.323  10.456  0.7992 -1.9893 -1.4808
   90SAPS   HN3 8681   4.101   5.205  10.567  2.0041  1.2364 -2.4321
   90SAPS   C12 8682   4.004   5.351  10.669 -0.6487  0.5302  0.5325
   90SAPS  H12A 8683   3.973   5.278  10.742 -0.2715  2.5175  2.7689
   90SAPS   C13 8684   4.127   5.434  10.714 -0.1833 -0.0041  0.4811
   90SAPS  O13A 8685   4.237   5.406  10.658 -0.3353 -0.1831  0.3776
   90SAPS  O13B 8686   4.125   5.512  10.808  0.6595 -0.1792 -0.3056
   90SAPS   C11 8687   3.888   5.446  10.642  0.1014 -0.3278  0.1600
   90SAPS  H11A 8688   3.915   5.496  10.547  0.2413 -1.0394 -0.1746
   90SAPS  H11B 8689   3.882   5.525  10.720  0.8967  0.4725 -0.5782
   90SAPS     P 8690   3.620   5.438  10.643 -0.1080 -0.2449 -0.0741
   90SAPS   O13 8691   3.518   5.329  10.636 -0.0336  0.6241  0.1063
   90SAPS   O14 8692   3.620   5.510  10.775  0.3890 -0.2818  0.5895
   90SAPS   O12 8693   3.764   5.374  10.631  0.1824 -0.3974 -0.3143
   90SAPS   O11 8694   3.611   5.531  10.516 -0.2016  1.0147 -0.6754
   90SAPS    C1 8695   3.634   5.669  10.513 -0.0808  0.2148  0.0630
   90SAPS    HA 8696   3.551   5.723  10.564  1.6590 -0.4380  3.9429
   90SAPS    HB 8697   3.715   5.702  10.582 -0.5704  0.6340  0.4483
   90SAPS    C2 8698   3.672   5.721  10.379 -0.0779  0.0057  0.2692
   90SAPS    HS 8699   3.673   5.833  10.379 -2.9624  0.2251  4.2156
   90SAPS   O21 8700   3.584   5.670  10.280 -0.0223 -0.5914  0.7448
   90SAPS   C21 8701   3.472   5.747  10.267 -0.4057  0.5569 -0.1963
   90SAPS   O22 8702   3.448   5.844  10.335 -0.5688 -0.4481  0.0010
   90SAPS   C22 8703   3.368   5.684  10.167  0.6333  0.7534  0.8185
   90SAPS   H2R 8704   3.360   5.577  10.192  1.3530  0.8408  1.4546
   90SAPS   H2S 8705   3.268   5.730  10.183  0.2905 -0.3891  2.1352
   90SAPS    C3 8706   3.824   5.694  10.335 -0.3772 -0.4843 -0.1680
   90SAPS    HX 8707   3.832   5.585  10.316  1.5732 -0.1375 -1.6586
   90SAPS    HY 8708   3.892   5.731  10.415 -1.2670  0.9320 -0.0272
   90SAPS   O31 8709   3.840   5.767  10.212  0.3062 -0.3290  0.0895
   90SAPS   C31 8710   3.910   5.702  10.116 -0.8778  0.1742 -0.9345
   90SAPS   O32 8711   3.970   5.596  10.141  0.1207 -0.3960 -0.2602
   90SAPS   C32 8712   3.907   5.785   9.988  0.0297  0.8699 -0.1523
   90SAPS   H2X 8713   3.991   5.855  10.005  1.7463 -1.3214  0.9835
   90SAPS   H2Y 8714   3.811   5.841   9.983 -0.1991  0.9890  3.3350
   90SAPS   C23 8715   3.406   5.706  10.011  0.8402  0.2621 -0.5970
   90SAPS   H3R 8716   3.405   5.811   9.976  2.4565  0.7065  0.5622
   90SAPS   H3S 8717   3.315   5.667   9.961 -0.2233 -0.2837  1.6287
   90SAPS   C24 8718   3.536   5.633   9.973  0.0826 -1.1816  0.2510
   90SAPS   H4R 8719   3.546   5.538  10.030  1.1951 -1.5783 -0.5651
   90SAPS   H4S 8720   3.624   5.692  10.007 -1.3727  0.1546  1.8445
   90SAPS   C25 8721   3.549   5.612   9.826 -0.2494 -0.0551  0.1537
   90SAPS   H5R 8722   3.568   5.507   9.802 -0.7139 -0.0056 -0.4314
   90SAPS   C26 8723   3.548   5.703   9.723  0.8178 -0.5760 -0.1506
   90SAPS   H6R 8724   3.565   5.662   9.622 -0.3727  0.8399 -0.9826
   90SAPS   C27 8725   3.525   5.856   9.728  0.3084 -0.2239  0.6988
   90SAPS   H7R 8726   3.568   5.905   9.818 -1.9679  1.4526  0.9642
   90SAPS   H7S 8727   3.417   5.882   9.724  0.7146  1.8759  1.8532
   90SAPS   C28 8728   3.587   5.937   9.611 -0.5660 -0.0074 -0.6118
   90SAPS   H8R 8729   3.684   5.982   9.636 -0.1886 -0.6684 -0.8470
   90SAPS   C29 8730   3.527   5.977   9.494  0.0968  0.4816 -0.1889
   90SAPS   H9R 8731   3.573   6.039   9.416  2.5906 -1.3836 -0.3243
   90SAPS  C210 8732   3.390   5.926   9.448  0.3044 -0.0174 -0.2855
   90SAPS  H10R 8733   3.341   5.984   9.367  0.7918 -2.7467 -2.7257
   90SAPS  H10S 8734   3.315   5.932   9.530 -1.2578  3.0755 -1.7796
   90SAPS  C211 8735   3.396   5.782   9.401  0.4416  0.2394 -0.8934
   90SAPS  H11R 8736   3.350   5.714   9.474  0.3180  0.6620 -0.5728
   90SAPS  C212 8737   3.448   5.729   9.285 -0.0984 -0.6338 -1.3344
   90SAPS  H12R 8738   3.447   5.620   9.268  0.3280 -1.1903  1.6635
   90SAPS  C213 8739   3.510   5.829   9.182  0.7142  0.0200  0.2965
   90SAPS  H13R 8740   3.594   5.777   9.130 -0.5661 -2.2328  0.3332
   90SAPS  H13S 8741   3.563   5.912   9.233 -2.3419  1.8144  0.7709
   90SAPS  C214 8742   3.408   5.895   9.088  0.0386 -0.1795 -0.0777
   90SAPS  H14R 8743   3.323   5.928   9.149 -0.1639 -0.8445  0.0112
   90SAPS  C215 8744   3.398   5.896   8.954 -0.8491 -0.1834  0.5643
   90SAPS  H15R 8745   3.312   5.948   8.909 -0.4276 -0.4124 -0.5199
   90SAPS  C216 8746   3.504   5.849   8.856 -0.4160 -0.4235 -0.3228
   90SAPS  H16R 8747   3.486   5.758   8.795 -1.5374  0.9772 -2.2165
   90SAPS  H16S 8748   3.602   5.826   8.904 -1.3267  0.5851  2.1604
   90SAPS  C217 8749   3.529   5.960   8.749 -0.1181 -0.0333 -0.8690
   90SAPS  H17R 8750   3.620   5.929   8.693 -0.2994  0.4523 -1.4479
   90SAPS  H17S 8751   3.554   6.054   8.802  0.5001  0.7840 -2.5619
   90SAPS  C218 8752   3.411   5.996   8.655 -0.3211 -0.8281 -0.0045
   90SAPS  H18R 8753   3.430   6.100   8.622 -0.0491 -0.7150  0.4902
   90SAPS  H18S 8754   3.323   5.991   8.723 -0.1924  1.7286  0.4553
   90SAPS  C219 8755   3.404   5.913   8.524  0.0438  0.1449  0.2239
   90SAPS  H19R 8756   3.395   5.808   8.559  0.1115 -0.5300 -1.6747
   90SAPS  H19S 8757   3.503   5.935   8.478 -0.3742  3.0593  0.5435
   90SAPS  C220 8758   3.287   5.954   8.434 -0.5519  0.4769  0.2149
   90SAPS  H20R 8759   3.192   5.937   8.489 -1.1209  0.8887 -0.6351
   90SAPS  H20S 8760   3.278   5.882   8.351 -1.3016  0.4824  0.2836
   90SAPS  H20T 8761   3.298   6.058   8.397  2.3487 -0.8257 -3.1733
   90SAPS   C33 8762   3.940   5.695   9.868 -0.4138 -0.1280 -0.6838
   90SAPS   H3X 8763   3.854   5.626   9.852 -0.8578  0.2047  0.1819
   90SAPS   H3Y 8764   4.030   5.634   9.890 -1.1583 -0.6000  1.2721
   90SAPS   C34 8765   3.967   5.775   9.742 -0.0721  0.1770 -0.6312
   90SAPS   H4X 8766   4.031   5.863   9.762  0.3702  0.3808 -2.6824
   90SAPS   H4Y 8767   3.875   5.816   9.694 -0.6487  3.3171  2.7060
   90SAPS   C35 8768   4.051   5.698   9.640 -0.0652 -0.3128 -0.3110
   90SAPS   H5X 8769   4.134   5.668   9.707 -1.5684  0.9550  2.2752
   90SAPS   H5Y 8770   4.089   5.772   9.567 -0.7094  1.1303  0.7774
   90SAPS   C36 8771   3.983   5.578   9.576  0.2081 -0.0726  0.9334
   90SAPS   H6X 8772   3.958   5.491   9.642 -0.5498 -0.3644  0.2841
   90SAPS   H6Y 8773   4.046   5.546   9.490 -1.2811 -1.4174  0.2641
   90SAPS   C37 8774   3.854   5.628   9.501  0.1559 -1.0870  0.3563
   90SAPS   H7X 8775   3.847   5.735   9.471 -0.7326 -0.9715  0.9446
   90SAPS   H7Y 8776   3.775   5.613   9.577  0.0010 -1.2892  0.1590
   90SAPS   C38 8777   3.823   5.535   9.383 -0.3480 -0.6626  0.3061
   90SAPS   H8X 8778   3.712   5.534   9.383 -0.3852 -0.5050 -1.5526
   90SAPS   H8Y 8779   3.878   5.441   9.403  0.2317 -0.8302 -1.7661
   90SAPS   C39 8780   3.865   5.589   9.235  0.3736  0.0249 -0.1786
   90SAPS   H9X 8781   3.975   5.571   9.231  0.2592 -0.8581  0.3350
   90SAPS   H9Y 8782   3.857   5.699   9.225  0.8728  0.0276 -0.6254
   90SAPS  C310 8783   3.787   5.518   9.127 -0.6190 -1.3311 -0.8006
   90SAPS  H10X 8784   3.683   5.547   9.152  0.3770  1.1590  0.9396
   90SAPS  H10Y 8785   3.798   5.408   9.128  0.2489 -1.2515 -0.1084
   90SAPS  C311 8786   3.813   5.587   8.988  0.5702  0.1966 -0.1862
   90SAPS  H11X 8787   3.923   5.598   8.976  0.5089  0.3768 -0.5998
   90SAPS  H11Y 8788   3.767   5.688   8.986 -2.4174 -1.0621 -1.3786
   90SAPS  C312 8789   3.769   5.499   8.875  0.8605 -0.6859  1.1672
   90SAPS  H12X 8790   3.658   5.493   8.880  0.5619  2.2020 -0.0112
   90SAPS  H12Y 8791   3.799   5.392   8.881  0.3402 -0.9332 -0.1844
   90SAPS  C313 8792   3.808   5.550   8.734  0.8620  0.6291  0.4983
   90SAPS  H13X 8793   3.914   5.538   8.706  0.5003 -3.5375  0.2212
   90SAPS  H13Y 8794   3.770   5.654   8.727  1.7488  0.8488 -1.8297
   90SAPS  C314 8795   3.726   5.489   8.617  1.0887  0.0182 -0.2707
   90SAPS  H14X 8796   3.633   5.454   8.668  1.9360  0.8062  1.9338
   90SAPS  H14Y 8797   3.785   5.410   8.565 -0.9741 -0.5182 -1.9919
   90SAPS  C315 8798   3.686   5.582   8.497 -0.5771 -0.1033 -0.4137
   90SAPS  H15X 8799   3.780   5.623   8.453 -0.3854 -0.9762 -0.8371
   90SAPS  H15Y 8800   3.614   5.655   8.539 -0.8267 -1.8879  2.5186
   90SAPS  C316 8801   3.614   5.517   8.383  0.0509  0.4558  0.2178
   90SAPS  H16X 8802   3.523   5.474   8.428 -0.2462 -1.9971 -2.4293
   90SAPS  H16Y 8803   3.671   5.429   8.347 -0.5780 -0.1215  0.6321
   90SAPS  C317 8804   3.571   5.600   8.268  0.1075 -0.2847 -0.3419
   90SAPS  H17X 8805   3.648   5.677   8.246 -0.2773  1.1145  2.7105
   90SAPS  H17Y 8806   3.484   5.654   8.312 -0.3342 -1.8217  0.7780
   90SAPS  C318 8807   3.547   5.526   8.141  0.2393 -0.2410 -0.4963
   90SAPS  H18X 8808   3.488   5.434   8.155  1.2531 -0.8324  0.0272
   90SAPS  H18Y 8809   3.641   5.474   8.113  0.1636 -1.0723  0.7162
   90SAPS  H18Z 8810   3.504   5.591   8.061 -0.5187 -1.4465 -1.0870
   91SAPS     N 8811   4.091   4.565   6.025 -0.1420  0.1389 -0.2788
   91SAPS   HN1 8812   4.055   4.662   6.030  0.6116  0.4006  0.2380
   91SAPS   HN2 8813   4.012   4.501   6.004 -0.4747  0.5515 -0.2963
   91SAPS   HN3 8814   4.127   4.537   6.119  0.1804  3.0389  0.5415
   91SAPS   C12 8815   4.191   4.544   5.924 -0.4231  0.3646 -0.1624
   91SAPS  H12A 8816   4.216   4.439   5.914 -0.2233  0.2689  1.1363
   91SAPS   C13 8817   4.161   4.597   5.782  0.2630 -1.2668  0.3840
   91SAPS  O13A 8818   4.045   4.643   5.765  0.2943  0.2030  0.2379
   91SAPS  O13B 8819   4.247   4.593   5.690  0.1918 -0.0347  0.3189
   91SAPS   C11 8820   4.325   4.601   5.981 -0.0267 -0.1476  0.0584
   91SAPS  H11A 8821   4.311   4.711   5.981  0.9276 -0.0100 -1.0105
   91SAPS  H11B 8822   4.403   4.571   5.908 -0.7314  1.1028 -1.2370
   91SAPS     P 8823   4.501   4.543   6.171  0.1932 -0.2562  0.1952
   91SAPS   O13 8824   4.502   4.447   6.283 -0.7735  0.2085  0.0070
   91SAPS   O14 8825   4.592   4.511   6.057 -0.1044 -0.0279 -0.0469
   91SAPS   O12 8826   4.358   4.547   6.109  0.3361 -0.4614 -0.0894
   91SAPS   O11 8827   4.545   4.687   6.230  0.6120  0.1757  0.1432
   91SAPS    C1 8828   4.456   4.800   6.254 -0.2100  0.9051 -0.0526
   91SAPS    HA 8829   4.524   4.886   6.272 -0.6782  1.4014 -0.6345
   91SAPS    HB 8830   4.378   4.811   6.176 -0.4295  0.8985  0.1642
   91SAPS    C2 8831   4.368   4.777   6.383 -0.1862  0.1738 -0.0751
   91SAPS    HS 8832   4.284   4.707   6.365 -1.2038  0.8232  1.9239
   91SAPS   O21 8833   4.315   4.901   6.414  0.7734 -0.1440  0.5616
   91SAPS   C21 8834   4.196   4.931   6.368 -0.0269  1.0089 -0.0784
   91SAPS   O22 8835   4.108   4.849   6.333 -0.0395 -0.0116  0.1593
   91SAPS   C22 8836   4.157   5.069   6.388 -0.5958 -0.1058 -0.3110
   91SAPS   H2R 8837   4.234   5.134   6.340 -0.0419 -0.5995 -0.1160
   91SAPS   H2S 8838   4.058   5.072   6.338 -2.7117 -2.3088  3.3080
   91SAPS    C3 8839   4.443   4.730   6.505 -0.5140  0.4216 -0.0901
   91SAPS    HX 8840   4.534   4.793   6.515  0.5624 -1.0188 -0.4760
   91SAPS    HY 8841   4.479   4.625   6.493 -2.6716 -0.3794  0.0341
   91SAPS   O31 8842   4.366   4.744   6.630 -0.0963 -0.1979  0.0573
   91SAPS   C31 8843   4.283   4.641   6.661  0.1157 -0.2727  0.3368
   91SAPS   O32 8844   4.274   4.545   6.590  0.0165  0.6482 -0.4249
   91SAPS   C32 8845   4.219   4.664   6.799  0.2725 -0.6608 -0.5322
   91SAPS   H2X 8846   4.110   4.683   6.788  0.6082  0.8837 -1.5696
   91SAPS   H2Y 8847   4.267   4.752   6.847 -0.2322  0.0096 -1.2360
   91SAPS   C23 8848   4.147   5.114   6.534 -0.0878  0.8360 -0.5907
   91SAPS   H3R 8849   4.251   5.123   6.573 -0.1178 -3.7940  1.2978
   91SAPS   H3S 8850   4.088   5.045   6.599 -0.6927  3.3487  1.7114
   91SAPS   C24 8851   4.090   5.257   6.547 -0.0878  0.0080 -0.4424
   91SAPS   H4R 8852   4.140   5.318   6.469  0.1444  0.5444  0.1219
   91SAPS   H4S 8853   4.113   5.296   6.648  0.6440  1.2172 -1.0528
   91SAPS   C25 8854   3.940   5.259   6.521 -0.2722  0.5263 -0.0792
   91SAPS   H5R 8855   3.923   5.254   6.413  3.6403  0.5687 -0.8396
   91SAPS   C26 8856   3.839   5.298   6.596 -0.5745  0.5016 -0.6334
   91SAPS   H6R 8857   3.742   5.298   6.545 -0.3146  1.5524 -1.1642
   91SAPS   C27 8858   3.852   5.335   6.747 -0.0927 -0.2803  0.7124
   91SAPS   H7R 8859   3.880   5.442   6.757 -3.3744  0.6798  0.9690
   91SAPS   H7S 8860   3.934   5.279   6.797 -0.1525 -0.0473  1.0693
   91SAPS   C28 8861   3.725   5.303   6.818  0.5304 -0.6921  0.0784
   91SAPS   H8R 8862   3.654   5.240   6.762  0.9221 -1.1727  0.1193
   91SAPS   C29 8863   3.700   5.317   6.944  0.1638  0.2268  0.5439
   91SAPS   H9R 8864   3.594   5.295   6.963  0.0006 -4.9784 -3.8263
   91SAPS  C210 8865   3.793   5.384   7.043  0.8986  0.0527  0.7831
   91SAPS  H10R 8866   3.807   5.487   7.004  0.5171  0.0060  0.5140
   91SAPS  H10S 8867   3.891   5.333   7.036  1.6523  1.4353  0.8460
   91SAPS  C211 8868   3.741   5.385   7.184  0.0815 -0.5502  0.2973
   91SAPS  H11R 8869   3.636   5.418   7.179  0.1699 -0.3806 -0.6186
   91SAPS  C212 8870   3.805   5.362   7.303  0.0213  0.3017 -0.1299
   91SAPS  H12R 8871   3.741   5.368   7.392 -1.8806 -0.6330 -1.3582
   91SAPS  C213 8872   3.947   5.325   7.329 -0.2743  0.0488  0.5127
   91SAPS  H13R 8873   4.010   5.331   7.238 -1.0453  0.9960  0.0197
   91SAPS  H13S 8874   3.948   5.219   7.365 -1.3134 -0.4259 -0.7857
   91SAPS  C214 8875   4.019   5.410   7.430 -0.1822 -0.3267 -0.1767
   91SAPS  H14R 8876   4.060   5.496   7.376 -3.1878  0.2860 -1.7485
   91SAPS  C215 8877   4.017   5.400   7.565 -0.4146 -0.1933 -0.4379
   91SAPS  H15R 8878   4.078   5.474   7.619 -1.6008  0.1542  0.4922
   91SAPS  C216 8879   3.940   5.297   7.650  0.4750 -1.1196  0.3052
   91SAPS  H16R 8880   3.832   5.322   7.651  1.1693  2.5065  1.6511
   91SAPS  H16S 8881   3.981   5.307   7.752  2.1879  4.2477 -0.5873
   91SAPS  C217 8882   3.953   5.147   7.607 -0.1268 -0.1109  0.0794
   91SAPS  H17R 8883   4.061   5.135   7.582  0.0985  0.6215  0.6815
   91SAPS  H17S 8884   3.891   5.118   7.520  0.7580 -2.1128  0.0445
   91SAPS  C218 8885   3.923   5.041   7.720  0.7466  0.2321  0.2725
   91SAPS  H18R 8886   3.896   4.946   7.671  1.5776  0.3263 -0.3992
   91SAPS  H18S 8887   3.837   5.082   7.776  0.9028  1.4290 -0.3076
   91SAPS  C219 8888   4.045   5.013   7.810 -0.2171 -0.1121 -0.0336
   91SAPS  H19R 8889   4.068   5.111   7.858  0.3551 -0.3056  0.1080
   91SAPS  H19S 8890   4.120   4.973   7.739 -0.2936  0.0644 -0.2137
   91SAPS  C220 8891   4.016   4.909   7.916  0.2053 -0.3399  0.5073
   91SAPS  H20R 8892   3.942   4.944   7.990  0.6420  2.4394 -0.2670
   91SAPS  H20S 8893   4.114   4.877   7.956 -0.3017 -0.0863  1.9939
   91SAPS  H20T 8894   3.969   4.816   7.876  3.3853 -1.0013 -2.1009
   91SAPS   C33 8895   4.240   4.532   6.886  0.1845 -0.4903  0.1365
   91SAPS   H3X 8896   4.347   4.516   6.913  0.0655 -2.1183 -0.2706
   91SAPS   H3Y 8897   4.201   4.445   6.830 -0.7094 -0.2096  0.3067
   91SAPS   C34 8898   4.158   4.531   7.015 -0.3430  0.8365  0.4562
   91SAPS   H4X 8899   4.187   4.440   7.072  0.7276  0.4710 -0.6149
   91SAPS   H4Y 8900   4.050   4.539   6.989 -0.4975  0.8254  1.0834
   91SAPS   C35 8901   4.195   4.641   7.113 -0.4608 -0.1756 -0.0367
   91SAPS   H5X 8902   4.163   4.738   7.070 -0.9657 -0.6364 -0.7266
   91SAPS   H5Y 8903   4.304   4.654   7.127 -0.4608 -0.3702  0.1340
   91SAPS   C36 8904   4.139   4.616   7.258 -0.5124 -0.0574  0.1711
   91SAPS   H6X 8905   4.181   4.533   7.319 -0.1739  1.1006  1.5500
   91SAPS   H6Y 8906   4.033   4.589   7.238 -0.9131  3.1769 -3.1183
   91SAPS   C37 8907   4.135   4.750   7.339 -0.3586 -0.2301  0.4822
   91SAPS   H7X 8908   4.051   4.807   7.294  1.7744  1.1942 -1.9821
   91SAPS   H7Y 8909   4.231   4.805   7.336 -0.2984 -0.2741  1.3988
   91SAPS   C38 8910   4.104   4.729   7.486 -0.6873 -0.0501  0.2266
   91SAPS   H8X 8911   4.014   4.664   7.484 -0.6514 -0.1356 -2.3578
   91SAPS   H8Y 8912   4.069   4.828   7.521  0.8893  0.6090  0.0153
   91SAPS   C39 8913   4.214   4.670   7.577  0.0427  0.0031  0.6831
   91SAPS   H9X 8914   4.303   4.735   7.589  0.8755 -0.7986 -0.8711
   91SAPS   H9Y 8915   4.263   4.581   7.531 -0.3898 -0.6011  1.3716
   91SAPS  C310 8916   4.160   4.633   7.719  0.4995  0.3351  0.4354
   91SAPS  H10X 8917   4.057   4.595   7.701  1.0448 -1.3293  0.6198
   91SAPS  H10Y 8918   4.145   4.731   7.769  0.2654  0.7958 -0.5196
   91SAPS  C311 8919   4.258   4.558   7.807  0.2757  0.2246  0.1610
   91SAPS  H11X 8920   4.344   4.626   7.821  3.1697 -3.6123  3.4450
   91SAPS  H11Y 8921   4.295   4.468   7.754  0.5217 -0.5249  1.5409
   91SAPS  C312 8922   4.210   4.496   7.939  0.4385  0.2581  0.1729
   91SAPS  H12X 8923   4.169   4.396   7.915  0.3774 -0.0013  1.3213
   91SAPS  H12Y 8924   4.126   4.557   7.977 -0.3454 -1.1167  0.7228
   91SAPS  C313 8925   4.317   4.480   8.049  0.3571  0.2090  0.0137
   91SAPS  H13X 8926   4.348   4.581   8.084  0.1496 -0.5970  2.7512
   91SAPS  H13Y 8927   4.407   4.421   8.019 -1.0537 -1.8640 -0.2853
   91SAPS  C314 8928   4.263   4.410   8.174  0.1070 -0.2894  0.1939
   91SAPS  H14X 8929   4.242   4.301   8.171 -1.0292 -0.0724 -0.7692
   91SAPS  H14Y 8930   4.165   4.455   8.197 -0.6555 -0.0452 -3.0224
   91SAPS  C315 8931   4.350   4.445   8.296  0.0340  0.0936  0.0033
   91SAPS  H15X 8932   4.336   4.555   8.296  1.7931  0.3369 -0.8077
   91SAPS  H15Y 8933   4.457   4.434   8.268 -0.0041  1.3576 -0.7220
   91SAPS  C316 8934   4.310   4.389   8.434 -0.6951 -0.1296 -0.2578
   91SAPS  H16X 8935   4.322   4.279   8.421 -1.3497 -0.1641 -0.6040
   91SAPS  H16Y 8936   4.201   4.405   8.450 -0.8148 -0.5773 -0.6071
   91SAPS  C317 8937   4.392   4.433   8.553  0.6060 -0.6924 -0.3681
   91SAPS  H17X 8938   4.501   4.418   8.537  0.6057 -0.7056 -0.3576
   91SAPS  H17Y 8939   4.362   4.378   8.645  1.6548 -1.7035 -0.6012
   91SAPS  C318 8940   4.360   4.588   8.567 -0.1508  0.0588 -0.1045
   91SAPS  H18X 8941   4.251   4.606   8.554  0.3296  2.6830 -1.0443
   91SAPS  H18Y 8942   4.418   4.640   8.489  0.8827 -1.2558 -0.2487
   91SAPS  H18Z 8943   4.391   4.624   8.668 -1.5167 -1.0785  0.7664
   92SAPS     N 8944   2.220   2.082   6.012 -0.5034 -0.1920 -0.4774
   92SAPS   HN1 8945   2.277   2.132   5.941  0.3500 -2.8793 -1.8165
   92SAPS   HN2 8946   2.287   2.057   6.087 -1.7612  0.9726  1.1219
   92SAPS   HN3 8947   2.167   2.004   5.969 -2.3789  0.5939  0.2905
   92SAPS   C12 8948   2.120   2.187   6.074  0.0328 -0.4426  0.5719
   92SAPS  H12A 8949   2.175   2.272   6.112 -1.8612  1.1653 -0.1306
   92SAPS   C13 8950   2.027   2.241   5.971  0.0086 -0.0369  0.4169
   92SAPS  O13A 8951   2.046   2.224   5.850  0.1277 -0.1894  0.0719
   92SAPS  O13B 8952   1.924   2.307   6.014 -0.2959 -0.1006 -1.0098
   92SAPS   C11 8953   2.045   2.121   6.191  0.7538  0.4695  0.4641
   92SAPS  H11A 8954   1.981   2.040   6.152  1.1760 -0.5651  1.8114
   92SAPS  H11B 8955   1.994   2.199   6.251 -0.4058 -0.3634  0.5755
   92SAPS     P 8956   2.107   1.939   6.376 -0.1475  0.0389  0.3533
   92SAPS   O13 8957   2.054   1.825   6.301  0.3054  0.0370 -0.2247
   92SAPS   O14 8958   2.220   1.912   6.469  0.0999  0.5619  0.3342
   92SAPS   O12 8959   2.148   2.060   6.276  0.0734 -0.2607  0.5097
   92SAPS   O11 8960   1.984   1.990   6.464 -0.5072 -0.3372 -0.7697
   92SAPS    C1 8961   1.984   2.111   6.528 -0.0400  0.0121 -0.3140
   92SAPS    HA 8962   2.076   2.120   6.590 -0.1233 -0.5761 -0.1021
   92SAPS    HB 8963   1.994   2.194   6.454  0.1760 -0.4291 -0.7891
   92SAPS    C2 8964   1.874   2.138   6.622  0.1306 -0.7790 -0.7037
   92SAPS    HS 8965   1.905   2.232   6.673 -2.0538 -1.4905  2.1633
   92SAPS   O21 8966   1.863   2.024   6.712  0.7042  0.8794  0.0043
   92SAPS   C21 8967   1.890   2.056   6.844 -0.2567  0.6761 -0.3268
   92SAPS   O22 8968   1.935   2.164   6.885  0.0108  0.0555 -0.3640
   92SAPS   C22 8969   1.867   1.940   6.934 -0.4752 -0.2910 -0.1884
   92SAPS   H2R 8970   1.757   1.946   6.948 -0.2741  0.7461  1.2334
   92SAPS   H2S 8971   1.903   1.845   6.891 -1.4777  0.2801 -2.3962
   92SAPS    C3 8972   1.744   2.158   6.540 -0.3077  0.2234 -0.0583
   92SAPS    HX 8973   1.748   2.109   6.440  0.0265  2.2456 -1.0821
   92SAPS    HY 8974   1.750   2.260   6.496  0.0184 -0.1188 -0.8257
   92SAPS   O31 8975   1.621   2.150   6.615  0.4071 -0.4214 -0.4566
   92SAPS   C31 8976   1.518   2.107   6.532 -0.8040  0.3264  0.4999
   92SAPS   O32 8977   1.531   2.098   6.410 -0.3883 -0.4309  0.1012
   92SAPS   C32 8978   1.388   2.073   6.599 -0.5289 -0.1571 -0.5133
   92SAPS   H2X 8979   1.307   2.068   6.523 -0.0994  1.8476 -1.1444
   92SAPS   H2Y 8980   1.346   2.145   6.673 -1.0145 -1.2240  0.2885
   92SAPS   C23 8981   1.934   1.950   7.081  0.5872 -0.0762 -0.4412
   92SAPS   H3R 8982   1.931   2.049   7.131  0.1047 -0.4616  0.2966
   92SAPS   H3S 8983   2.043   1.930   7.069  0.6489  1.4870 -3.4387
   92SAPS   C24 8984   1.889   1.832   7.175 -0.1376 -0.4143  0.4045
   92SAPS   H4R 8985   1.968   1.814   7.251  1.6318 -1.6513 -1.6137
   92SAPS   H4S 8986   1.878   1.744   7.108  1.9199 -0.0846 -0.4382
   92SAPS   C25 8987   1.760   1.861   7.230 -0.1622 -0.2598 -0.3990
   92SAPS   H5R 8988   1.679   1.850   7.156 -2.0310 -1.7913  1.7256
   92SAPS   C26 8989   1.728   1.905   7.356 -0.0041 -0.1189 -0.4535
   92SAPS   H6R 8990   1.623   1.926   7.383  0.9469  2.4625  1.6401
   92SAPS   C27 8991   1.821   1.936   7.466 -0.4188  0.0404 -0.4914
   92SAPS   H7R 8992   1.924   1.903   7.441 -0.9995 -3.0287  0.7289
   92SAPS   H7S 8993   1.788   1.871   7.550 -0.5844 -0.4424 -0.9257
   92SAPS   C28 8994   1.835   2.079   7.509  0.1452 -0.8501  0.2093
   92SAPS   H8R 8995   1.914   2.131   7.453  1.2949  0.7903  3.1405
   92SAPS   C29 8996   1.773   2.144   7.610  0.0871  0.8090  0.1781
   92SAPS   H9R 8997   1.794   2.251   7.617 -1.1627  1.4502 -3.4983
   92SAPS  C210 8998   1.676   2.083   7.706 -0.4832  0.1490 -0.4959
   92SAPS  H10R 8999   1.608   2.016   7.650 -1.4351  1.5651 -1.0861
   92SAPS  H10S 9000   1.606   2.162   7.742 -2.0283 -1.1166 -0.5866
   92SAPS  C211 9001   1.747   2.014   7.819 -0.1103  0.3812  0.4052
   92SAPS  H11R 9002   1.822   1.941   7.785 -0.5118 -0.3901  1.1366
   92SAPS  C212 9003   1.713   2.030   7.948 -1.4240 -0.4347 -0.0734
   92SAPS  H12R 9004   1.764   1.968   8.023  4.0275  2.2263 -1.1002
   92SAPS  C213 9005   1.612   2.125   8.004  0.5205 -0.3066  0.7314
   92SAPS  H13R 9006   1.513   2.077   8.020  1.9860 -2.5944  3.9350
   92SAPS  H13S 9007   1.579   2.195   7.924 -0.0226  0.6197  1.7343
   92SAPS  C214 9008   1.668   2.202   8.120 -0.7236  0.0733  0.1164
   92SAPS  H14R 9009   1.769   2.242   8.100 -0.6640 -0.0751  0.1148
   92SAPS  C215 9010   1.593   2.235   8.225  0.3745 -0.4064  0.0069
   92SAPS  H15R 9011   1.618   2.326   8.281 -5.1871  1.8207 -0.5172
   92SAPS  C216 9012   1.462   2.179   8.277 -0.2036  0.0348 -0.0006
   92SAPS  H16R 9013   1.413   2.113   8.202  0.9407 -1.5257  0.5612
   92SAPS  H16S 9014   1.401   2.271   8.290  1.8436  1.2568  1.5377
   92SAPS  C217 9015   1.462   2.089   8.406  0.1548  0.0083  0.1410
   92SAPS  H17R 9016   1.529   2.003   8.384  0.7515  0.0104  1.8494
   92SAPS  H17S 9017   1.365   2.041   8.432  0.8038 -1.4057  0.0820
   92SAPS  C218 9018   1.543   2.138   8.530 -0.0071  0.0946 -0.1337
   92SAPS  H18R 9019   1.636   2.180   8.487 -1.8147  1.0966 -3.3457
   92SAPS  H18S 9020   1.558   2.048   8.593  0.3958  0.2838  0.0473
   92SAPS  C219 9021   1.467   2.246   8.606  1.0673 -0.8727 -0.2912
   92SAPS  H19R 9022   1.435   2.334   8.547  4.1576 -1.3144 -2.8977
   92SAPS  H19S 9023   1.530   2.288   8.688 -2.1404  0.6528  1.6021
   92SAPS  C220 9024   1.350   2.185   8.677  0.0531  0.0993 -0.8757
   92SAPS  H20R 9025   1.286   2.122   8.611 -0.9048  0.7216 -0.5698
   92SAPS  H20S 9026   1.296   2.260   8.739  0.6427 -0.4239  0.2921
   92SAPS  H20T 9027   1.401   2.122   8.753 -0.0486  1.4605  0.3642
   92SAPS   C33 9028   1.416   1.943   6.683  0.4285  0.5670  0.1781
   92SAPS   H3X 9029   1.457   1.864   6.616 -1.7589 -1.0693  0.6784
   92SAPS   H3Y 9030   1.319   1.899   6.714  0.0996  1.5801  0.6553
   92SAPS   C34 9031   1.495   1.958   6.804 -0.3552  0.4057 -0.5958
   92SAPS   H4X 9032   1.602   1.980   6.782  0.7419 -2.9043  0.8681
   92SAPS   H4Y 9033   1.496   1.862   6.859  1.8343 -0.8968 -2.7274
   92SAPS   C35 9034   1.430   2.059   6.896  0.5544 -1.0701 -0.2959
   92SAPS   H5X 9035   1.321   2.039   6.898  0.1052  0.8412 -1.7024
   92SAPS   H5Y 9036   1.437   2.164   6.858  0.8418 -1.8488 -2.5171
   92SAPS   C36 9037   1.485   2.038   7.036 -0.8393  0.0400  0.2694
   92SAPS   H6X 9038   1.591   2.071   7.042 -0.6628 -0.0448 -1.6842
   92SAPS   H6Y 9039   1.475   1.932   7.067 -0.0321 -0.7504 -1.9974
   92SAPS   C37 9040   1.403   2.126   7.134 -0.2178  0.1172 -0.3362
   92SAPS   H7X 9041   1.298   2.108   7.103  0.2359  0.2050 -2.0199
   92SAPS   H7Y 9042   1.432   2.232   7.118 -0.0321 -0.0160 -0.9330
   92SAPS   C38 9043   1.421   2.090   7.282 -0.6865  1.1033  0.1571
   92SAPS   H8X 9044   1.531   2.094   7.299 -0.4134  0.0595 -1.2094
   92SAPS   H8Y 9045   1.393   1.984   7.299 -0.1090  1.1280  1.3656
   92SAPS   C39 9046   1.349   2.183   7.377  0.4202 -0.7045 -0.0576
   92SAPS   H9X 9047   1.241   2.163   7.357  0.7310 -2.1098 -0.4060
   92SAPS   H9Y 9048   1.375   2.288   7.353  0.4197 -0.7337 -0.1840
   92SAPS  C310 9049   1.374   2.152   7.521  0.3716  0.3771 -0.1032
   92SAPS  H10X 9050   1.478   2.169   7.554  0.5605  0.1851 -0.5896
   92SAPS  H10Y 9051   1.338   2.047   7.531 -2.2798  1.2982  1.2172
   92SAPS  C311 9052   1.284   2.241   7.606  0.2255  0.0573 -0.2737
   92SAPS  H11X 9053   1.176   2.229   7.581  0.0139  1.8445 -0.3186
   92SAPS  H11Y 9054   1.281   2.351   7.592 -1.9616  0.9951  4.9833
   92SAPS  C312 9055   1.296   2.212   7.761 -0.0578  0.0075 -0.2011
   92SAPS  H12X 9056   1.395   2.249   7.792  1.2913 -2.9770 -0.5306
   92SAPS  H12Y 9057   1.296   2.101   7.767 -0.0217 -0.1698 -2.5856
   92SAPS  C313 9058   1.189   2.283   7.842  0.3471  0.4282 -0.3483
   92SAPS  H13X 9059   1.087   2.264   7.802  1.0867 -1.3315 -1.5637
   92SAPS  H13Y 9060   1.200   2.391   7.819 -0.6693 -0.0886 -3.9642
   92SAPS  C314 9061   1.198   2.240   7.990 -0.6717 -0.2102  0.3581
   92SAPS  H14X 9062   1.301   2.264   8.025  0.4928 -1.5379 -1.8997
   92SAPS  H14Y 9063   1.189   2.130   8.002  1.7145 -0.6826 -1.4621
   92SAPS  C315 9064   1.101   2.317   8.073  0.3563  0.0568 -0.6080
   92SAPS  H15X 9065   0.994   2.296   8.050  0.2289 -0.2651  0.2513
   92SAPS  H15Y 9066   1.106   2.425   8.045  0.8431 -0.1732 -1.4153
   92SAPS  C316 9067   1.128   2.320   8.228 -0.1134 -0.0739  0.6660
   92SAPS  H16X 9068   1.234   2.351   8.246 -0.1112  0.0170  0.4945
   92SAPS  H16Y 9069   1.107   2.220   8.272 -1.1023  0.2756  1.0059
   92SAPS  C317 9070   1.029   2.399   8.309 -0.0801 -0.1319 -0.3485
   92SAPS  H17X 9071   0.926   2.368   8.282  0.3199 -0.8423 -1.1252
   92SAPS  H17Y 9072   1.036   2.506   8.284 -1.9666  0.5723  1.7979
   92SAPS  C318 9073   1.035   2.399   8.463 -0.3538  0.0850 -0.3229
   92SAPS  H18X 9074   1.121   2.456   8.504 -0.6895  0.0131  0.4999
   92SAPS  H18Y 9075   1.027   2.298   8.509  0.6768 -0.1371 -0.6106
   92SAPS  H18Z 9076   0.953   2.459   8.507  0.2668  0.9327 -0.2948
   93SAPS     N 9077   4.796   3.478   6.536  0.1087  0.1616  0.8007
   93SAPS   HN1 9078   4.805   3.459   6.638  0.4643 -0.3213  0.6856
   93SAPS   HN2 9079   4.870   3.546   6.512 -0.7741  0.6904 -0.5061
   93SAPS   HN3 9080   4.704   3.526   6.530  0.7155  1.4520  1.4357
   93SAPS   C12 9081   4.802   3.358   6.453 -0.7792 -0.1717 -0.0629
   93SAPS  H12A 9082   4.777   3.378   6.350 -1.0024 -1.4177 -0.2735
   93SAPS   C13 9083   4.941   3.289   6.443  0.2693 -0.3025  0.2250
   93SAPS  O13A 9084   5.032   3.304   6.527 -0.3845 -0.4347 -0.7240
   93SAPS  O13B 9085   4.940   3.185   6.369  0.1102  0.0164  0.3250
   93SAPS   C11 9086   4.690   3.259   6.500  0.0999  0.0324  0.2888
   93SAPS  H11A 9087   4.708   3.214   6.600  1.2211 -2.4268 -0.9402
   93SAPS  H11B 9088   4.698   3.169   6.435 -1.9389  0.6431 -0.8879
   93SAPS     P 9089   4.435   3.255   6.446 -0.9513 -0.0451 -0.2078
   93SAPS   O13 9090   4.407   3.325   6.315 -0.4456  0.5284 -0.1455
   93SAPS   O14 9091   4.467   3.109   6.457 -0.1258  0.6041  0.5055
   93SAPS   O12 9092   4.567   3.323   6.494 -0.5167 -0.5751 -0.0311
   93SAPS   O11 9093   4.326   3.299   6.556  0.0791 -0.2015 -0.3126
   93SAPS    C1 9094   4.351   3.423   6.621  0.3336  0.1730 -0.2861
   93SAPS    HA 9095   4.412   3.486   6.553  0.1186 -1.3343 -1.9524
   93SAPS    HB 9096   4.261   3.486   6.639  0.9176  0.5037  1.6414
   93SAPS    C2 9097   4.419   3.399   6.754  0.5295 -0.2262  0.8217
   93SAPS    HS 9098   4.514   3.346   6.733  0.2073  0.0509 -1.6036
   93SAPS   O21 9099   4.335   3.334   6.849  1.1971  0.5102  0.5606
   93SAPS   C21 9100   4.389   3.234   6.915 -0.7233 -0.3981  0.4459
   93SAPS   O22 9101   4.506   3.193   6.902 -0.0117 -0.6327 -0.0185
   93SAPS   C22 9102   4.296   3.188   7.022  0.0388  0.6053 -0.4566
   93SAPS   H2R 9103   4.191   3.216   6.997 -0.5530 -1.3851 -0.3312
   93SAPS   H2S 9104   4.299   3.077   7.018  2.6968  0.6518 -3.3124
   93SAPS    C3 9105   4.444   3.537   6.821  0.5189 -0.9086  0.2044
   93SAPS    HX 9106   4.344   3.575   6.849  0.2279 -1.2923 -0.3161
   93SAPS    HY 9107   4.480   3.611   6.746  2.9823 -0.6740  1.4946
   93SAPS   O31 9108   4.531   3.535   6.930 -0.1977 -0.0737 -0.1216
   93SAPS   C31 9109   4.658   3.498   6.896  0.6148  0.1751  0.3304
   93SAPS   O32 9110   4.704   3.499   6.788 -0.6815 -0.2123  0.7165
   93SAPS   C32 9111   4.740   3.452   7.024  0.1649  0.5514  0.2517
   93SAPS   H2X 9112   4.773   3.547   7.071  0.4265  0.2983  0.5894
   93SAPS   H2Y 9113   4.837   3.406   6.992 -0.4423  0.2013 -1.1671
   93SAPS   C23 9114   4.329   3.232   7.164  0.4681  0.1795  0.0705
   93SAPS   H3R 9115   4.325   3.343   7.162 -1.9059  0.1497  0.9382
   93SAPS   H3S 9116   4.432   3.194   7.184  0.9107  1.7348  0.9072
   93SAPS   C24 9117   4.228   3.191   7.269  0.1408 -0.4431  0.6234
   93SAPS   H4R 9118   4.127   3.234   7.251  0.4352  0.1438  0.3507
   93SAPS   H4S 9119   4.262   3.258   7.351 -0.1035  3.0436 -1.8490
   93SAPS   C25 9120   4.233   3.052   7.321  0.1790  0.3424  0.0106
   93SAPS   H5R 9121   4.301   2.992   7.259  1.2601  1.2265  0.2835
   93SAPS   C26 9122   4.193   3.024   7.449  0.1960 -0.1792 -0.3962
   93SAPS   H6R 9123   4.211   2.923   7.488  1.4694  0.8738  1.9521
   93SAPS   C27 9124   4.116   3.118   7.542  0.2783 -0.3828  0.4857
   93SAPS   H7R 9125   4.016   3.146   7.504  0.5460  0.4533  0.3658
   93SAPS   H7S 9126   4.167   3.216   7.547  0.1556 -0.2904 -0.0091
   93SAPS   C28 9127   4.111   3.060   7.679 -0.2091 -0.4704 -0.7366
   93SAPS   H8R 9128   4.205   3.022   7.723 -0.9388 -3.1497 -1.2697
   93SAPS   C29 9129   4.000   3.064   7.761  0.1558 -0.0485 -0.5245
   93SAPS   H9R 9130   4.017   3.034   7.865  0.4458  0.7666 -0.3312
   93SAPS  C210 9131   3.861   3.110   7.720  0.9504  0.3962  0.1443
   93SAPS  H10R 9132   3.844   3.065   7.619  0.2819 -0.3505  0.5784
   93SAPS  H10S 9133   3.864   3.221   7.716 -0.2453  0.5783  2.6605
   93SAPS  C211 9134   3.761   3.054   7.820  0.2655  0.4388  0.8670
   93SAPS  H11R 9135   3.774   2.947   7.845  2.0263  0.0933 -1.2252
   93SAPS  C212 9136   3.651   3.119   7.869  0.2758 -0.4722 -0.5840
   93SAPS  H12R 9137   3.590   3.069   7.946  0.6773  0.7212  0.5372
   93SAPS  C213 9138   3.626   3.262   7.843  0.6146 -0.0815  0.1213
   93SAPS  H13R 9139   3.524   3.298   7.871  0.1428 -1.3865  0.1186
   93SAPS  H13S 9140   3.644   3.271   7.734 -0.4928 -0.2351 -0.0843
   93SAPS  C214 9141   3.719   3.352   7.916  0.0499 -0.2563  0.3800
   93SAPS  H14R 9142   3.801   3.394   7.855  1.2596 -2.6632  0.1872
   93SAPS  C215 9143   3.700   3.391   8.044 -0.4365  0.1577 -0.2331
   93SAPS  H15R 9144   3.776   3.447   8.100 -1.0133  0.8987 -0.1709
   93SAPS  C216 9145   3.585   3.350   8.141 -0.0972 -0.3357  0.2798
   93SAPS  H16R 9146   3.556   3.244   8.122  0.8026 -0.6084  0.3563
   93SAPS  H16S 9147   3.496   3.414   8.129 -0.1708 -0.2731  1.1225
   93SAPS  C217 9148   3.630   3.354   8.278  0.0107  0.2739  0.2908
   93SAPS  H17R 9149   3.709   3.275   8.284 -0.4606 -0.3116 -0.9565
   93SAPS  H17S 9150   3.538   3.329   8.335  0.9251 -0.0031  1.7191
   93SAPS  C218 9151   3.691   3.485   8.331  0.0753  0.2819 -0.3669
   93SAPS  H18R 9152   3.627   3.568   8.294  1.5787  0.9193 -1.6623
   93SAPS  H18S 9153   3.798   3.492   8.303 -0.1188 -0.7577 -1.4560
   93SAPS  C219 9154   3.690   3.489   8.486 -0.1099  0.5640  0.3367
   93SAPS  H19R 9155   3.761   3.412   8.523 -1.0892 -0.6039 -0.1641
   93SAPS  H19S 9156   3.591   3.465   8.528  1.2344 -1.8345  2.3826
   93SAPS  C220 9157   3.743   3.621   8.536  0.7410 -0.2839 -0.0203
   93SAPS  H20R 9158   3.692   3.704   8.483 -1.1209  0.0059  2.0942
   93SAPS  H20S 9159   3.852   3.624   8.515  1.1628 -0.8197  1.8714
   93SAPS  H20T 9160   3.735   3.633   8.647 -2.5379  0.5892 -0.2454
   93SAPS   C33 9161   4.650   3.380   7.129 -0.3591  0.5553  0.3257
   93SAPS   H3X 9162   4.631   3.280   7.084  0.9434  1.5190 -2.5650
   93SAPS   H3Y 9163   4.550   3.424   7.150 -1.6892 -1.5009 -1.3648
   93SAPS   C34 9164   4.721   3.370   7.269 -0.3027  0.7067 -0.5011
   93SAPS   H4X 9165   4.736   3.470   7.314  0.1729  0.1658  0.5605
   93SAPS   H4Y 9166   4.825   3.337   7.252  0.0395  1.2603  0.4951
   93SAPS   C35 9167   4.630   3.284   7.360 -0.0042 -0.2917  0.3330
   93SAPS   H5X 9168   4.640   3.180   7.321 -0.9011 -0.1694 -0.2499
   93SAPS   H5Y 9169   4.524   3.313   7.343 -0.4130 -2.3623 -1.0593
   93SAPS   C36 9170   4.673   3.289   7.510 -0.0941 -0.0932 -0.3203
   93SAPS   H6X 9171   4.724   3.387   7.521  1.3207 -0.8543  0.0661
   93SAPS   H6Y 9172   4.760   3.223   7.527  0.3037  0.9607  2.2141
   93SAPS   C37 9173   4.563   3.255   7.610  0.8344 -0.4884  0.1089
   93SAPS   H7X 9174   4.525   3.152   7.593 -1.8338  0.1068  1.8843
   93SAPS   H7Y 9175   4.474   3.320   7.620 -1.1507 -3.1712  1.2486
   93SAPS   C38 9176   4.614   3.253   7.752 -0.0210 -0.3240  0.0216
   93SAPS   H8X 9177   4.649   3.355   7.777  0.7462 -0.5286 -0.1781
   93SAPS   H8Y 9178   4.694   3.176   7.755  0.2502 -0.0642 -0.4567
   93SAPS   C39 9179   4.507   3.208   7.848 -0.1456  0.0350  0.2898
   93SAPS   H9X 9180   4.446   3.127   7.802  1.4057  0.2272 -2.3232
   93SAPS   H9Y 9181   4.441   3.291   7.879 -1.4624 -0.8480 -0.0648
   93SAPS  C310 9182   4.562   3.151   7.983 -0.2091  0.4401  0.6465
   93SAPS  H10X 9183   4.634   3.225   8.025 -1.3917  2.4100 -0.6211
   93SAPS  H10Y 9184   4.623   3.061   7.958  0.8026  1.5950 -1.3261
   93SAPS  C311 9185   4.453   3.114   8.088 -0.0170 -0.4704 -0.3056
   93SAPS  H11X 9186   4.372   3.067   8.029  0.4262 -0.8397 -0.6299
   93SAPS  H11Y 9187   4.418   3.215   8.120 -1.4052 -0.1234 -2.6759
   93SAPS  C312 9188   4.495   3.033   8.207  0.3861 -0.1798  0.2356
   93SAPS  H12X 9189   4.585   3.076   8.258  0.9434  2.1359 -2.4827
   93SAPS  H12Y 9190   4.515   2.927   8.182  0.2707 -0.1494  0.0168
   93SAPS  C313 9191   4.380   3.014   8.315  0.3187 -0.1899 -0.1430
   93SAPS  H13X 9192   4.291   2.985   8.256 -0.6199  0.6028  0.8418
   93SAPS  H13Y 9193   4.363   3.114   8.359  1.8318 -0.3695  0.9500
   93SAPS  C314 9194   4.419   2.909   8.412 -0.0323  0.1267 -1.0862
   93SAPS  H14X 9195   4.502   2.929   8.483  0.7070 -0.5384 -1.7364
   93SAPS  H14Y 9196   4.467   2.821   8.365  2.6199  0.0058  1.5274
   93SAPS  C315 9197   4.302   2.855   8.501 -0.3825  0.5101  0.0309
   93SAPS  H15X 9198   4.207   2.825   8.452  0.1516 -0.5158 -0.4099
   93SAPS  H15Y 9199   4.281   2.943   8.565 -1.2304 -1.0000  1.9581
   93SAPS  C316 9200   4.349   2.741   8.602 -0.2829 -0.0418  0.6086
   93SAPS  H16X 9201   4.457   2.749   8.627 -0.2377  1.8422 -0.0203
   93SAPS  H16Y 9202   4.334   2.650   8.541 -1.2739  0.0537  0.6951
   93SAPS  C317 9203   4.271   2.753   8.732 -0.1162  0.0837  0.0303
   93SAPS  H17X 9204   4.164   2.772   8.713  0.0674  0.3742 -0.7515
   93SAPS  H17Y 9205   4.314   2.829   8.802  3.3149 -1.4980 -0.1317
   93SAPS  C318 9206   4.280   2.621   8.807 -0.0147  0.0078  0.2025
   93SAPS  H18X 9207   4.372   2.568   8.774  0.2547  0.2833  0.5027
   93SAPS  H18Y 9208   4.201   2.547   8.783 -0.8713  1.4764 -1.7599
   93SAPS  H18Z 9209   4.275   2.636   8.917 -1.9028  1.5152 -0.0264
   94SAPS     N 9210   4.629   6.176   5.457  0.1109  0.2888  0.4238
   94SAPS   HN1 9211   4.526   6.175   5.464  0.1001 -0.7135  0.2484
   94SAPS   HN2 9212   4.654   6.256   5.518 -0.3441 -1.3926  2.9794
   94SAPS   HN3 9213   4.656   6.203   5.360 -1.5647 -0.3116 -0.2417
   94SAPS   C12 9214   4.670   6.045   5.509 -0.1284 -0.3696 -0.5137
   94SAPS  H12A 9215   4.595   5.975   5.475  0.2847 -1.1803  0.2190
   94SAPS   C13 9216   4.817   5.999   5.483  0.5879 -0.2027 -0.1068
   94SAPS  O13A 9217   4.879   6.066   5.400 -0.5244 -0.0677  0.1197
   94SAPS  O13B 9218   4.844   5.879   5.501  0.1961  0.0797  0.1198
   94SAPS   C11 9219   4.649   6.043   5.660 -0.9468  0.0096  0.3152
   94SAPS  H11A 9220   4.724   6.111   5.707 -0.6295  1.7269 -2.4704
   94SAPS  H11B 9221   4.679   5.941   5.690  1.3108  0.3212 -0.7332
   94SAPS     P 9222   4.428   6.006   5.802  0.3664  0.0982  0.1382
   94SAPS   O13 9223   4.305   6.085   5.827 -0.5463 -0.3191 -0.1801
   94SAPS   O14 9224   4.413   5.864   5.758  0.3260 -0.2963  0.2136
   94SAPS   O12 9225   4.522   6.085   5.706  0.4804  0.3835  0.5534
   94SAPS   O11 9226   4.517   6.001   5.932 -0.3686  0.3236  0.0127
   94SAPS    C1 9227   4.579   6.123   5.988 -0.9371  0.6674  0.2156
   94SAPS    HA 9228   4.687   6.121   5.965 -1.4701  2.6305 -3.0966
   94SAPS    HB 9229   4.543   6.209   5.928  0.3149  0.5537 -0.7417
   94SAPS    C2 9230   4.561   6.154   6.142 -0.4164  0.8116  0.5357
   94SAPS    HS 9231   4.607   6.250   6.172  1.1149 -0.4975  2.6099
   94SAPS   O21 9232   4.612   6.049   6.224 -0.0179  0.0140  0.7389
   94SAPS   C21 9233   4.745   6.048   6.231 -0.2645 -0.7098 -0.3800
   94SAPS   O22 9234   4.824   6.123   6.174 -0.4853 -0.0077  0.2258
   94SAPS   C22 9235   4.798   5.933   6.321  0.2492  0.8522 -0.0456
   94SAPS   H2R 9236   4.712   5.884   6.371  1.1123  0.2551  0.8946
   94SAPS   H2S 9237   4.855   5.854   6.268 -1.5352 -0.2765 -0.3610
   94SAPS    C3 9238   4.416   6.172   6.169 -0.1003 -0.3305  0.4749
   94SAPS    HX 9239   4.354   6.110   6.101  1.1738  0.1171 -1.1778
   94SAPS    HY 9240   4.390   6.276   6.139 -1.9325 -1.3119 -1.6574
   94SAPS   O31 9241   4.387   6.159   6.306  0.2789  0.1270 -0.1463
   94SAPS   C31 9242   4.347   6.043   6.358 -0.3843 -0.1401 -0.3974
   94SAPS   O32 9243   4.329   5.943   6.289 -0.4250 -0.0016 -0.2537
   94SAPS   C32 9244   4.323   6.054   6.511 -0.0364 -0.2938 -0.1444
   94SAPS   H2X 9245   4.323   6.161   6.542  1.3420 -0.9550  2.4790
   94SAPS   H2Y 9246   4.417   6.025   6.564 -1.6898  0.8360  3.7358
   94SAPS   C23 9247   4.897   5.993   6.425  0.4069 -0.6924  0.1543
   94SAPS   H3R 9248   4.953   6.074   6.374  0.0666 -0.2673  0.4523
   94SAPS   H3S 9249   4.979   5.919   6.440 -1.1485 -2.5402 -0.0138
   94SAPS   C24 9250   4.836   6.029   6.559 -0.0413 -0.1136  0.1672
   94SAPS   H4R 9251   4.763   5.953   6.593 -1.3235  1.0866  0.1452
   94SAPS   H4S 9252   4.780   6.125   6.554  0.3421  0.0762 -0.7323
   94SAPS   C25 9253   4.950   6.049   6.651 -0.4893  0.0724 -0.9774
   94SAPS   H5R 9254   5.042   6.089   6.606 -0.0247 -0.7023 -0.7337
   94SAPS   C26 9255   4.960   6.013   6.778  0.7282 -0.3154 -0.3828
   94SAPS   H6R 9256   5.054   6.020   6.836 -0.7462 -0.2289  2.1372
   94SAPS   C27 9257   4.847   5.965   6.867  0.1732  0.3383  0.0808
   94SAPS   H7R 9258   4.876   5.866   6.906  3.2826 -0.1500 -2.9887
   94SAPS   H7S 9259   4.757   5.950   6.803 -1.0262 -1.1645  2.0126
   94SAPS   C28 9260   4.803   6.063   6.979 -0.1209  1.0320  0.0425
   94SAPS   H8R 9261   4.745   6.152   6.949 -2.0829  0.0353  0.6541
   94SAPS   C29 9262   4.839   6.056   7.111  0.2676 -0.1711  0.3073
   94SAPS   H9R 9263   4.803   6.135   7.179  1.2874  0.8678 -0.3099
   94SAPS  C210 9264   4.924   5.961   7.186  0.7451 -0.1798 -0.5171
   94SAPS  H10R 9265   4.977   6.015   7.268 -0.8387 -1.0078  1.1484
   94SAPS  H10S 9266   5.003   5.906   7.131  0.9512 -0.4613  0.0461
   94SAPS  C211 9267   4.831   5.861   7.248  1.0077 -0.0302 -0.6853
   94SAPS  H11R 9268   4.807   5.775   7.183  2.4104 -0.0353 -1.2156
   94SAPS  C212 9269   4.774   5.876   7.374 -0.1200  0.9664  0.3437
   94SAPS  H12R 9270   4.711   5.793   7.409 -0.4586  0.3176 -1.6847
   94SAPS  C213 9271   4.805   5.988   7.465 -0.0603 -0.4480 -0.1377
   94SAPS  H13R 9272   4.787   6.088   7.419 -1.3358 -1.2228 -1.4018
   94SAPS  H13S 9273   4.916   5.997   7.476  0.0155 -1.0613 -0.4008
   94SAPS  C214 9274   4.735   5.970   7.597 -0.2623 -0.0345 -0.2961
   94SAPS  H14R 9275   4.802   5.944   7.680 -0.9627  0.6894  0.5275
   94SAPS  C215 9276   4.609   6.013   7.624 -0.4395  0.0919  0.9489
   94SAPS  H15R 9277   4.558   6.006   7.721  0.3269 -0.0819  1.3494
   94SAPS  C216 9278   4.510   6.069   7.522 -0.1414 -0.5995 -0.9608
   94SAPS  H16R 9279   4.555   6.082   7.421 -0.9241 -0.9851 -1.3713
   94SAPS  H16S 9280   4.483   6.171   7.558 -1.4417 -0.5691 -1.9476
   94SAPS  C217 9281   4.386   5.977   7.500 -0.1877 -0.1107 -0.5218
   94SAPS  H17R 9282   4.415   5.875   7.470  0.4450  0.1938 -0.9593
   94SAPS  H17S 9283   4.318   6.020   7.424  1.5621  1.2874 -1.3903
   94SAPS  C218 9284   4.291   5.971   7.627  0.6552  0.0182 -0.3820
   94SAPS  H18R 9285   4.282   6.076   7.662 -0.9973 -0.2632  0.0949
   94SAPS  H18S 9286   4.336   5.920   7.715 -0.3897  2.1071  1.4871
   94SAPS  C219 9287   4.143   5.909   7.596  0.7954 -1.0158 -0.2319
   94SAPS  H19R 9288   4.094   5.980   7.526 -1.6767 -0.9451  1.4280
   94SAPS  H19S 9289   4.087   5.911   7.693 -0.1359  0.3823 -0.7741
   94SAPS  C220 9290   4.140   5.774   7.536  0.0612  0.9755 -0.3254
   94SAPS  H20R 9291   4.184   5.695   7.600 -2.2582  0.2206  0.4551
   94SAPS  H20S 9292   4.185   5.771   7.435  1.3601  1.7835  0.2045
   94SAPS  H20T 9293   4.031   5.752   7.540  0.6832 -2.6817  2.2311
   94SAPS   C33 9294   4.198   5.975   6.564  0.2975  0.8409 -0.3729
   94SAPS   H3X 9295   4.211   5.869   6.534 -1.1654  0.6430 -0.3563
   94SAPS   H3Y 9296   4.110   6.012   6.507 -1.4777 -2.4063  0.0567
   94SAPS   C34 9297   4.177   6.010   6.712 -0.3292 -0.7679 -0.3869
   94SAPS   H4X 9298   4.188   6.116   6.743  0.5881 -1.3218  1.2955
   94SAPS   H4Y 9299   4.248   5.958   6.780  0.1150  1.1973  0.7336
   94SAPS   C35 9300   4.030   5.974   6.738 -0.1830 -0.0336 -0.7017
   94SAPS   H5X 9301   4.014   5.865   6.726 -2.1207 -0.2125  2.3862
   94SAPS   H5Y 9302   3.965   6.029   6.665 -0.5913  1.0140  0.4191
   94SAPS   C36 9303   3.974   6.034   6.869  0.6704  0.7197  0.3794
   94SAPS   H6X 9304   3.865   6.012   6.877  0.7745 -0.4988 -0.9466
   94SAPS   H6Y 9305   3.986   6.144   6.862  0.0133  0.7574 -0.3141
   94SAPS   C37 9306   4.043   5.980   6.992  0.1371 -0.5208 -0.4679
   94SAPS   H7X 9307   4.153   5.964   6.989  0.4449  1.3138  0.0573
   94SAPS   H7Y 9308   3.990   5.886   7.018 -1.5896  0.6173  0.2677
   94SAPS   C38 9309   4.030   6.078   7.109 -0.7826 -0.7960 -0.7439
   94SAPS   H8X 9310   4.105   6.159   7.092 -1.8059  0.1357 -0.9689
   94SAPS   H8Y 9311   4.054   6.022   7.202  0.3456 -0.9004 -1.0812
   94SAPS   C39 9312   3.895   6.147   7.130 -0.1534  0.0839  0.0747
   94SAPS   H9X 9313   3.825   6.063   7.148  0.7559 -1.0960 -1.6112
   94SAPS   H9Y 9314   3.863   6.205   7.040 -1.9054  0.4376  0.8920
   94SAPS  C310 9315   3.898   6.251   7.241 -0.2044 -0.2142 -0.7580
   94SAPS  H10X 9316   3.801   6.304   7.241  0.1836  0.5453 -2.4588
   94SAPS  H10Y 9317   3.973   6.329   7.216  1.2038 -1.4048 -0.4295
   94SAPS  C311 9318   3.915   6.198   7.387 -0.1931 -0.2703  0.4149
   94SAPS  H11X 9319   4.021   6.166   7.397 -0.4389 -0.8941  1.1335
   94SAPS  H11Y 9320   3.842   6.113   7.388 -0.6027  0.0708 -0.0318
   94SAPS  C312 9321   3.882   6.294   7.496  1.0628 -0.0233  0.2376
   94SAPS  H12X 9322   3.771   6.303   7.501  0.8243 -1.1907 -1.9814
   94SAPS  H12Y 9323   3.920   6.395   7.471 -1.3197  0.9389  0.1909
   94SAPS  C313 9324   3.924   6.252   7.631  0.6191  0.5284  0.4217
   94SAPS  H13X 9325   3.922   6.344   7.693  1.7187  1.1307 -0.3948
   94SAPS  H13Y 9326   4.029   6.218   7.641  0.7829  1.0084  0.3351
   94SAPS  C314 9327   3.820   6.150   7.688 -0.2034  0.0680 -0.3247
   94SAPS  H14X 9328   3.851   6.054   7.642 -1.7251  0.5794 -2.6306
   94SAPS  H14Y 9329   3.715   6.184   7.676 -0.4782 -0.2256  1.1670
   94SAPS  C315 9330   3.831   6.140   7.841  0.0104 -0.6290  0.2042
   94SAPS  H15X 9331   3.934   6.108   7.870  0.3827 -0.5000 -0.9346
   94SAPS  H15Y 9332   3.778   6.050   7.878 -0.7176 -0.5079 -0.5421
   94SAPS  C316 9333   3.785   6.271   7.909  0.4474  0.3676 -0.1211
   94SAPS  H16X 9334   3.701   6.323   7.858 -0.6528 -1.1227  0.1075
   94SAPS  H16Y 9335   3.865   6.347   7.899 -0.7176  1.8042  0.9808
   94SAPS  C317 9336   3.743   6.256   8.053  0.0109  1.1013  0.6130
   94SAPS  H17X 9337   3.685   6.163   8.062 -1.1131  1.7684  0.4234
   94SAPS  H17Y 9338   3.682   6.342   8.087 -1.7559  0.2134 -0.2277
   94SAPS  C318 9339   3.858   6.255   8.151  0.0012 -0.9731  0.3305
   94SAPS  H18X 9340   3.905   6.155   8.162  2.1026 -0.0121  0.5765
   94SAPS  H18Y 9341   3.810   6.265   8.251 -0.5420  0.8171 -0.0814
   94SAPS  H18Z 9342   3.938   6.328   8.127 -1.1263 -0.4264 -2.0377
   95SAPS     N 9343   0.541   2.299   5.861  0.4123  0.2497 -0.4799
   95SAPS   HN1 9344   0.453   2.244   5.872  1.2896 -1.2958 -0.8323
   95SAPS   HN2 9345   0.563   2.292   5.760 -0.5035 -1.9743 -0.5815
   95SAPS   HN3 9346   0.621   2.251   5.906  1.9510  0.0580 -3.2304
   95SAPS   C12 9347   0.528   2.438   5.900 -0.2058 -0.2089  0.0526
   95SAPS  H12A 9348   0.584   2.448   5.992 -0.2794 -0.8133  0.1642
   95SAPS   C13 9349   0.586   2.522   5.794  0.6997 -0.2481  0.3196
   95SAPS  O13A 9350   0.601   2.479   5.676 -0.0226 -0.2321 -0.7346
   95SAPS  O13B 9351   0.589   2.653   5.812 -0.3381  0.2359 -0.0123
   95SAPS   C11 9352   0.381   2.480   5.938 -0.3208 -0.1180 -0.4222
   95SAPS  H11A 9353   0.308   2.431   5.871 -1.1104 -1.1180  1.1046
   95SAPS  H11B 9354   0.360   2.589   5.937 -0.3649 -0.0727  1.6696
   95SAPS     P 9355   0.275   2.298   6.101  0.0965 -0.1651 -0.1020
   95SAPS   O13 9356   0.130   2.323   6.107  0.7246  0.6969  0.2661
   95SAPS   O14 9357   0.319   2.200   6.002  0.0237 -0.6293  0.4758
   95SAPS   O12 9358   0.347   2.437   6.073 -0.3584 -0.2610 -0.0045
   95SAPS   O11 9359   0.314   2.257   6.248 -0.1283  0.7383  0.6088
   95SAPS    C1 9360   0.405   2.347   6.322 -0.8834  0.1689 -0.4379
   95SAPS    HA 9361   0.508   2.353   6.280  0.2274 -2.4111  1.6288
   95SAPS    HB 9362   0.355   2.446   6.330  1.6543  1.5423 -0.6751
   95SAPS    C2 9363   0.439   2.294   6.465  0.0651 -0.4264 -0.1241
   95SAPS    HS 9364   0.538   2.333   6.499 -0.7147  1.6839 -0.1187
   95SAPS   O21 9365   0.442   2.154   6.476  0.1754  0.6051 -0.7907
   95SAPS   C21 9366   0.543   2.086   6.433  0.4845 -0.8663  0.8026
   95SAPS   O22 9367   0.643   2.141   6.386  0.3787  0.1544  0.5819
   95SAPS   C22 9368   0.518   1.935   6.465 -0.0729 -0.3046 -0.2896
   95SAPS   H2R 9369   0.465   1.920   6.561  1.9044  1.4305  1.1542
   95SAPS   H2S 9370   0.458   1.901   6.377 -1.5232  4.0172 -1.2283
   95SAPS    C3 9371   0.339   2.349   6.569 -0.2095  0.1051  0.0378
   95SAPS    HX 9372   0.240   2.308   6.538  0.2193  0.9429 -2.7225
   95SAPS    HY 9373   0.316   2.457   6.560 -3.0483 -0.5384 -2.2896
   95SAPS   O31 9374   0.364   2.301   6.697 -0.2745  0.0701  0.0684
   95SAPS   C31 9375   0.440   2.385   6.775 -0.3883 -0.0553  0.1804
   95SAPS   O32 9376   0.482   2.495   6.739  0.9520  0.0960  0.0164
   95SAPS   C32 9377   0.489   2.321   6.904 -0.0138  0.0505  0.3846
   95SAPS   H2X 9378   0.583   2.267   6.879  0.4176  1.4953 -1.3204
   95SAPS   H2Y 9379   0.407   2.258   6.946  0.0967  0.4008  1.1447
   95SAPS   C23 9380   0.644   1.858   6.468 -0.2363  0.1766 -0.1388
   95SAPS   H3R 9381   0.720   1.910   6.531  3.2149 -2.2192 -1.9838
   95SAPS   H3S 9382   0.683   1.854   6.364  0.6241  0.6979  0.1477
   95SAPS   C24 9383   0.615   1.719   6.526 -0.4107  0.4342  0.5894
   95SAPS   H4R 9384   0.544   1.677   6.452  1.7156 -0.3644 -1.1266
   95SAPS   H4S 9385   0.568   1.730   6.626  0.3837  3.2399  0.7375
   95SAPS   C25 9386   0.747   1.635   6.529  0.5520  0.0035  0.4308
   95SAPS   H5R 9387   0.782   1.616   6.426  0.2523 -0.5403  0.4271
   95SAPS   C26 9388   0.807   1.584   6.637 -0.1085 -0.2607 -0.0945
   95SAPS   H6R 9389   0.894   1.518   6.626 -0.1569 -0.4050  0.3621
   95SAPS   C27 9390   0.759   1.599   6.778 -0.6072 -0.4697 -0.1018
   95SAPS   H7R 9391   0.819   1.528   6.839  1.5393  0.3109 -1.2165
   95SAPS   H7S 9392   0.650   1.590   6.798 -0.6973  3.5340  2.2365
   95SAPS   C28 9393   0.791   1.739   6.827  0.0791  0.0479  0.1469
   95SAPS   H8R 9394   0.870   1.795   6.775 -1.4465  3.1642  0.9477
   95SAPS   C29 9395   0.740   1.791   6.947  0.3822 -0.5893  0.6272
   95SAPS   H9R 9396   0.770   1.889   6.987 -0.2613  0.9941 -2.4907
   95SAPS  C210 9397   0.627   1.734   7.026 -0.3651  0.4279 -0.5137
   95SAPS  H10R 9398   0.649   1.763   7.131 -0.4885 -1.3727  0.0451
   95SAPS  H10S 9399   0.623   1.624   7.018  0.9001  0.4169 -1.2083
   95SAPS  C211 9400   0.512   1.818   6.982 -0.0098 -0.4285  0.2946
   95SAPS  H11R 9401   0.473   1.799   6.881  0.0731 -2.4702  0.6055
   95SAPS  C212 9402   0.455   1.924   7.047  0.3164 -0.2950  0.0552
   95SAPS  H12R 9403   0.373   1.980   7.000  0.2553  1.8599  2.5008
   95SAPS  C213 9404   0.477   1.957   7.196 -0.6648 -0.3842 -0.6448
   95SAPS  H13R 9405   0.531   2.053   7.206 -2.0511  0.2297  1.5539
   95SAPS  H13S 9406   0.532   1.871   7.241  0.2597 -0.3994 -1.7369
   95SAPS  C214 9407   0.342   1.978   7.260  0.4393 -0.1394  0.6454
   95SAPS  H14R 9408   0.273   2.016   7.183 -0.0132 -1.7110  0.2493
   95SAPS  C215 9409   0.292   1.957   7.387  0.7993 -0.6942  0.7883
   95SAPS  H15R 9410   0.188   1.983   7.411  0.9499  1.3915 -0.5476
   95SAPS  C216 9411   0.369   1.893   7.496  0.2614 -0.1017 -0.1544
   95SAPS  H16R 9412   0.477   1.913   7.479 -0.2337  1.7012 -1.5449
   95SAPS  H16S 9413   0.363   1.782   7.491 -0.9897 -0.0007 -2.6286
   95SAPS  C217 9414   0.326   1.953   7.633  0.3545  0.6862  0.0588
   95SAPS  H17R 9415   0.221   1.928   7.658  0.6205  0.5709  1.1016
   95SAPS  H17S 9416   0.344   2.063   7.631  1.6402  0.5922  2.4118
   95SAPS  C218 9417   0.409   1.895   7.748  0.1810  0.5416 -0.4159
   95SAPS  H18R 9418   0.509   1.944   7.739  0.5622 -0.0160  0.6023
   95SAPS  H18S 9419   0.430   1.786   7.743  3.0115  1.0571 -4.0036
   95SAPS  C219 9420   0.344   1.923   7.891 -1.3408  0.8874 -0.1490
   95SAPS  H19R 9421   0.237   1.893   7.882 -0.4554 -2.0839 -2.6914
   95SAPS  H19S 9422   0.339   2.032   7.913 -0.9462  0.5951  1.4902
   95SAPS  C220 9423   0.429   1.863   8.003  0.3178  0.1954 -0.3154
   95SAPS  H20R 9424   0.384   1.893   8.100 -1.8106  2.0097 -1.7725
   95SAPS  H20S 9425   0.538   1.883   7.989  0.1197  1.8660  0.3036
   95SAPS  H20T 9426   0.432   1.752   7.995  0.2937  0.0949  0.8964
   95SAPS   C33 9427   0.527   2.422   7.010  0.2017  0.5516 -0.6651
   95SAPS   H3X 9428   0.428   2.463   7.040 -1.9708 -3.0957 -2.1667
   95SAPS   H3Y 9429   0.606   2.494   6.980  1.5418  0.5531  2.4648
   95SAPS   C34 9430   0.584   2.335   7.128 -0.1955  0.6372  0.6047
   95SAPS   H4X 9431   0.694   2.321   7.121 -0.3227  0.1516 -0.5534
   95SAPS   H4Y 9432   0.546   2.232   7.120  1.3958 -0.0693  1.5934
   95SAPS   C35 9433   0.559   2.401   7.262  0.3236  0.5872  0.1551
   95SAPS   H5X 9434   0.450   2.418   7.275  0.6598  2.6279  0.5480
   95SAPS   H5Y 9435   0.616   2.495   7.271 -0.7723  1.4390 -1.3701
   95SAPS   C36 9436   0.603   2.307   7.379 -0.0866  0.5175 -0.2694
   95SAPS   H6X 9437   0.709   2.277   7.376 -0.4363 -1.2495  2.1712
   95SAPS   H6Y 9438   0.550   2.211   7.400  1.0250  0.5320  3.2989
   95SAPS   C37 9439   0.594   2.377   7.516  0.0260 -0.2726  0.1930
   95SAPS   H7X 9440   0.491   2.416   7.526 -0.0219 -0.6774  1.4330
   95SAPS   H7Y 9441   0.672   2.456   7.518 -0.2374  0.1388 -2.4357
   95SAPS   C38 9442   0.621   2.286   7.630 -0.0577  0.1966 -0.3765
   95SAPS   H8X 9443   0.710   2.221   7.615  1.1174  1.8249 -0.7851
   95SAPS   H8Y 9444   0.538   2.212   7.638  2.0464 -2.4463 -1.2438
   95SAPS   C39 9445   0.636   2.349   7.771  0.6440  0.4362 -0.0018
   95SAPS   H9X 9446   0.554   2.422   7.788  1.4632  1.6860 -1.1827
   95SAPS   H9Y 9447   0.732   2.406   7.765  0.3081  0.9657 -0.4380
   95SAPS  C310 9448   0.634   2.250   7.884 -0.1874  0.4683  0.1071
   95SAPS  H10X 9449   0.715   2.177   7.863 -1.4137 -1.2683  1.0685
   95SAPS  H10Y 9450   0.541   2.191   7.898  0.2390 -0.0749  0.7479
   95SAPS  C311 9451   0.666   2.306   8.020 -0.7730  0.3433 -0.6265
   95SAPS  H11X 9452   0.776   2.321   8.027 -0.7823  0.0279  0.3083
   95SAPS  H11Y 9453   0.639   2.217   8.081  1.2671 -0.8597 -1.3829
   95SAPS  C312 9454   0.594   2.448   8.059 -0.5201 -0.4014 -0.3204
   95SAPS  H12X 9455   0.485   2.428   8.067 -0.5378 -0.3573 -0.4435
   95SAPS  H12Y 9456   0.622   2.523   7.981  0.2370  0.1868  0.4924
   95SAPS  C313 9457   0.620   2.510   8.199  0.7345 -0.2724 -0.6937
   95SAPS  H13X 9458   0.730   2.524   8.206  0.7316 -0.8537  0.9094
   95SAPS  H13Y 9459   0.608   2.429   8.275 -1.2724  0.4965 -0.1230
   95SAPS  C314 9460   0.527   2.630   8.236  0.4186  0.4172 -0.3218
   95SAPS  H14X 9461   0.419   2.616   8.215  0.1851  0.4015  0.8205
   95SAPS  H14Y 9462   0.556   2.710   8.165 -1.6176  1.3663 -0.1444
   95SAPS  C315 9463   0.537   2.681   8.384 -0.2344 -0.6066 -0.4388
   95SAPS  H15X 9464   0.520   2.602   8.460 -2.6442 -0.5896 -0.8884
   95SAPS  H15Y 9465   0.471   2.768   8.400  1.3858  0.5613  0.1861
   95SAPS  C316 9466   0.686   2.731   8.416  0.3520  0.1755 -0.1529
   95SAPS  H16X 9467   0.708   2.822   8.356  1.4893  0.5145  0.7337
   95SAPS  H16Y 9468   0.758   2.651   8.390  0.3331 -0.3926  1.4387
   95SAPS  C317 9469   0.716   2.767   8.555 -0.3431 -0.1115 -0.2057
   95SAPS  H17X 9470   0.674   2.694   8.628 -2.8695  0.3060 -1.1534
   95SAPS  H17Y 9471   0.656   2.858   8.575 -0.9078 -1.2216  4.5383
   95SAPS  C318 9472   0.869   2.791   8.574  0.6789  0.8528 -0.2886
   95SAPS  H18X 9473   0.924   2.696   8.588 -1.6782 -0.4326  0.7334
   95SAPS  H18Y 9474   0.884   2.839   8.674 -3.7553  0.2662  0.8754
   95SAPS  H18Z 9475   0.912   2.854   8.493 -4.7906  2.4407 -2.4040
   96SAPS     N 9476   0.987   2.151   5.742  0.3606  0.0141  0.1322
   96SAPS   HN1 9477   1.073   2.202   5.715 -0.7790  1.0319 -1.8429
   96SAPS   HN2 9478   1.008   2.051   5.760 -3.2567 -0.5917  1.8498
   96SAPS   HN3 9479   0.915   2.153   5.666  1.6620 -0.5743 -1.1635
   96SAPS   C12 9480   0.945   2.208   5.866  0.0960 -0.4944 -0.3339
   96SAPS  H12A 9481   0.924   2.310   5.836  1.5406  0.5047  1.8006
   96SAPS   C13 9482   0.820   2.131   5.919 -0.2736 -0.5419  0.5285
   96SAPS  O13A 9483   0.788   2.021   5.875  0.1320  0.0355  0.0046
   96SAPS  O13B 9484   0.737   2.191   6.000 -0.0608 -0.5762  0.3442
   96SAPS   C11 9485   1.061   2.221   5.971 -0.6881 -0.1365 -0.9805
   96SAPS  H11A 9486   1.106   2.120   5.982 -0.0489  0.3230  1.3314
   96SAPS  H11B 9487   1.023   2.252   6.071  1.9641  0.0871  0.0375
   96SAPS     P 9488   1.174   2.459   5.928  0.0766  0.2415  0.5245
   96SAPS   O13 9489   1.306   2.502   5.882  0.1463 -0.0927  0.2086
   96SAPS   O14 9490   1.054   2.522   5.871 -0.3272  0.2295  0.1676
   96SAPS   O12 9491   1.168   2.299   5.921 -0.7781  0.6609 -0.1026
   96SAPS   O11 9492   1.161   2.475   6.077 -0.0769  0.2303 -0.1368
   96SAPS    C1 9493   1.268   2.426   6.162  0.2268 -0.0926 -0.3754
   96SAPS    HA 9494   1.250   2.320   6.190  0.3983 -0.3636 -1.2318
   96SAPS    HB 9495   1.370   2.438   6.120  0.8334 -2.1756  0.3785
   96SAPS    C2 9496   1.273   2.509   6.290  0.1191 -0.5175  0.0302
   96SAPS    HS 9497   1.361   2.479   6.349 -0.0385 -2.4887 -0.6671
   96SAPS   O21 9498   1.156   2.496   6.373 -0.0940  0.7793 -0.2684
   96SAPS   C21 9499   1.154   2.378   6.441 -0.1857  0.0830  0.1030
   96SAPS   O22 9500   1.237   2.291   6.450  0.3927  0.1144 -0.5207
   96SAPS   C22 9501   1.018   2.378   6.510  0.0832  0.2455  0.5405
   96SAPS   H2R 9502   1.027   2.447   6.597 -2.1098  1.1211  0.1325
   96SAPS   H2S 9503   0.941   2.411   6.436 -2.4471  1.0457  3.3179
   96SAPS    C3 9504   1.305   2.654   6.258  0.8383  0.8654  0.0788
   96SAPS    HX 9505   1.220   2.696   6.201  0.9916  1.7792  0.5216
   96SAPS    HY 9506   1.397   2.661   6.195  0.5692 -0.0683 -0.4441
   96SAPS   O31 9507   1.335   2.725   6.381 -0.2434  0.7218  0.3734
   96SAPS   C31 9508   1.243   2.814   6.416 -0.3946 -0.4449  0.1380
   96SAPS   O32 9509   1.152   2.855   6.344 -0.3970 -0.1865 -0.8839
   96SAPS   C32 9510   1.288   2.864   6.552  0.0829 -0.8666  0.1671
   96SAPS   H2X 9511   1.356   2.952   6.544 -1.1374  0.2480  1.4538
   96SAPS   H2Y 9512   1.329   2.781   6.613  1.1161  0.3536  1.1979
   96SAPS   C23 9513   0.991   2.247   6.572 -0.2056  0.5400  0.2347
   96SAPS   H3R 9514   1.065   2.218   6.649 -0.9573 -0.7462  0.4959
   96SAPS   H3S 9515   0.989   2.162   6.500 -0.3500  0.6616  0.0949
   96SAPS   C24 9516   0.857   2.245   6.646 -0.3715 -0.3675  0.3201
   96SAPS   H4R 9517   0.845   2.134   6.653  4.4438 -1.2656 -1.8024
   96SAPS   H4S 9518   0.772   2.283   6.585 -1.0592 -0.1680  1.3719
   96SAPS   C25 9519   0.870   2.327   6.775 -0.2164 -0.4579  0.4164
   96SAPS   H5R 9520   0.864   2.436   6.764  0.4731 -0.5373 -0.8944
   96SAPS   C26 9521   0.891   2.287   6.907  0.5051 -0.7646  0.8126
   96SAPS   H6R 9522   0.895   2.371   6.979 -2.3367  1.1353 -1.0347
   96SAPS   C27 9523   0.889   2.144   6.948 -0.8319  0.4994 -0.1964
   96SAPS   H7R 9524   0.898   2.072   6.863  1.7420 -0.8475  1.1119
   96SAPS   H7S 9525   0.793   2.133   7.004  0.1221  2.3241  1.9520
   96SAPS   C28 9526   1.008   2.115   7.038  0.7737  0.6715  0.1814
   96SAPS   H8R 9527   1.110   2.108   6.995  0.2423 -3.3195 -0.8379
   96SAPS   C29 9528   0.994   2.076   7.165  0.1713  0.0195 -0.0109
   96SAPS   H9R 9529   1.085   2.061   7.224 -0.1298 -1.7986  0.0378
   96SAPS  C210 9530   0.874   2.057   7.247 -0.0146 -0.3742 -0.9676
   96SAPS  H10R 9531   0.781   2.090   7.196  0.8741  0.8790 -1.8540
   96SAPS  H10S 9532   0.877   2.115   7.342 -3.0871 -0.9421 -0.4114
   96SAPS  C211 9533   0.856   1.918   7.297 -0.2031 -0.8028  0.4108
   96SAPS  H11R 9534   0.842   1.848   7.214  1.4035  0.5911 -1.1267
   96SAPS  C212 9535   0.819   1.876   7.421 -0.0780 -0.6406  0.4397
   96SAPS  H12R 9536   0.809   1.766   7.424 -0.1489 -0.6462  0.0499
   96SAPS  C213 9537   0.811   1.944   7.551  0.1759 -0.4560  0.0173
   96SAPS  H13R 9538   0.749   1.880   7.618  1.6610 -1.2144  0.7333
   96SAPS  H13S 9539   0.741   2.030   7.554  0.2757 -0.3936  0.8910
   96SAPS  C214 9540   0.933   1.990   7.624  0.2491  1.5302 -0.9411
   96SAPS  H14R 9541   1.002   2.038   7.553  0.0559  3.0107 -0.1836
   96SAPS  C215 9542   0.979   1.984   7.749 -0.0175 -0.0347  0.7838
   96SAPS  H15R 9543   1.074   2.032   7.776  0.4274 -0.1285 -0.5318
   96SAPS  C216 9544   0.904   1.910   7.863  0.2568 -0.0961 -0.3039
   96SAPS  H16R 9545   0.931   1.804   7.886 -2.1930 -0.9611 -0.9870
   96SAPS  H16S 9546   0.798   1.902   7.828  0.7863 -2.3416 -1.6023
   96SAPS  C217 9547   0.904   1.991   7.995 -0.2153 -0.5094 -0.2081
   96SAPS  H17R 9548   0.896   2.099   7.974 -0.0740 -0.4509  0.0316
   96SAPS  H17S 9549   0.993   1.973   8.059  0.2213 -0.2987 -0.7565
   96SAPS  C218 9550   0.791   1.946   8.093 -0.2721 -0.1823 -0.2177
   96SAPS  H18R 9551   0.775   1.836   8.092 -0.2684 -0.1816 -0.5740
   96SAPS  H18S 9552   0.696   1.993   8.059 -0.1542 -0.1503 -0.5025
   96SAPS  C219 9553   0.828   1.973   8.245 -0.1201 -0.5781 -0.2893
   96SAPS  H19R 9554   0.916   1.913   8.276 -1.0914 -1.0440  1.7575
   96SAPS  H19S 9555   0.739   1.937   8.302 -1.8212  2.3460 -0.8614
   96SAPS  C220 9556   0.851   2.117   8.282  0.1900  0.3061  0.2809
   96SAPS  H20R 9557   0.762   2.184   8.288  0.7742  1.1678 -0.4701
   96SAPS  H20S 9558   0.915   2.163   8.204 -0.5924 -1.6070 -1.5876
   96SAPS  H20T 9559   0.894   2.129   8.384  2.1921  1.6114 -0.6615
   96SAPS   C33 9560   1.172   2.928   6.627  1.0025 -0.2163 -0.2736
   96SAPS   H3X 9561   1.094   2.852   6.645  0.4730  0.5088  0.5876
   96SAPS   H3Y 9562   1.123   3.002   6.561  1.7643  0.8025  0.2738
   96SAPS   C34 9563   1.206   2.992   6.763  0.0839 -0.2268  0.5401
   96SAPS   H4X 9564   1.120   3.057   6.789 -0.8046 -0.3367 -1.9148
   96SAPS   H4Y 9565   1.290   3.065   6.768 -0.8047  0.8090  0.7213
   96SAPS   C35 9566   1.219   2.880   6.870  0.1407 -0.0508  0.0144
   96SAPS   H5X 9567   1.314   2.826   6.853  0.3552  0.4768 -0.4961
   96SAPS   H5Y 9568   1.139   2.803   6.876  0.8313 -0.7255  0.6006
   96SAPS   C36 9569   1.229   2.954   7.002 -0.1806 -0.0547 -0.1267
   96SAPS   H6X 9570   1.131   2.992   7.037 -0.9564 -3.0798  1.3120
   96SAPS   H6Y 9571   1.292   3.046   7.005  0.4009 -0.4565  2.4496
   96SAPS   C37 9572   1.255   2.861   7.128  0.7060 -0.9387 -0.3215
   96SAPS   H7X 9573   1.346   2.801   7.105  1.1259 -0.7467  0.7719
   96SAPS   H7Y 9574   1.173   2.786   7.136  0.9077 -1.2641 -1.1266
   96SAPS   C38 9575   1.292   2.943   7.252 -0.0460  0.1368  0.4709
   96SAPS   H8X 9576   1.206   2.999   7.294  0.6415  1.5914  0.0176
   96SAPS   H8Y 9577   1.358   3.026   7.219  0.0374  0.1702  0.7206
   96SAPS   C39 9578   1.375   2.865   7.350 -0.6176  0.9568  0.3623
   96SAPS   H9X 9579   1.475   2.845   7.305 -0.7169  2.4309 -0.5839
   96SAPS   H9Y 9580   1.330   2.767   7.376  0.9621  0.7197  2.5462
   96SAPS  C310 9581   1.415   2.949   7.473  0.4004  0.3079 -0.2186
   96SAPS  H10X 9582   1.434   3.057   7.451  0.2381 -0.0348 -2.2578
   96SAPS  H10Y 9583   1.508   2.907   7.516  0.1285 -0.0029  0.0728
   96SAPS  C311 9584   1.309   2.941   7.587 -0.3797 -0.2050  0.2606
   96SAPS  H11X 9585   1.301   2.838   7.626 -1.0868 -0.0001  0.6986
   96SAPS  H11Y 9586   1.205   2.965   7.555  0.7935  3.0635 -1.5720
   96SAPS  C312 9587   1.349   3.035   7.706 -0.7818  0.8144  0.2965
   96SAPS  H12X 9588   1.354   3.141   7.670 -0.0555  1.3692  1.9575
   96SAPS  H12Y 9589   1.451   3.005   7.737 -1.0606  1.0590  1.4897
   96SAPS  C313 9590   1.262   3.033   7.832  0.1585  0.1526  0.4590
   96SAPS  H13X 9591   1.289   2.932   7.872 -0.8865 -0.6191 -0.7251
   96SAPS  H13Y 9592   1.153   3.031   7.811  0.0616  1.3169  0.7724
   96SAPS  C314 9593   1.289   3.150   7.929  0.0666 -0.0994  0.9947
   96SAPS  H14X 9594   1.191   3.177   7.974 -1.0660 -0.1084 -1.3419
   96SAPS  H14Y 9595   1.317   3.247   7.883 -0.5319 -0.0156  0.7906
   96SAPS  C315 9596   1.383   3.115   8.045 -0.1535 -0.7241  0.1905
   96SAPS  H15X 9597   1.477   3.095   7.989  1.0940  2.7857  0.7536
   96SAPS  H15Y 9598   1.348   3.030   8.107 -2.2722 -0.4056 -0.5103
   96SAPS  C316 9599   1.432   3.237   8.123  0.0895  0.4512 -0.1370
   96SAPS  H16X 9600   1.341   3.288   8.161  0.6519  0.7670  0.8260
   96SAPS  H16Y 9601   1.477   3.301   8.044  0.0070  2.4792  1.3827
   96SAPS  C317 9602   1.531   3.209   8.233  0.0631 -0.0878  0.4305
   96SAPS  H17X 9603   1.609   3.135   8.203  0.9184  0.4465  1.2799
   96SAPS  H17Y 9604   1.464   3.180   8.317 -1.3166  2.2036  0.2082
   96SAPS  C318 9605   1.608   3.337   8.273  0.5531  0.6430 -1.1637
   96SAPS  H18X 9606   1.652   3.328   8.375 -0.3409  0.7644 -0.7639
   96SAPS  H18Y 9607   1.531   3.417   8.274  1.6425  1.7184 -0.5717
   96SAPS  H18Z 9608   1.692   3.349   8.202  0.0523 -1.1040 -2.1102
   97SAPS     N 9609   2.081   1.630   6.111  0.6511  0.4390 -0.6932
   97SAPS   HN1 9610   2.093   1.535   6.151 -1.1993 -1.1130 -3.4684
   97SAPS   HN2 9611   2.057   1.709   6.174 -1.4045  0.0633 -0.9457
   97SAPS   HN3 9612   2.005   1.617   6.042 -0.5691 -0.8506  0.8115
   97SAPS   C12 9613   2.198   1.661   6.032  0.3285  0.5927 -0.2828
   97SAPS  H12A 9614   2.197   1.578   5.963 -0.1039 -0.8101  1.3619
   97SAPS   C13 9615   2.192   1.786   5.933 -0.4591 -0.0194 -0.4554
   97SAPS  O13A 9616   2.093   1.865   5.935 -0.1081  0.1015 -0.0711
   97SAPS  O13B 9617   2.300   1.820   5.875  0.9544  0.0187  0.3692
   97SAPS   C11 9618   2.323   1.677   6.126 -0.1464 -0.0504 -1.8066
   97SAPS  H11A 9619   2.294   1.764   6.190 -2.2996 -1.8529 -0.1655
   97SAPS  H11B 9620   2.420   1.690   6.073  0.8854 -0.1382 -0.0158
   97SAPS     P 9621   2.441   1.594   6.339 -0.1735  0.0969 -0.1259
   97SAPS   O13 9622   2.531   1.477   6.348  0.1465 -0.3789  0.2554
   97SAPS   O14 9623   2.497   1.729   6.332 -0.3507 -0.5549 -0.2335
   97SAPS   O12 9624   2.331   1.574   6.223 -0.3130  0.3300 -0.3949
   97SAPS   O11 9625   2.347   1.585   6.466  0.1200 -0.5006  0.3802
   97SAPS    C1 9626   2.207   1.556   6.470  0.3098 -0.2789 -0.3568
   97SAPS    HA 9627   2.161   1.621   6.392  1.2583  0.8161 -0.0359
   97SAPS    HB 9628   2.188   1.447   6.462  1.0985 -0.5443  1.0015
   97SAPS    C2 9629   2.138   1.595   6.607 -0.0170  0.2940  0.6219
   97SAPS    HS 9630   2.173   1.700   6.612  0.6729  0.4463 -3.4717
   97SAPS   O21 9631   2.193   1.509   6.706 -0.3864 -0.5547  0.6074
   97SAPS   C21 9632   2.178   1.566   6.823  0.9066  0.1864  0.3139
   97SAPS   O22 9633   2.139   1.681   6.843  0.3372 -0.7256 -0.3305
   97SAPS   C22 9634   2.227   1.475   6.932  0.0877  0.0175  0.8141
   97SAPS   H2R 9635   2.252   1.377   6.885 -0.8000  0.6109 -1.0007
   97SAPS   H2S 9636   2.316   1.527   6.974  1.7830 -0.5481 -1.8299
   97SAPS    C3 9637   1.988   1.583   6.587 -0.3565  0.7569 -0.0244
   97SAPS    HX 9638   1.982   1.482   6.542  0.8803 -0.1142  1.6513
   97SAPS    HY 9639   1.952   1.656   6.511 -0.6285 -0.3601 -1.0049
   97SAPS   O31 9640   1.915   1.570   6.710  0.4046 -0.4936  0.6014
   97SAPS   C31 9641   1.793   1.623   6.705 -0.0233 -0.0690  0.1873
   97SAPS   O32 9642   1.731   1.674   6.617 -0.3946  0.0424  0.5935
   97SAPS   C32 9643   1.744   1.612   6.851 -0.8829 -0.0193 -0.3143
   97SAPS   H2X 9644   1.737   1.717   6.887 -1.2959  0.4935 -1.8186
   97SAPS   H2Y 9645   1.821   1.578   6.923  0.3031  1.6642 -0.7181
   97SAPS   C23 9646   2.112   1.448   7.034  0.1796  0.9705  0.1438
   97SAPS   H3R 9647   2.151   1.360   7.090  0.5087  0.9775 -0.0708
   97SAPS   H3S 9648   2.013   1.427   6.988  0.5062 -0.3202  0.0020
   97SAPS   C24 9649   2.085   1.547   7.153 -0.0249  0.4723 -0.3820
   97SAPS   H4R 9650   2.074   1.647   7.107  2.2365  1.1404  0.3750
   97SAPS   H4S 9651   2.177   1.560   7.215 -1.2884  0.8618  1.4781
   97SAPS   C25 9652   1.972   1.510   7.245 -0.1567  1.1739  1.8258
   97SAPS   H5R 9653   1.889   1.471   7.184  0.8656  0.0034  1.1408
   97SAPS   C26 9654   1.956   1.515   7.379  0.0123  0.2985 -0.4462
   97SAPS   H6R 9655   1.861   1.492   7.430  0.3218  0.0208  0.0155
   97SAPS   C27 9656   2.064   1.565   7.471 -0.3428  0.8444 -0.4574
   97SAPS   H7R 9657   2.028   1.621   7.560  0.6897  0.2335  0.3728
   97SAPS   H7S 9658   2.131   1.641   7.425  0.7817  0.4242  0.4408
   97SAPS   C28 9659   2.147   1.449   7.520 -0.3925  0.0804 -0.2129
   97SAPS   H8R 9660   2.188   1.384   7.441  0.4758 -0.8699  0.9738
   97SAPS   C29 9661   2.145   1.401   7.650  0.6124 -0.4128 -0.4953
   97SAPS   H9R 9662   2.183   1.300   7.669 -0.6034 -0.9380 -0.7754
   97SAPS  C210 9663   2.074   1.467   7.770 -0.3526  0.4486  0.0726
   97SAPS  H10R 9664   1.998   1.392   7.798  1.6506 -1.0824  1.8034
   97SAPS  H10S 9665   2.010   1.554   7.743  1.4675  2.5784  2.1017
   97SAPS  C211 9666   2.158   1.509   7.892 -0.6409 -0.1217  0.8071
   97SAPS  H11R 9667   2.253   1.454   7.903 -1.0991 -0.6841  2.1212
   97SAPS  C212 9668   2.125   1.598   7.982  0.2217 -0.5402  0.0973
   97SAPS  H12R 9669   2.199   1.632   8.056 -1.6814  2.1048  0.9547
   97SAPS  C213 9670   1.993   1.679   7.991 -0.0106 -0.3252  0.5694
   97SAPS  H13R 9671   1.967   1.739   7.902 -0.6319  2.4078  2.4546
   97SAPS  H13S 9672   2.017   1.753   8.070  0.3326 -0.6239  0.7474
   97SAPS  C214 9673   1.873   1.599   8.022 -0.0907 -0.6077  0.0424
   97SAPS  H14R 9674   1.896   1.530   8.105  0.1515 -0.1883  0.3269
   97SAPS  C215 9675   1.756   1.583   7.956 -1.3463  0.4564 -0.5676
   97SAPS  H15R 9676   1.690   1.510   8.005  0.5332  0.0821  1.5336
   97SAPS  C216 9677   1.712   1.651   7.827  0.6253  1.0262  0.0681
   97SAPS  H16R 9678   1.708   1.574   7.747  0.7425  0.7062  0.3626
   97SAPS  H16S 9679   1.778   1.728   7.784  1.8700 -0.8302 -1.5250
   97SAPS  C217 9680   1.571   1.708   7.849  0.3650 -0.5965 -0.1978
   97SAPS  H17R 9681   1.558   1.787   7.772 -0.8955 -0.3327  0.2455
   97SAPS  H17S 9682   1.554   1.756   7.948 -0.6881  0.2104 -0.7539
   97SAPS  C218 9683   1.463   1.604   7.818 -0.3188 -1.0300 -0.1690
   97SAPS  H18R 9684   1.478   1.520   7.890  0.4513 -0.4890  0.3214
   97SAPS  H18S 9685   1.472   1.564   7.715  0.1831  0.3301 -0.6686
   97SAPS  C219 9686   1.326   1.672   7.829  0.7740  0.3795  0.2293
   97SAPS  H19R 9687   1.315   1.713   7.931 -0.2678 -0.9677  0.6868
   97SAPS  H19S 9688   1.260   1.583   7.827  0.8809  0.3122 -0.7793
   97SAPS  C220 9689   1.288   1.771   7.711  0.7958  0.2630 -0.7776
   97SAPS  H20R 9690   1.179   1.790   7.714  1.0162  1.8147 -1.7543
   97SAPS  H20S 9691   1.323   1.727   7.615 -1.1985  0.2688 -1.5492
   97SAPS  H20T 9692   1.337   1.868   7.732  1.1253 -0.3605  1.7031
   97SAPS   C33 9693   1.626   1.521   6.869  0.1700  0.2759  0.8434
   97SAPS   H3X 9694   1.666   1.418   6.878  0.2067  0.4051  2.4477
   97SAPS   H3Y 9695   1.558   1.524   6.782 -1.8141  1.1550  2.3482
   97SAPS   C34 9696   1.539   1.551   6.990 -0.1797 -0.2041  0.3990
   97SAPS   H4X 9697   1.454   1.480   6.977 -1.0649  0.9537 -0.3771
   97SAPS   H4Y 9698   1.501   1.655   6.980  1.9972  0.5684 -0.3436
   97SAPS   C35 9699   1.583   1.508   7.129  0.2502 -0.6869  0.1368
   97SAPS   H5X 9700   1.678   1.556   7.162 -0.1051 -1.1623  1.9816
   97SAPS   H5Y 9701   1.618   1.402   7.131  2.3055 -0.0657 -0.2106
   97SAPS   C36 9702   1.473   1.530   7.228  1.1469  0.5800  0.4103
   97SAPS   H6X 9703   1.396   1.453   7.204  2.5984  0.1357 -3.5479
   97SAPS   H6Y 9704   1.429   1.632   7.233  0.0003  0.1036  0.3210
   97SAPS   C37 9705   1.535   1.502   7.369 -0.4595  0.0120 -0.3052
   97SAPS   H7X 9706   1.450   1.511   7.440 -0.1987 -2.1327  0.3580
   97SAPS   H7Y 9707   1.616   1.576   7.389  2.9740 -3.0474 -1.6787
   97SAPS   C38 9708   1.579   1.358   7.393  0.8998  0.0126 -0.4755
   97SAPS   H8X 9709   1.661   1.334   7.323  0.1246  1.0748 -1.8019
   97SAPS   H8Y 9710   1.495   1.292   7.364  0.3612 -0.4178  1.8180
   97SAPS   C39 9711   1.633   1.330   7.534  0.4897  0.3852 -0.8248
   97SAPS   H9X 9712   1.555   1.345   7.612  1.9746 -1.2509  1.0918
   97SAPS   H9Y 9713   1.712   1.402   7.564  0.2812  0.6582 -0.9280
   97SAPS  C310 9714   1.688   1.183   7.553  0.4934 -0.3748  0.1855
   97SAPS  H10X 9715   1.772   1.180   7.480  1.4520  1.5330  1.1198
   97SAPS  H10Y 9716   1.614   1.103   7.534 -0.8784  0.6997  0.8427
   97SAPS  C311 9717   1.748   1.161   7.692  0.1813  0.6697  0.3888
   97SAPS  H11X 9718   1.678   1.193   7.772  1.0899  1.1758  1.0025
   97SAPS  H11Y 9719   1.841   1.220   7.709  0.9884 -0.8148  1.3449
   97SAPS  C312 9720   1.775   1.010   7.714 -1.1731  0.1891  0.1455
   97SAPS  H12X 9721   1.846   0.998   7.799 -0.1403  0.7084 -0.6251
   97SAPS  H12Y 9722   1.813   0.983   7.613 -2.5075 -0.6516 -0.1594
   97SAPS  C313 9723   1.651   0.918   7.722 -0.1260 -0.0718 -0.3298
   97SAPS  H13X 9724   1.697   0.820   7.697  0.4939 -0.3717  1.7856
   97SAPS  H13Y 9725   1.573   0.946   7.649 -0.0825 -1.2372 -0.8403
   97SAPS  C314 9726   1.595   0.910   7.866 -0.0254 -0.8084  0.0394
   97SAPS  H14X 9727   1.516   0.987   7.874 -1.1524 -1.5314 -2.8609
   97SAPS  H14Y 9728   1.667   0.950   7.941 -1.1751  3.7923 -0.9961
   97SAPS  C315 9729   1.528   0.787   7.903  0.7395 -0.4918 -0.1024
   97SAPS  H15X 9730   1.594   0.700   7.918  0.9280 -0.4926 -0.8994
   97SAPS  H15Y 9731   1.463   0.751   7.820  0.1966 -0.4455  0.2922
   97SAPS  C316 9732   1.413   0.800   8.018 -0.3042  0.0786  0.4654
   97SAPS  H16X 9733   1.318   0.827   7.968 -0.9536 -0.4951  1.3624
   97SAPS  H16Y 9734   1.438   0.885   8.085 -2.3276  0.9746  0.1453
   97SAPS  C317 9735   1.392   0.673   8.093 -0.0774 -0.6334  0.4402
   97SAPS  H17X 9736   1.481   0.636   8.149  0.7448 -2.4539 -1.8984
   97SAPS  H17Y 9737   1.372   0.585   8.028  1.9390 -0.9957  0.2425
   97SAPS  C318 9738   1.276   0.702   8.191 -0.0053  0.7306 -0.1954
   97SAPS  H18X 9739   1.279   0.635   8.280 -0.4732 -0.6688 -1.1941
   97SAPS  H18Y 9740   1.178   0.696   8.140  0.3620  0.6732 -0.9132
   97SAPS  H18Z 9741   1.295   0.804   8.229  3.7934  0.1979 -0.2676
   98SAPS     N 9742   5.948   2.978   6.474  0.1330  0.7078 -0.4066
   98SAPS   HN1 9743   5.901   3.037   6.547  0.4466  0.2721  0.1524
   98SAPS   HN2 9744   5.919   2.879   6.482  0.8086  0.5246 -0.1524
   98SAPS   HN3 9745   6.051   2.977   6.484  0.0925  0.2787  0.0115
   98SAPS   C12 9746   5.900   3.052   6.346  0.6875 -0.1737 -0.7586
   98SAPS  H12A 9747   5.793   3.042   6.335  0.6736 -0.6187 -0.2830
   98SAPS   C13 9748   5.929   3.205   6.334 -0.0561 -0.0580 -0.4908
   98SAPS  O13A 9749   5.966   3.273   6.437  0.2273  0.3093 -0.3086
   98SAPS  O13B 9750   5.894   3.258   6.222  0.1636  0.0591  0.1024
   98SAPS   C11 9751   5.944   2.964   6.222  0.2762 -0.3791 -0.7334
   98SAPS  H11A 9752   6.054   2.968   6.202  0.3712  1.9834 -0.0550
   98SAPS  H11B 9753   5.896   2.992   6.125  1.3187 -0.1549 -1.2004
   98SAPS     P 9754   6.007   2.708   6.215 -0.3631  0.3135 -0.1053
   98SAPS   O13 9755   5.943   2.581   6.257  0.2944  0.2202 -0.3828
   98SAPS   O14 9756   6.055   2.716   6.074  0.1191  0.1946  0.0717
   98SAPS   O12 9757   5.911   2.829   6.244  0.8654  0.3725 -0.1158
   98SAPS   O11 9758   6.134   2.729   6.304  0.1798  0.0963 -0.5669
   98SAPS    C1 9759   6.244   2.643   6.321 -0.0544  0.3459  0.5267
   98SAPS    HA 9760   6.260   2.575   6.235  2.5142 -0.4198  1.5232
   98SAPS    HB 9761   6.333   2.707   6.337 -0.3767  0.6703  1.0334
   98SAPS    C2 9762   6.221   2.538   6.438  1.2094 -0.5370  0.0105
   98SAPS    HS 9763   6.135   2.482   6.396 -0.6323  1.1909  1.2445
   98SAPS   O21 9764   6.181   2.611   6.557 -0.1177 -0.2389 -0.2389
   98SAPS   C21 9765   6.098   2.555   6.640 -0.6857 -0.2016 -0.7981
   98SAPS   O22 9766   6.034   2.452   6.620  0.3490 -0.9903 -0.0389
   98SAPS   C22 9767   6.081   2.629   6.777  0.4472 -0.1214 -0.2862
   98SAPS   H2R 9768   6.181   2.651   6.820  1.4091 -0.8204 -2.0691
   98SAPS   H2S 9769   6.043   2.730   6.748 -1.2765 -0.3246  1.0785
   98SAPS    C3 9770   6.343   2.444   6.453  0.3843  0.3932  0.6170
   98SAPS    HX 9771   6.350   2.389   6.356  1.7252 -0.4090  1.1471
   98SAPS    HY 9772   6.326   2.369   6.533 -0.1207  0.6128  0.7198
   98SAPS   O31 9773   6.468   2.517   6.461  0.3617 -0.1268 -0.0433
   98SAPS   C31 9774   6.505   2.531   6.590 -0.0340  0.4463 -0.1413
   98SAPS   O32 9775   6.425   2.512   6.684 -0.5863 -0.6747  0.2406
   98SAPS   C32 9776   6.649   2.570   6.613 -0.5984 -0.1745 -0.2752
   98SAPS   H2X 9777   6.670   2.667   6.563  0.6908 -0.6311 -0.6640
   98SAPS   H2Y 9778   6.712   2.491   6.566 -1.1517 -2.5218  2.6214
   98SAPS   C23 9779   5.980   2.554   6.872  0.1130 -0.8758 -0.0566
   98SAPS   H3R 9780   5.994   2.444   6.884  3.4059 -0.7771 -1.6835
   98SAPS   H3S 9781   5.883   2.574   6.822 -0.2013 -0.6471  0.6463
   98SAPS   C24 9782   5.953   2.627   7.012 -0.1081  0.5062 -0.0039
   98SAPS   H4R 9783   5.851   2.595   7.043 -0.6190  2.4900  0.4937
   98SAPS   H4S 9784   5.957   2.738   7.000  0.5072  0.5076  0.1888
   98SAPS   C25 9785   6.057   2.581   7.107  0.0420 -0.5507 -0.0351
   98SAPS   H5R 9786   6.160   2.604   7.075 -0.4681  0.3696 -1.0984
   98SAPS   C26 9787   6.035   2.523   7.225 -0.1058  0.3796  0.5327
   98SAPS   H6R 9788   6.123   2.474   7.271  0.4034  0.3002 -0.5025
   98SAPS   C27 9789   5.906   2.479   7.284  0.6705  0.3299  0.7210
   98SAPS   H7R 9790   5.921   2.390   7.348  1.6275 -0.6992 -0.8580
   98SAPS   H7S 9791   5.836   2.436   7.209  0.8996  2.2306 -0.6768
   98SAPS   C28 9792   5.823   2.590   7.352  0.4345  0.4216  0.0072
   98SAPS   H8R 9793   5.774   2.659   7.281 -0.8607 -0.0651  0.4135
   98SAPS   C29 9794   5.783   2.588   7.484  0.6846 -0.7906  0.0910
   98SAPS   H9R 9795   5.707   2.661   7.518 -0.9511 -1.5896 -1.6780
   98SAPS  C210 9796   5.828   2.494   7.593  0.4864 -0.6362  0.0417
   98SAPS  H10R 9797   5.817   2.550   7.689 -2.6596 -2.2786  0.7634
   98SAPS  H10S 9798   5.939   2.486   7.586  0.4604 -0.7684 -0.2389
   98SAPS  C211 9799   5.754   2.363   7.599  0.0632  0.2344  0.7793
   98SAPS  H11R 9800   5.794   2.283   7.533  0.9071  0.0867  1.4442
   98SAPS  C212 9801   5.649   2.336   7.681  0.6675 -0.4273 -0.3175
   98SAPS  H12R 9802   5.596   2.241   7.667 -0.2749 -0.3523  2.2901
   98SAPS  C213 9803   5.577   2.438   7.768 -0.6558  0.0834  0.2483
   98SAPS  H13R 9804   5.469   2.444   7.744 -0.3353  3.7523 -0.8164
   98SAPS  H13S 9805   5.614   2.539   7.743 -2.6716  0.2075 -2.7840
   98SAPS  C214 9806   5.593   2.391   7.915  0.8243  0.2357 -0.3167
   98SAPS  H14R 9807   5.549   2.292   7.933 -3.8285  2.0307 -0.5458
   98SAPS  C215 9808   5.619   2.470   8.023 -0.4834 -0.1080  0.0186
   98SAPS  H15R 9809   5.649   2.425   8.119  0.6418  2.0485  0.7428
   98SAPS  C216 9810   5.659   2.611   8.035 -0.2872 -0.9717  0.0798
   98SAPS  H16R 9811   5.570   2.675   8.054 -0.2893 -0.0163 -2.6885
   98SAPS  H16S 9812   5.691   2.654   7.938  1.1814 -0.8706  0.5754
   98SAPS  C217 9813   5.774   2.654   8.139  0.1154  0.7304  0.5494
   98SAPS  H17R 9814   5.737   2.617   8.237 -2.3394  0.0701 -0.5450
   98SAPS  H17S 9815   5.786   2.764   8.131  0.3166  0.8665  2.3846
   98SAPS  C218 9816   5.902   2.587   8.097  0.6866  0.0695  0.5378
   98SAPS  H18R 9817   5.935   2.631   8.000  0.7324  1.1122  1.0141
   98SAPS  H18S 9818   5.891   2.478   8.080  2.1195  0.1796 -1.4618
   98SAPS  C219 9819   6.011   2.605   8.202 -0.2267 -0.6142  0.4675
   98SAPS  H19R 9820   6.004   2.711   8.236  0.3280 -0.2265 -0.5537
   98SAPS  H19S 9821   6.112   2.606   8.156  0.5015 -0.2977  2.0091
   98SAPS  C220 9822   6.022   2.491   8.298 -0.3958  0.0626 -0.0191
   98SAPS  H20R 9823   6.071   2.401   8.254  0.0956 -0.3361  1.2921
   98SAPS  H20S 9824   5.923   2.468   8.344 -0.2072  0.1544  0.4388
   98SAPS  H20T 9825   6.091   2.526   8.377  1.2402  3.9969 -2.8843
   98SAPS   C33 9826   6.696   2.572   6.765 -0.0443 -0.5196 -0.0119
   98SAPS   H3X 9827   6.618   2.633   6.816  3.3952  0.6904  4.5219
   98SAPS   H3Y 9828   6.788   2.632   6.781  0.1427 -0.7816 -0.1052
   98SAPS   C34 9829   6.705   2.431   6.830 -0.5230 -0.2846  0.8249
   98SAPS   H4X 9830   6.739   2.358   6.754  1.0400 -0.2952  1.4953
   98SAPS   H4Y 9831   6.610   2.396   6.875 -1.0683  0.6299  0.4162
   98SAPS   C35 9832   6.792   2.434   6.960 -0.5521  0.3385  0.3362
   98SAPS   H5X 9833   6.756   2.525   7.014  2.2449  1.6967  0.1258
   98SAPS   H5Y 9834   6.902   2.447   6.952 -0.1143 -1.3933  2.5531
   98SAPS   C36 9835   6.768   2.307   7.049 -0.0757  0.3841  0.3316
   98SAPS   H6X 9836   6.797   2.220   6.987  1.1921  0.3752  0.8928
   98SAPS   H6Y 9837   6.662   2.289   7.077  0.0073 -1.1084 -0.2197
   98SAPS   C37 9838   6.836   2.315   7.188  0.3745 -0.4306  0.3042
   98SAPS   H7X 9839   6.942   2.344   7.168 -0.1053  1.9696  0.9408
   98SAPS   H7Y 9840   6.819   2.220   7.243 -1.4549  0.7299  1.8395
   98SAPS   C38 9841   6.783   2.422   7.284  0.1262 -0.4473 -0.0910
   98SAPS   H8X 9842   6.678   2.401   7.311 -0.1977  0.7448 -0.3526
   98SAPS   H8Y 9843   6.792   2.518   7.229  1.5516 -1.7392 -2.2739
   98SAPS   C39 9844   6.861   2.424   7.412 -0.6168  0.0976  0.4147
   98SAPS   H9X 9845   6.830   2.516   7.466 -1.1608 -0.2111  0.6264
   98SAPS   H9Y 9846   6.970   2.423   7.390 -0.9520  0.9922 -1.4943
   98SAPS  C310 9847   6.821   2.316   7.515  0.1552 -0.0662  0.1129
   98SAPS  H10X 9848   6.855   2.221   7.469 -2.8680 -0.4917 -1.4570
   98SAPS  H10Y 9849   6.711   2.311   7.532  0.1101 -1.5060 -0.4691
   98SAPS  C311 9850   6.890   2.351   7.650 -0.0020  0.7069 -0.3074
   98SAPS  H11X 9851   6.866   2.452   7.691 -1.9847 -0.7560  2.4885
   98SAPS  H11Y 9852   6.996   2.348   7.619  0.0317 -0.6103 -0.1134
   98SAPS  C312 9853   6.872   2.259   7.775 -0.2519 -0.8530 -0.4923
   98SAPS  H12X 9854   6.911   2.158   7.750  0.8473 -0.9263  1.3115
   98SAPS  H12Y 9855   6.766   2.242   7.805 -0.2182  2.4834  2.0627
   98SAPS  C313 9856   6.950   2.306   7.895 -0.9844 -0.2472  0.3793
   98SAPS  H13X 9857   7.032   2.374   7.862  0.2902 -1.4351  1.0122
   98SAPS  H13Y 9858   6.995   2.217   7.943 -0.9397  0.6131  1.9762
   98SAPS  C314 9859   6.858   2.361   8.007  0.3588 -0.7010 -0.0354
   98SAPS  H14X 9860   6.763   2.304   8.011 -0.8842  1.1030 -1.7055
   98SAPS  H14Y 9861   6.839   2.468   7.981  3.7286  0.1899  0.6584
   98SAPS  C315 9862   6.913   2.354   8.152  0.1364  0.2438  0.4611
   98SAPS  H15X 9863   6.840   2.388   8.228 -1.0049  0.4313 -0.6828
   98SAPS  H15Y 9864   6.994   2.428   8.168 -0.8582  1.6161 -0.6208
   98SAPS  C316 9865   6.962   2.217   8.192  0.9996  0.0977  0.2970
   98SAPS  H16X 9866   7.055   2.200   8.134 -0.0256 -1.5911 -0.9690
   98SAPS  H16Y 9867   6.899   2.131   8.159  2.5572 -0.4509 -1.4770
   98SAPS  C317 9868   6.981   2.203   8.340 -0.1781 -0.0698  0.2806
   98SAPS  H17X 9869   6.878   2.197   8.383 -0.7706 -2.4688 -1.2724
   98SAPS  H17Y 9870   7.033   2.292   8.380  0.7491 -0.0881 -0.8338
   98SAPS  C318 9871   7.060   2.076   8.370 -0.2025  0.5692  0.2014
   98SAPS  H18X 9872   7.038   2.023   8.465 -0.5788  0.9515  0.3337
   98SAPS  H18Y 9873   7.164   2.111   8.388  0.4609 -0.6882 -1.0362
   98SAPS  H18Z 9874   7.064   2.014   8.278  2.6671  0.5412  0.2618
   99SAPS     N 9875   5.493   0.423   6.398  0.2910 -0.6450 -0.2885
   99SAPS   HN1 9876   5.557   0.346   6.426 -0.6217 -1.8734 -1.3681
   99SAPS   HN2 9877   5.485   0.489   6.477 -1.1359 -2.1514  0.8905
   99SAPS   HN3 9878   5.395   0.387   6.395 -0.3698  1.0054  0.3390
   99SAPS   C12 9879   5.533   0.508   6.286 -0.1391  0.7403  0.3583
   99SAPS  H12A 9880   5.552   0.441   6.203  0.6513 -0.1317  1.2251
   99SAPS   C13 9881   5.426   0.613   6.236 -0.3999 -0.0613 -1.0141
   99SAPS  O13A 9882   5.327   0.634   6.310 -0.0059 -0.4715  0.0892
   99SAPS  O13B 9883   5.445   0.674   6.131  0.1692 -0.0223  0.2187
   99SAPS   C11 9884   5.666   0.567   6.319 -0.1096  0.7297  0.9521
   99SAPS  H11A 9885   5.667   0.633   6.409  1.2647  0.3616  1.2372
   99SAPS  H11B 9886   5.691   0.631   6.232 -0.4808  0.7119  0.8313
   99SAPS     P 9887   5.917   0.506   6.344  0.2153 -0.0516  0.4181
   99SAPS   O13 9888   5.999   0.429   6.253 -0.4301 -0.1033  0.1656
   99SAPS   O14 9889   5.930   0.651   6.311  0.3288 -0.2467 -0.2084
   99SAPS   O12 9890   5.767   0.466   6.327  0.4593  0.1521  0.2857
   99SAPS   O11 9891   5.961   0.501   6.498 -0.0225  0.4756  0.2247
   99SAPS    C1 9892   5.865   0.557   6.590  0.0519 -0.1339 -0.5003
   99SAPS    HA 9893   5.862   0.668   6.595 -0.9124 -0.1896  0.3758
   99SAPS    HB 9894   5.758   0.537   6.568  0.1509 -0.7370 -0.4455
   99SAPS    C2 9895   5.908   0.517   6.735  0.1167 -0.1064 -0.3351
   99SAPS    HS 9896   5.911   0.407   6.751 -1.0664  0.1047  1.7882
   99SAPS   O21 9897   5.817   0.571   6.824 -0.5569 -0.3388  0.2739
   99SAPS   C21 9898   5.794   0.501   6.930 -0.5607  0.3217 -0.4607
   99SAPS   O22 9899   5.825   0.383   6.949 -0.5019 -0.3339  0.2246
   99SAPS   C22 9900   5.723   0.588   7.033 -0.1320  0.2040  0.2956
   99SAPS   H2R 9901   5.748   0.695   7.013 -0.7771  0.2656 -0.2457
   99SAPS   H2S 9902   5.612   0.581   7.027 -0.2782 -0.3946  2.6562
   99SAPS    C3 9903   6.046   0.576   6.768  0.2707 -0.3193  0.2291
   99SAPS    HX 9904   6.028   0.685   6.762  0.8968 -0.2822 -2.0032
   99SAPS    HY 9905   6.112   0.544   6.684 -1.4911 -2.6494 -0.3897
   99SAPS   O31 9906   6.086   0.532   6.902  0.0863 -0.0357 -0.4706
   99SAPS   C31 9907   6.139   0.402   6.910 -0.5048 -0.6935 -0.4544
   99SAPS   O32 9908   6.152   0.326   6.818 -0.2738  0.4424 -0.6955
   99SAPS   C32 9909   6.166   0.393   7.058  0.4122 -0.7091  0.9181
   99SAPS   H2X 9910   6.131   0.473   7.126  0.5095 -0.6567  0.9070
   99SAPS   H2Y 9911   6.277   0.395   7.064  0.4125 -0.2797  0.7923
   99SAPS   C23 9912   5.761   0.529   7.175 -0.2467 -0.4185 -1.1311
   99SAPS   H3R 9913   5.868   0.555   7.186 -0.0730 -0.5401 -2.3781
   99SAPS   H3S 9914   5.754   0.419   7.182 -0.1833 -0.4091 -0.9107
   99SAPS   C24 9915   5.683   0.591   7.296  0.5879  0.3486  0.2673
   99SAPS   H4R 9916   5.700   0.524   7.383 -1.6392  0.6309  0.9870
   99SAPS   H4S 9917   5.572   0.591   7.290  0.1993 -1.2813  4.2435
   99SAPS   C25 9918   5.729   0.736   7.320  0.3917 -0.1337  0.3517
   99SAPS   H5R 9919   5.750   0.801   7.234 -0.1613 -1.3282 -0.7159
   99SAPS   C26 9920   5.703   0.796   7.440  0.2266 -0.0482  0.7900
   99SAPS   H6R 9921   5.727   0.901   7.462 -1.1552  0.5182 -0.2986
   99SAPS   C27 9922   5.645   0.719   7.561  0.1459 -0.2903 -0.1783
   99SAPS   H7R 9923   5.591   0.626   7.536  0.2403 -0.4272  0.1249
   99SAPS   H7S 9924   5.563   0.783   7.599  0.9702  0.1084  1.0330
   99SAPS   C28 9925   5.751   0.685   7.657  0.0078  0.1305 -0.1797
   99SAPS   H8R 9926   5.850   0.675   7.609 -0.4033  0.3499 -1.0906
   99SAPS   C29 9927   5.737   0.666   7.789 -0.4462 -0.4839 -0.7231
   99SAPS   H9R 9928   5.826   0.641   7.849 -0.5238  0.7930 -0.0491
   99SAPS  C210 9929   5.607   0.679   7.872 -0.2113 -0.1631  0.1235
   99SAPS  H10R 9930   5.521   0.639   7.815 -1.8726  1.6984  1.1912
   99SAPS  H10S 9931   5.584   0.787   7.886 -1.5498 -0.6211  1.6171
   99SAPS  C211 9932   5.636   0.609   8.002 -0.4710 -0.5494 -0.9242
   99SAPS  H11R 9933   5.660   0.502   7.994  0.6964 -0.2925 -1.0316
   99SAPS  C212 9934   5.659   0.658   8.126  0.2284 -0.5056  0.5544
   99SAPS  H12R 9935   5.678   0.589   8.209  0.4756 -0.9886  0.1076
   99SAPS  C213 9936   5.645   0.807   8.159  0.4491  0.6969  1.0778
   99SAPS  H13R 9937   5.538   0.833   8.153 -0.3570 -2.1844  1.1366
   99SAPS  H13S 9938   5.696   0.861   8.076  0.4766 -2.5055 -1.2135
   99SAPS  C214 9939   5.697   0.845   8.295  0.4232  0.1292  0.2040
   99SAPS  H14R 9940   5.799   0.882   8.278  1.0273 -1.5440 -0.0036
   99SAPS  C215 9941   5.627   0.861   8.412 -0.1473  0.6466  0.0589
   99SAPS  H15R 9942   5.678   0.903   8.500  0.6027  2.6872 -1.2692
   99SAPS  C216 9943   5.477   0.857   8.427 -0.4115 -0.2186 -0.2751
   99SAPS  H16R 9944   5.421   0.841   8.333 -1.2435  0.8290  0.0247
   99SAPS  H16S 9945   5.446   0.956   8.466  0.0084  0.2550 -1.1264
   99SAPS  C217 9946   5.450   0.746   8.537 -0.5330  0.3554  0.1552
   99SAPS  H17R 9947   5.501   0.779   8.630 -0.5589 -2.2780  1.1800
   99SAPS  H17S 9948   5.497   0.647   8.521  2.5695  1.5844  0.9016
   99SAPS  C218 9949   5.302   0.727   8.576  0.1686 -0.0353  0.2312
   99SAPS  H18R 9950   5.260   0.652   8.506  1.1805 -0.5431  0.1363
   99SAPS  H18S 9951   5.251   0.824   8.562 -1.2382 -0.2175  3.1912
   99SAPS  C219 9952   5.284   0.693   8.725 -0.9862  0.8722  0.4524
   99SAPS  H19R 9953   5.291   0.790   8.779 -0.9353  0.7726  0.6248
   99SAPS  H19S 9954   5.372   0.633   8.755 -0.5725 -0.8175 -3.4943
   99SAPS  C220 9955   5.147   0.632   8.757 -0.4408 -1.4551 -0.6297
   99SAPS  H20R 9956   5.069   0.690   8.703  0.5836  1.2865  0.6036
   99SAPS  H20S 9957   5.124   0.642   8.866  1.3910 -1.1577 -0.2220
   99SAPS  H20T 9958   5.144   0.525   8.731 -1.4407 -1.0833 -2.1428
   99SAPS   C33 9959   6.109   0.260   7.120 -0.3508  0.0317 -0.0973
   99SAPS   H3X 9960   6.147   0.168   7.070  0.5661 -0.2503  1.0660
   99SAPS   H3Y 9961   5.998   0.261   7.119 -0.4004 -1.2609  1.2146
   99SAPS   C34 9962   6.136   0.250   7.270  0.5807  0.0124 -0.0560
   99SAPS   H4X 9963   6.242   0.273   7.290  0.6460  0.4051 -0.8031
   99SAPS   H4Y 9964   6.106   0.148   7.301 -0.5886 -0.0591 -1.3256
   99SAPS   C35 9965   6.044   0.335   7.355 -0.8842 -0.2017 -0.0078
   99SAPS   H5X 9966   5.941   0.295   7.341 -1.2880  0.4314  1.0654
   99SAPS   H5Y 9967   6.056   0.443   7.330  0.8728 -0.5452 -0.7929
   99SAPS   C36 9968   6.076   0.320   7.505  0.5130 -0.1283 -0.2853
   99SAPS   H6X 9969   6.175   0.370   7.513  0.9044 -1.1247  1.7610
   99SAPS   H6Y 9970   6.090   0.212   7.528 -0.2123 -0.2942 -0.5890
   99SAPS   C37 9971   5.976   0.385   7.594  0.2084  0.3419  0.6849
   99SAPS   H7X 9972   5.878   0.341   7.567  0.3885  0.1580  0.3277
   99SAPS   H7Y 9973   5.955   0.489   7.561 -2.4816 -0.5751 -0.7920
   99SAPS   C38 9974   6.020   0.396   7.740 -0.1644  0.3155  0.4159
   99SAPS   H8X 9975   5.954   0.479   7.773  1.2940  1.7164 -0.0703
   99SAPS   H8Y 9976   6.120   0.443   7.749 -0.9681  1.9853  1.0119
   99SAPS   C39 9977   6.006   0.258   7.815 -0.5421 -0.5995  0.1558
   99SAPS   H9X 9978   6.062   0.179   7.760 -1.5814 -1.3891  0.1974
   99SAPS   H9Y 9979   5.903   0.216   7.824 -0.7032 -0.6148 -1.3766
   99SAPS  C310 9980   6.047   0.267   7.959  0.3395 -0.3596  0.0845
   99SAPS  H10X 9981   6.155   0.292   7.974  0.5904 -1.2974 -0.0992
   99SAPS  H10Y 9982   6.037   0.166   8.004  0.3513 -1.0555 -1.4077
   99SAPS  C311 9983   5.967   0.366   8.047 -0.2043  0.9228  0.3859
   99SAPS  H11X 9984   5.860   0.377   8.019 -0.6018 -1.0722  0.9127
   99SAPS  H11Y 9985   6.013   0.466   8.034  1.0110  0.5453  1.5564
   99SAPS  C312 9986   5.972   0.330   8.192 -0.2962 -0.6780 -0.2280
   99SAPS  H12X 9987   6.075   0.331   8.232 -0.5332 -3.1101  0.6059
   99SAPS  H12Y 9988   5.935   0.228   8.213  2.7585 -1.3669  2.5360
   99SAPS  C313 9989   5.874   0.427   8.265 -0.0092 -0.2016  0.3907
   99SAPS  H13X 9990   5.773   0.404   8.224 -0.0772 -1.1503  1.0322
   99SAPS  H13Y 9991   5.911   0.523   8.225  0.6218 -1.4505 -2.2532
   99SAPS  C314 9992   5.880   0.421   8.418  0.7206 -0.0513 -0.7519
   99SAPS  H14X 9993   5.797   0.490   8.442  1.0935  0.3452 -0.5797
   99SAPS  H14Y 9994   5.973   0.473   8.450  0.1320  0.5748 -0.0334
   99SAPS  C315 9995   5.860   0.278   8.473  0.6940  0.0150  0.1113
   99SAPS  H15X 9996   5.945   0.209   8.450  2.8151  2.1348  1.1671
   99SAPS  H15Y 9997   5.767   0.234   8.432  1.5432 -2.8950  1.0247
   99SAPS  C316 9998   5.844   0.275   8.627 -0.3664 -0.2649 -0.1853
   99SAPS  H16X 9999   5.920   0.342   8.673  0.0445 -1.6844  1.2795
   99SAPS  H16Y10000   5.855   0.171   8.664 -2.4147 -0.2882  0.5052
   99SAPS  C31710001   5.713   0.344   8.692  0.3436  0.6628 -0.6969
   99SAPS  H17X10002   5.614   0.296   8.676 -0.7811  1.7861  2.1524
   99SAPS  H17Y10003   5.706   0.446   8.649  1.1411  0.4442 -1.3703
   99SAPS  C31810004   5.732   0.359   8.844  0.2304  0.2483 -0.6629
   99SAPS  H18X10005   5.828   0.408   8.870 -1.8516  5.0518 -0.8892
   99SAPS  H18Y10006   5.735   0.263   8.899  1.0125 -1.1853 -3.0620
   99SAPS  H18Z10007   5.658   0.434   8.881  2.2032  1.8534  0.2172
  100SAPS     N10008   2.937   1.971   6.018  0.3368 -0.2213 -0.2752
  100SAPS   HN110009   2.902   1.931   6.108  0.9131  1.2966  0.6493
  100SAPS   HN210010   2.906   1.897   5.951 -1.5615 -1.3913  1.7657
  100SAPS   HN310011   3.039   1.988   6.017  0.3030  0.4331  2.2154
  100SAPS   C1210012   2.865   2.095   5.982 -0.4813  0.5119  0.1252
  100SAPS  H12A10013   2.949   2.158   5.958  2.6214 -3.5963 -0.9474
  100SAPS   C1310014   2.780   2.077   5.849 -0.1957  0.2829 -0.4771
  100SAPS  O13A10015   2.768   1.962   5.798 -0.2149  0.5791  0.3441
  100SAPS  O13B10016   2.703   2.167   5.821 -0.8491 -0.2268 -0.6934
  100SAPS   C1110017   2.772   2.152   6.090 -0.0429  0.1740 -0.3160
  100SAPS  H11A10018   2.691   2.083   6.122  0.3932 -0.5029 -0.6291
  100SAPS  H11B10019   2.721   2.242   6.050 -3.0229 -2.0561 -1.9279
  100SAPS     P10020   2.936   2.296   6.243 -0.2364  0.1726 -0.1164
  100SAPS   O1310021   2.998   2.282   6.375  0.2216 -0.4155 -0.1460
  100SAPS   O1410022   3.035   2.317   6.134 -0.0772 -0.1719 -0.5572
  100SAPS   O1210023   2.841   2.176   6.215  0.2143 -0.2645 -0.3967
  100SAPS   O1110024   2.847   2.428   6.252 -0.5664  0.4699  0.3866
  100SAPS    C110025   2.712   2.430   6.299 -0.1272  0.0811  0.1278
  100SAPS    HA10026   2.660   2.515   6.249  1.3185 -0.3491 -2.3119
  100SAPS    HB10027   2.649   2.347   6.262 -0.1967 -0.0094  0.4544
  100SAPS    C210028   2.713   2.467   6.454  0.4628  0.4955 -0.0828
  100SAPS    HS10029   2.783   2.551   6.470  0.3479  0.9495 -1.8193
  100SAPS   O2110030   2.755   2.353   6.529  0.0033  0.3867 -0.2463
  100SAPS   C2110031   2.852   2.364   6.622 -0.5172  0.3221 -0.0489
  100SAPS   O2210032   2.897   2.472   6.657  0.5370  0.2071 -0.8130
  100SAPS   C2210033   2.867   2.231   6.688 -0.1991  0.4110 -0.3550
  100SAPS   H2R10034   2.772   2.175   6.700  0.2801 -0.1351  1.1343
  100SAPS   H2S10035   2.945   2.184   6.623  1.4543 -0.2094  1.9460
  100SAPS    C310036   2.565   2.515   6.494  0.0051  0.1000  0.7389
  100SAPS    HX10037   2.487   2.451   6.448  1.5209 -2.8375  1.9813
  100SAPS    HY10038   2.551   2.616   6.449 -2.0534 -1.2603 -2.0105
  100SAPS   O3110039   2.541   2.513   6.634  0.8876  0.5036  0.0242
  100SAPS   C3110040   2.575   2.624   6.701 -0.0441  0.3900  0.5217
  100SAPS   O3210041   2.611   2.730   6.646 -0.6214 -0.1400 -0.5088
  100SAPS   C3210042   2.566   2.594   6.852  0.3214 -0.1019 -0.1148
  100SAPS   H2X10043   2.580   2.486   6.874  0.5669 -0.3547 -1.4766
  100SAPS   H2Y10044   2.464   2.623   6.884 -1.1740 -2.6942 -2.1685
  100SAPS   C2310045   2.932   2.238   6.834 -0.7268  0.2247  0.5281
  100SAPS   H3R10046   3.019   2.307   6.831 -0.3276 -0.2643  0.7697
  100SAPS   H3S10047   2.978   2.139   6.850  2.1264  0.7803 -2.9315
  100SAPS   C2410048   2.841   2.283   6.949  0.4327 -0.4200 -0.3396
  100SAPS   H4R10049   2.794   2.383   6.934 -0.2021 -0.6670 -0.0509
  100SAPS   H4S10050   2.905   2.297   7.039 -0.0253  0.4302 -0.1358
  100SAPS   C2510051   2.752   2.161   6.967  0.1834 -0.0910  0.1682
  100SAPS   H5R10052   2.656   2.162   6.913 -0.2173 -1.4367  0.7969
  100SAPS   C2610053   2.783   2.058   7.046 -0.1994  0.1999 -0.0723
  100SAPS   H6R10054   2.721   1.967   7.047 -0.0478  0.0919 -0.2861
  100SAPS   C2710055   2.904   2.030   7.132 -0.0387 -0.1913  0.6515
  100SAPS   H7R10056   2.983   2.106   7.115  1.2717 -2.0373 -2.2216
  100SAPS   H7S10057   2.964   1.937   7.119 -0.8405 -0.6673  0.3036
  100SAPS   C2810058   2.851   2.036   7.278 -0.1028  1.0600  0.0309
  100SAPS   H8R10059   2.836   2.133   7.329 -0.3787  0.7841  0.4767
  100SAPS   C2910060   2.823   1.918   7.345  0.2752 -0.0484 -0.2222
  100SAPS   H9R10061   2.785   1.929   7.447  2.8015 -2.3601  1.0949
  100SAPS  C21010062   2.829   1.770   7.297  0.4056 -0.0262  0.9008
  100SAPS  H10R10063   2.929   1.730   7.325 -0.5250 -1.4850  2.3266
  100SAPS  H10S10064   2.815   1.761   7.187 -1.0868 -3.0456  1.2358
  100SAPS  C21110065   2.719   1.693   7.369  0.5378 -0.2179 -0.9750
  100SAPS  H11R10066   2.629   1.674   7.309 -0.9332  0.7468  0.8218
  100SAPS  C21210067   2.716   1.652   7.497  0.5382  0.9467  0.3028
  100SAPS  H12R10068   2.622   1.602   7.526  0.8374  0.2395  0.0692
  100SAPS  C21310069   2.822   1.668   7.601 -0.9689 -0.1679  0.6389
  100SAPS  H13R10070   2.921   1.679   7.551 -0.0857  0.1136  2.3713
  100SAPS  H13S10071   2.833   1.584   7.673  2.7172  1.0462  1.7771
  100SAPS  C21410072   2.793   1.792   7.688 -1.0345 -0.2249 -0.1007
  100SAPS  H14R10073   2.690   1.829   7.694 -0.6461  0.9783 -0.3973
  100SAPS  C21510074   2.890   1.851   7.765  0.1481 -0.7460  0.4957
  100SAPS  H15R10075   2.868   1.936   7.831  0.4122 -0.8950  0.7783
  100SAPS  C21610076   3.036   1.816   7.777  0.2353  0.3501 -0.3357
  100SAPS  H16R10077   3.058   1.716   7.734 -1.1058  0.5527 -1.5824
  100SAPS  H16S10078   3.062   1.817   7.885  1.6037 -1.0563 -0.6110
  100SAPS  C21710079   3.136   1.904   7.698  0.1823 -0.1854 -0.8808
  100SAPS  H17R10080   3.234   1.870   7.739  0.2396 -1.0588 -1.7385
  100SAPS  H17S10081   3.105   2.003   7.739  0.8416 -0.0873 -0.5966
  100SAPS  C21810082   3.135   1.895   7.544 -0.1140  0.0213  0.1583
  100SAPS  H18R10083   3.038   1.931   7.502  0.1585 -2.1463 -2.6217
  100SAPS  H18S10084   3.153   1.788   7.518 -1.0038  0.2761 -1.6644
  100SAPS  C21910085   3.251   1.978   7.481  0.2859  0.1844  0.2347
  100SAPS  H19R10086   3.351   1.961   7.528  0.5930 -0.1260 -0.5108
  100SAPS  H19S10087   3.217   2.080   7.509 -1.2558 -0.0239 -0.7737
  100SAPS  C22010088   3.268   1.968   7.330  0.4492  0.3612 -0.4124
  100SAPS  H20R10089   3.174   1.975   7.271 -0.4630 -1.6797  0.6726
  100SAPS  H20S10090   3.302   1.865   7.306  0.8087  0.2049  0.7029
  100SAPS  H20T10091   3.335   2.047   7.291  0.3915 -0.7494 -2.9219
  100SAPS   C3310092   2.653   2.678   6.947  0.7261 -0.0852  0.3697
  100SAPS   H3X10093   2.635   2.788   6.947  1.9552  0.1308  0.8131
  100SAPS   H3Y10094   2.759   2.658   6.921  0.4199 -1.0744 -0.1702
  100SAPS   C3410095   2.630   2.635   7.097 -0.1487  0.3519 -0.1420
  100SAPS   H4X10096   2.642   2.526   7.112 -3.7891  0.0124  1.4062
  100SAPS   H4Y10097   2.520   2.642   7.108 -0.5241 -1.7020 -1.9657
  100SAPS   C3510098   2.707   2.713   7.195 -0.0686 -0.2790 -0.0103
  100SAPS   H5X10099   2.682   2.821   7.181 -1.0479 -0.1750  2.1125
  100SAPS   H5Y10100   2.817   2.696   7.191  0.1636 -0.3724  3.5010
  100SAPS   C3610101   2.659   2.680   7.330 -0.0026  0.5758 -0.9903
  100SAPS   H6X10102   2.668   2.570   7.341 -1.0083  0.6411  0.7645
  100SAPS   H6Y10103   2.553   2.706   7.349  1.1406  2.6324  3.7512
  100SAPS   C3710104   2.734   2.738   7.450  0.6758 -0.5783  0.1112
  100SAPS   H7X10105   2.736   2.848   7.439 -0.4997 -0.6105 -0.5575
  100SAPS   H7Y10106   2.842   2.711   7.438  1.8211  3.1826  0.5775
  100SAPS   C3810107   2.673   2.708   7.585  0.0173  0.4236  0.0559
  100SAPS   H8X10108   2.659   2.598   7.596  0.9102  0.2797 -0.1557
  100SAPS   H8Y10109   2.572   2.754   7.582 -0.3546 -0.3458  0.3033
  100SAPS   C3910110   2.738   2.772   7.705 -0.0450  0.4875 -0.1655
  100SAPS   H9X10111   2.698   2.876   7.708 -1.7234 -0.1257 -0.1805
  100SAPS   H9Y10112   2.848   2.784   7.692  0.1950 -0.3785  0.9060
  100SAPS  C31010113   2.712   2.696   7.837  0.3570  0.1371  0.3102
  100SAPS  H10X10114   2.734   2.591   7.809 -1.3207  0.1587 -1.2819
  100SAPS  H10Y10115   2.602   2.706   7.838  0.2536 -0.9524  0.8744
  100SAPS  C31110116   2.765   2.737   7.968 -0.1783  0.1396  0.1646
  100SAPS  H11X10117   2.752   2.844   7.993 -0.1891  0.6695 -1.9633
  100SAPS  H11Y10118   2.872   2.711   7.952 -0.3759 -1.6630  1.4945
  100SAPS  C31210119   2.713   2.648   8.090 -0.0340 -0.1587 -0.4182
  100SAPS  H12X10120   2.787   2.651   8.173 -0.3177 -0.6277 -0.1427
  100SAPS  H12Y10121   2.703   2.544   8.051 -0.2234 -0.4016  0.2622
  100SAPS  C31310122   2.574   2.682   8.147 -0.3219 -0.0973  0.1647
  100SAPS  H13X10123   2.523   2.743   8.070 -0.2234  0.4618  0.5399
  100SAPS  H13Y10124   2.589   2.739   8.241 -0.5758 -2.3415  1.6624
  100SAPS  C31410125   2.475   2.564   8.170 -0.4803 -0.7222  0.3490
  100SAPS  H14X10126   2.467   2.510   8.073 -2.0692  2.1452 -1.2742
  100SAPS  H14Y10127   2.371   2.598   8.188 -0.4009 -1.1208  1.6070
  100SAPS  C31510128   2.512   2.477   8.282 -0.1463  0.5263 -0.2264
  100SAPS  H15X10129   2.558   2.540   8.360  1.2424  0.2925 -0.8371
  100SAPS  H15Y10130   2.587   2.399   8.259 -2.1002 -1.0585 -1.6364
  100SAPS  C31610131   2.387   2.409   8.347 -0.5592  0.1829 -0.8064
  100SAPS  H16X10132   2.326   2.347   8.278 -0.8067 -0.1955 -0.2529
  100SAPS  H16Y10133   2.336   2.495   8.395 -0.2878  0.0952 -0.3575
  100SAPS  C31710134   2.410   2.297   8.454 -0.8465  0.2076  0.5738
  100SAPS  H17X10135   2.308   2.280   8.496 -0.7507 -0.5637  0.4901
  100SAPS  H17Y10136   2.474   2.355   8.524  0.2998 -0.1524 -0.1472
  100SAPS  C31810137   2.467   2.169   8.404  0.1946 -0.2660 -0.3177
  100SAPS  H18X10138   2.571   2.172   8.367  1.0207 -0.5902  1.8126
  100SAPS  H18Y10139   2.400   2.129   8.325  1.0233  0.1503 -1.2316
  100SAPS  H18Z10140   2.469   2.100   8.492 -4.4300  0.1313  0.3554
  101OSM      N10141   5.861   1.137  11.110  0.4209 -0.0963  0.2854
  101OSM    C1510142   5.979   1.045  11.111  0.0211 -0.4112  0.0021
  101OSM   H15A10143   5.971   0.959  11.046  1.0625 -0.2383 -0.3733
  101OSM   H15B10144   5.996   1.006  11.210  0.0082 -1.3126 -0.3425
  101OSM   H15C10145   6.064   1.102  11.078 -0.5363  0.6846  0.4252
  101OSM    C1410146   5.751   1.048  11.170  0.1233  0.1051 -0.0038
  101OSM   H14A10147   5.767   0.946  11.139  2.6187 -0.3089  2.2843
  101OSM   H14B10148   5.649   1.084  11.163  0.5123  1.1227 -0.4917
  101OSM   H14C10149   5.777   1.050  11.275 -1.7260  2.7585  0.5146
  101OSM    C1310150   5.888   1.253  11.200  0.9222  0.0605  0.4286
  101OSM   H13A10151   5.790   1.292  11.221 -0.2842 -1.7608 -1.4086
  101OSM   H13B10152   5.950   1.328  11.152  1.9651  0.3632  2.1771
  101OSM   H13C10153   5.941   1.212  11.284  1.3243 -0.0598  0.1220
  101OSM    C1210154   5.820   1.172  10.965 -0.4999  0.2379 -0.3991
  101OSM   H12A10155   5.726   1.225  10.968 -0.1296  0.9568 -1.0177
  101OSM   H12B10156   5.803   1.081  10.909  0.0789 -2.4314  3.3603
  101OSM    C1110157   5.923   1.252  10.886  0.0917  0.0712  0.6075
  101OSM   H11A10158   5.881   1.276  10.786  0.7701  1.4792  0.6277
  101OSM   H11B10159   6.015   1.193  10.866  0.4526  1.4750 -2.3810
  101OSM      P10160   6.066   1.465  10.905  0.2187 -0.0004 -0.0960
  101OSM    O1310161   6.078   1.579  10.998  0.1872 -0.7173 -0.3681
  101OSM    O1410162   6.183   1.382  10.870 -0.2655 -0.1966  0.2089
  101OSM    O1110163   6.000   1.517  10.764 -0.2197  0.1410  0.5827
  101OSM    O1210164   5.955   1.373  10.957  0.1114 -0.0738 -0.1599
  101OSM    C1S10165   6.079   1.595  10.675 -0.1925  0.0537  1.0592
  101OSM    H1S10166   6.186   1.565  10.671 -0.3999 -0.5090 -1.5035
  101OSM    H1T10167   6.073   1.705  10.682  0.6788  0.1599  0.2233
  101OSM     NF10168   6.126   1.589  10.433 -0.3177  0.4381  0.0919
  101OSM    HNF10169   6.113   1.679  10.393  1.1361  0.4623 -0.3992
  101OSM    C2S10170   6.026   1.549  10.534 -0.8608 -0.2286  0.4694
  101OSM    H2S10171   6.022   1.438  10.539  0.1905 -0.2274  2.0073
  101OSM    C3S10172   5.887   1.617  10.519  0.0419  0.4375  0.3452
  101OSM    H3S10173   5.894   1.727  10.533 -1.3959  0.9193 -2.1322
  101OSM     O310174   5.791   1.563  10.609  0.6359 -0.3740  0.2717
  101OSM    HO310175   5.841   1.499  10.659  0.0284 -1.3211 -0.3095
  101OSM    C4S10176   5.847   1.592  10.378  0.7591 -0.7163  0.1096
  101OSM    H4S10177   5.872   1.497  10.328  0.9888 -0.4417 -0.3015
  101OSM    C5S10178   5.780   1.681  10.301 -0.0742 -0.0873 -0.5540
  101OSM    H5S10179   5.756   1.776  10.350 -2.2461  0.7377 -2.9888
  101OSM    C6S10180   5.750   1.653  10.159  0.0640  0.2734  0.3559
  101OSM    H6S10181   5.643   1.678  10.144 -0.5061  2.4368  5.6776
  101OSM    H6T10182   5.759   1.545  10.138  1.8872  0.6611 -1.0680
  101OSM    C7S10183   5.829   1.723  10.051 -0.2447  0.2923 -0.4380
  101OSM    H7S10184   5.808   1.674   9.953  1.7825  0.9505 -1.2511
  101OSM    H7T10185   5.938   1.708  10.068  0.0213  0.9944 -1.4453
  101OSM    C8S10186   5.805   1.874  10.052  0.9011 -0.0612 -0.5877
  101OSM    H8S10187   5.819   1.915  10.154 -1.4541  1.9089 -0.9554
  101OSM    H8T10188   5.698   1.895  10.033  0.9446 -0.9725 -1.9673
  101OSM    C9S10189   5.884   1.957   9.946  1.0760 -0.8695 -0.1289
  101OSM    H9S10190   5.988   1.932   9.975  1.7420  2.4122  0.7895
  101OSM    H9T10191   5.877   2.067   9.960  1.2859 -0.9479  0.6622
  101OSM   C10S10192   5.854   1.924   9.803 -0.1729  0.2648  0.5048
  101OSM   H10S10193   5.800   1.829   9.784 -1.6118  1.2517 -0.5807
  101OSM   H10T10194   5.940   1.919   9.733 -1.2428 -1.3257 -0.7806
  101OSM   C11S10195   5.763   2.028   9.740 -0.6457 -0.2204  0.2960
  101OSM   H11S10196   5.805   2.129   9.759 -2.6627  0.6026  0.7060
  101OSM   H11T10197   5.674   2.021   9.807  0.6050 -2.2098  1.8411
  101OSM   C12S10198   5.730   2.019   9.585 -0.0571  0.1551  0.2368
  101OSM   H12S10199   5.653   2.095   9.558  1.1286  0.6867 -1.8314
  101OSM   H12T10200   5.700   1.920   9.545 -3.9901  1.0453  0.5780
  101OSM   C13S10201   5.851   2.060   9.506 -0.0585 -0.3541  0.0172
  101OSM   H13S10202   5.934   1.985   9.509  1.1857  1.0026  1.0708
  101OSM   H13T10203   5.894   2.151   9.552  2.1641 -2.9274  3.6275
  101OSM   C14S10204   5.816   2.069   9.358  0.5180  0.1364  0.0467
  101OSM   H14S10205   5.725   2.132   9.346  1.0749  1.2058  1.2335
  101OSM   H14T10206   5.791   1.962   9.343 -1.3352 -0.0904  3.6204
  101OSM   C15S10207   5.938   2.116   9.271 -0.0482  0.0376 -0.5479
  101OSM   H15S10208   6.021   2.045   9.291 -0.9322 -0.8034  0.2514
  101OSM   H15T10209   5.975   2.214   9.309  0.6112 -0.8466  1.2501
  101OSM   C16S10210   5.913   2.117   9.123 -0.0663 -0.2635 -0.2358
  101OSM   H16S10211   5.988   2.163   9.055  1.2114 -0.1144  1.2134
  101OSM   H16T10212   5.818   2.170   9.099  0.5794  0.4253 -1.3065
  101OSM   C17S10213   5.920   1.975   9.069 -0.0917  0.3967 -0.1520
  101OSM   H17S10214   5.850   1.908   9.124 -0.0176  0.6048  0.1974
  101OSM   H17T10215   6.018   1.931   9.099  0.1120 -1.0073 -2.6251
  101OSM   C18S10216   5.905   1.976   8.915 -0.1029  0.1731  0.2461
  101OSM   H18S10217   5.982   2.040   8.868  0.7884 -1.2154 -0.2454
  101OSM   H18T10218   5.808   2.009   8.872  0.5933 -1.2721 -2.7276
  101OSM   H18U10219   5.931   1.875   8.875 -1.0482 -0.5564  1.4179
  101OSM    C1F10220   6.240   1.519  10.418 -0.1864 -0.1166 -0.7074
  101OSM     OF10221   6.257   1.408  10.463 -0.1412 -0.1575  0.0555
  101OSM    C2F10222   6.348   1.604  10.352 -0.3330 -0.0516 -0.0026
  101OSM    H2F10223   6.402   1.664  10.428  1.9433  0.6068 -2.0242
  101OSM    H2G10224   6.297   1.668  10.276  1.4374 -0.3659 -1.5431
  101OSM    C3F10225   6.444   1.518  10.267 -0.0475  0.5808 -0.0907
  101OSM    H3F10226   6.395   1.469  10.181  2.1555 -0.1009 -1.0308
  101OSM    H3G10227   6.489   1.443  10.335  0.9105  2.8787  1.9492
  101OSM    C4F10228   6.559   1.608  10.204 -0.1437 -0.0938  0.4410
  101OSM    H4F10229   6.596   1.541  10.123 -1.2800  0.3669 -0.4942
  101OSM    H4G10230   6.647   1.632  10.266  0.2150  0.0360 -0.1130
  101OSM    C5F10231   6.511   1.733  10.125 -0.1923  0.3078  0.5762
  101OSM    H5F10232   6.458   1.809  10.187  1.4678  1.9695  0.0395
  101OSM    H5G10233   6.438   1.691  10.052  0.1266 -0.2894  0.5917
  101OSM    C6F10234   6.629   1.807  10.057  0.4715 -0.1067 -0.1494
  101OSM    H6F10235   6.692   1.732  10.006  1.3645 -0.0565  0.8376
  101OSM    H6G10236   6.696   1.850  10.135  2.0496 -1.5456 -0.6511
  101OSM    C7F10237   6.583   1.917   9.963 -0.0104  0.4585  0.0087
  101OSM    H7F10238   6.555   2.013  10.013 -0.4566  0.7096 -0.7067
  101OSM    H7G10239   6.490   1.881   9.914 -1.3276  1.3933  1.7084
  101OSM    C8F10240   6.677   1.932   9.844 -0.1291 -0.3399  0.1573
  101OSM    H8F10241   6.682   1.837   9.786 -0.5738 -0.2037 -0.1127
  101OSM    H8G10242   6.781   1.956   9.873 -0.5096 -0.1046  1.3731
  101OSM    C9F10243   6.618   2.045   9.756 -0.2832  0.4165  0.3741
  101OSM    H9F10244   6.581   2.132   9.812 -0.0796  0.2199  0.8259
  101OSM   C10F10245   6.593   2.045   9.620 -0.3806  0.1910  0.0428
  101OSM   H10F10246   6.563   2.141   9.576 -1.2512 -0.6697 -1.3124
  101OSM   C11F10247   6.620   1.936   9.520 -0.1541  0.0670 -0.0879
  101OSM   H11F10248   6.530   1.871   9.522 -0.1925  0.1293  0.8666
  101OSM   H11G10249   6.709   1.870   9.532  1.9470  2.5757 -0.9737
  101OSM   C12F10250   6.651   2.001   9.379  0.7714  0.3839  0.0634
  101OSM   H12F10251   6.746   2.057   9.394  2.1771 -2.1480  1.3076
  101OSM   H12G10252   6.563   2.062   9.350 -0.8367 -1.6827  0.3846
  101OSM   C13F10253   6.681   1.910   9.265 -0.5471  0.3413  0.4186
  101OSM   H13F10254   6.773   1.850   9.286  1.9729  3.7876  0.1557
  101OSM   H13G10255   6.717   1.971   9.180 -0.0707  1.8501  1.6533
  101OSM   C14F10256   6.571   1.806   9.215 -0.5249  0.2756 -0.9521
  101OSM   H14F10257   6.479   1.864   9.196 -0.3163  0.5447 -1.1429
  101OSM   H14G10258   6.564   1.739   9.304  1.5240 -0.4767 -1.2983
  101OSM   C15F10259   6.610   1.724   9.088 -0.0273  0.1671 -0.2082
  101OSM   H15F10260   6.696   1.762   9.030  0.5921 -0.4365  0.3076
  101OSM   H15G10261   6.528   1.713   9.014  2.0220  3.3086 -3.2601
  101OSM   C16F10262   6.651   1.582   9.136  0.4392  0.5052  0.2860
  101OSM   H16F10263   6.556   1.536   9.171  0.4324  0.6938  0.5163
  101OSM   H16G10264   6.729   1.587   9.215  0.2643  0.7081  0.4468
  101OSM   C17F10265   6.709   1.500   9.021 -0.3052 -0.2605 -0.1203
  101OSM   H17F10266   6.738   1.399   9.059  0.8014 -0.0104 -0.2589
  101OSM   H17G10267   6.801   1.554   8.989  0.1643 -0.2359  1.2063
  101OSM   C18F10268   6.616   1.488   8.895 -0.2264 -0.5027  0.2325
  101OSM   H18F10269   6.680   1.424   8.831 -1.1157 -0.6505 -0.5422
  101OSM   H18G10270   6.584   1.580   8.841  0.3677  0.3086  1.2201
  101OSM   H18H10271   6.524   1.428   8.911 -0.5073 -0.5350 -1.3519
  102OSM      N10272   0.091   0.403  10.901 -0.0152  0.0220 -0.8589
  102OSM    C1510273   0.006   0.354  11.007 -0.5841  0.4357  0.4087
  102OSM   H15A10274  -0.031   0.262  10.963 -0.9477  0.2007  1.1916
  102OSM   H15B10275  -0.082   0.411  11.034  0.5863  2.1567  0.7652
  102OSM   H15C10276   0.055   0.328  11.100  1.8664  0.6574 -0.7520
  102OSM    C1410277   0.172   0.523  10.938  0.3752  0.1591  0.6521
  102OSM   H14A10278   0.233   0.561  10.858 -1.5618  2.2615  0.0685
  102OSM   H14B10279   0.228   0.504  11.028  1.8639  1.9606  0.1647
  102OSM   H14C10280   0.105   0.603  10.967  0.5362 -0.2446  2.2055
  102OSM    C1310281   0.193   0.293  10.869 -0.3549 -0.9174 -0.6920
  102OSM   H13A10282   0.248   0.303  10.777  0.8432  0.4519  0.1342
  102OSM   H13B10283   0.146   0.196  10.864 -1.1108 -0.5052 -3.8146
  102OSM   H13C10284   0.262   0.285  10.951 -1.1978  0.6124  0.2097
  102OSM    C1210285   0.013   0.425  10.775  0.1945 -0.1194  0.1168
  102OSM   H12A10286  -0.054   0.341  10.759 -0.2777  0.4256 -0.8334
  102OSM   H12B10287   0.087   0.429  10.696  0.7368  0.1706  0.6318
  102OSM    C1110288  -0.078   0.547  10.745 -0.6120  0.2057 -0.2693
  102OSM   H11A10289  -0.105   0.545  10.638 -0.0330  1.6620 -0.4610
  102OSM   H11B10290  -0.015   0.638  10.754 -2.1557  1.1989  0.7637
  102OSM      P10291  -0.304   0.454  10.828 -0.2063 -0.1155  0.0356
  102OSM    O1310292  -0.250   0.317  10.806  0.2912  0.1144 -0.1090
  102OSM    O1410293  -0.390   0.473  10.943  0.6734 -0.2869  0.0862
  102OSM    O1110294  -0.387   0.493  10.697  0.0602  0.0806  0.6267
  102OSM    O1210295  -0.180   0.552  10.839 -0.0821 -0.4709 -0.2047
  102OSM    C1S10296  -0.394   0.628  10.656  0.3881  0.1848 -1.1719
  102OSM    H1S10297  -0.295   0.670  10.626  0.6529 -0.3266 -1.0196
  102OSM    H1T10298  -0.441   0.686  10.738  0.5570  0.3996 -1.2228
  102OSM     NF10299  -0.488   0.789  10.508 -0.5360  0.2001  0.3118
  102OSM    HNF10300  -0.566   0.843  10.539  0.3492  1.4855  0.3994
  102OSM    C2S10301  -0.482   0.649  10.533  0.0491 -0.4531  0.7674
  102OSM    H2S10302  -0.444   0.603  10.439 -0.3181 -0.7911  0.7839
  102OSM    C3S10303  -0.627   0.594  10.551 -0.4958 -0.4267 -0.6601
  102OSM    H3S10304  -0.679   0.646  10.634  0.2636 -2.5141  1.2241
  102OSM     O310305  -0.627   0.456  10.592  0.1784 -0.2018  0.3386
  102OSM    HO310306  -0.536   0.434  10.610 -0.0748 -0.2535  1.7036
  102OSM    C4S10307  -0.698   0.610  10.416  0.0345 -0.4982 -0.2339
  102OSM    H4S10308  -0.741   0.710  10.405 -0.3168 -0.5706  0.4451
  102OSM    C5S10309  -0.712   0.508  10.327  0.3172 -0.1776 -0.1833
  102OSM    H5S10310  -0.677   0.407  10.353 -0.4973 -0.3312  0.3927
  102OSM    C6S10311  -0.783   0.526  10.196  0.4181  0.6355 -0.6557
  102OSM    H6S10312  -0.827   0.427  10.172  0.7180 -0.0695  1.4202
  102OSM    H6T10313  -0.700   0.535  10.122  0.3197  1.4249 -0.6732
  102OSM    C7S10314  -0.885   0.641  10.177  0.5231  0.1747  0.1376
  102OSM    H7S10315  -0.831   0.737  10.189 -1.2790  1.5640 -1.9115
  102OSM    H7T10316  -0.973   0.629  10.244  0.1173  0.1590 -0.3884
  102OSM    C8S10317  -0.924   0.630  10.031 -0.3270 -0.3959  0.2356
  102OSM    H8S10318  -1.004   0.552  10.033 -0.8805  0.1752  1.2124
  102OSM    H8T10319  -0.842   0.596   9.964 -0.2876 -3.8650  1.8012
  102OSM    C9S10320  -0.985   0.766   9.990  0.1971 -0.1098  0.0250
  102OSM    H9S10321  -0.909   0.846   9.997 -0.5657  0.9130 -2.2980
  102OSM    H9T10322  -1.057   0.789  10.072  2.3044 -2.5459  2.7832
  102OSM   C10S10323  -1.053   0.759   9.853  0.0271  0.3255 -0.1924
  102OSM   H10S10324  -1.137   0.687   9.851  0.5581 -0.3573  0.8504
  102OSM   H10T10325  -0.977   0.714   9.786 -0.0783 -4.0606  2.2390
  102OSM   C11S10326  -1.086   0.896   9.786 -0.3006  0.8105 -0.6132
  102OSM   H11S10327  -1.011   0.967   9.827  1.7177 -1.2750 -0.4611
  102OSM   H11T10328  -1.189   0.921   9.820 -0.6232  2.4016 -2.5542
  102OSM   C12S10329  -1.080   0.897   9.634  0.3647 -0.0747  0.5323
  102OSM   H12S10330  -1.142   0.817   9.587  0.3599 -0.3273  0.9615
  102OSM   H12T10331  -0.976   0.882   9.598  0.6395  2.9432 -0.2252
  102OSM   C13S10332  -1.118   1.040   9.575  0.7673 -0.2349 -0.6359
  102OSM   H13S10333  -1.050   1.113   9.623  2.2202 -0.6537 -1.9744
  102OSM   H13T10334  -1.221   1.074   9.596  0.5833 -1.6362  0.9683
  102OSM   C14S10335  -1.103   1.052   9.425 -0.4538 -0.0192 -0.8185
  102OSM   H14S10336  -1.149   1.148   9.390  1.8875  1.7198  0.5941
  102OSM   H14T10337  -1.175   0.978   9.385 -0.4285 -0.2438 -0.4455
  102OSM   C15S10338  -0.957   1.057   9.368  0.5588  0.0575  0.0454
  102OSM   H15S10339  -0.918   0.953   9.365 -0.4716 -0.3401 -3.6122
  102OSM   H15T10340  -0.900   1.133   9.427 -0.6684 -0.0291  1.4117
  102OSM   C16S10341  -0.930   1.094   9.228  0.8332 -0.9100  0.8095
  102OSM   H16S10342  -0.975   1.194   9.208  1.2715 -0.8457  0.1347
  102OSM   H16T10343  -0.987   1.029   9.159 -1.3195  2.9410 -1.4319
  102OSM   C17S10344  -0.782   1.102   9.189 -0.3802 -0.0441 -0.3116
  102OSM   H17S10345  -0.723   1.015   9.223 -0.1497  0.9284  1.9103
  102OSM   H17T10346  -0.748   1.192   9.244 -1.5682  0.5652 -0.5281
  102OSM   C18S10347  -0.767   1.134   9.047 -0.6636  0.0413  0.1356
  102OSM   H18S10348  -0.792   1.237   9.014  1.2280 -0.2004 -2.3959
  102OSM   H18T10349  -0.832   1.073   8.979  1.0232  1.2647 -2.7619
  102OSM   H18U10350  -0.671   1.100   9.002 -1.0849 -0.7808 -0.1763
  102OSM    C1F10351  -0.403   0.851  10.429  0.5945 -0.1231  0.5833
  102OSM     OF10352  -0.287   0.813  10.421  0.2731  0.1809  0.1373
  102OSM    C2F10353  -0.461   0.973  10.353 -0.1847 -0.1164 -0.6175
  102OSM    H2F10354  -0.404   1.062  10.388  1.7982 -1.4883 -0.1403
  102OSM    H2G10355  -0.569   0.989  10.375 -0.0420 -0.5072  0.4437
  102OSM    C3F10356  -0.438   0.948  10.202 -0.0717 -0.1982  0.0681
  102OSM    H3F10357  -0.332   0.922  10.182 -0.5422 -0.4639 -2.5114
  102OSM    H3G10358  -0.470   1.033  10.137 -1.0992 -1.4187 -1.0746
  102OSM    C4F10359  -0.512   0.825  10.150  0.3271 -0.2999 -0.0007
  102OSM    H4F10360  -0.620   0.824  10.178 -0.7896  0.0328 -3.7338
  102OSM    H4G10361  -0.461   0.735  10.190  0.2235  0.5224  2.0516
  102OSM    C5F10362  -0.508   0.817   9.993  0.3401  0.1528 -0.1902
  102OSM    H5F10363  -0.550   0.718   9.964  0.5778 -0.4760  1.4954
  102OSM    H5G10364  -0.407   0.828   9.950  0.0914  0.5992 -0.6675
  102OSM    C6F10365  -0.588   0.927   9.923  0.5545 -1.1117  0.3790
  102OSM    H6F10366  -0.562   1.030   9.958 -0.4546 -0.4110 -0.8291
  102OSM    H6G10367  -0.697   0.912   9.939  0.8595 -0.6044  3.6824
  102OSM    C7F10368  -0.572   0.925   9.764  0.2827  0.3420 -0.1734
  102OSM    H7F10369  -0.596   0.823   9.725 -1.5760  1.0817 -1.0894
  102OSM    H7G10370  -0.470   0.938   9.722  1.2516 -0.2746  1.8878
  102OSM    C8F10371  -0.665   1.019   9.693 -0.5252 -0.5476 -0.7861
  102OSM    H8F10372  -0.766   1.015   9.740  0.2600  2.0141  1.3341
  102OSM    H8G10373  -0.668   0.984   9.587  0.9632  0.5802 -1.2237
  102OSM    C9F10374  -0.602   1.154   9.709 -0.3991 -0.2381 -0.0697
  102OSM    H9F10375  -0.596   1.189   9.813 -0.2427  1.0723 -0.4998
  102OSM   C10F10376  -0.550   1.238   9.614 -0.4888 -0.3402 -0.7142
  102OSM   H10F10377  -0.524   1.342   9.640 -2.6631  0.1548 -0.3075
  102OSM   C11F10378  -0.556   1.210   9.468 -0.3436  0.5584 -0.2003
  102OSM   H11F10379  -0.587   1.302   9.415 -2.2391  0.8741  1.3411
  102OSM   H11G10380  -0.632   1.131   9.448 -0.7400  0.8656  0.0853
  102OSM   C12F10381  -0.422   1.148   9.432 -0.4612  0.5730  0.1037
  102OSM   H12F10382  -0.405   1.046   9.474  0.4652 -0.0213 -1.5947
  102OSM   H12G10383  -0.337   1.213   9.460 -0.4652  0.9031 -0.6205
  102OSM   C13F10384  -0.415   1.129   9.282 -0.0058 -0.2178 -0.1710
  102OSM   H13F10385  -0.446   1.231   9.248 -0.7944 -0.0201  1.0878
  102OSM   H13G10386  -0.482   1.046   9.254  0.1807 -0.1230 -0.9226
  102OSM   C14F10387  -0.278   1.114   9.214  0.7498  0.3789  0.3699
  102OSM   H14F10388  -0.225   1.022   9.245 -0.4909 -0.2140  0.7813
  102OSM   H14G10389  -0.227   1.212   9.231 -0.9739  1.6087 -1.0394
  102OSM   C15F10390  -0.298   1.109   9.058  0.3918  0.2886  0.0308
  102OSM   H15F10391  -0.346   1.202   9.020  0.7752 -0.1763 -1.6578
  102OSM   H15G10392  -0.354   1.018   9.028  0.7416  0.8693 -2.5752
  102OSM   C16F10393  -0.151   1.085   8.994  0.1036  0.3083 -0.8473
  102OSM   H16F10394  -0.106   0.993   9.036 -0.8305 -0.5871 -1.7734
  102OSM   H16G10395  -0.088   1.172   9.025 -0.2203  0.8454 -1.6632
  102OSM   C17F10396  -0.170   1.077   8.846  0.1869  0.2289 -0.3029
  102OSM   H17F10397  -0.068   1.083   8.802  1.5851  0.8378  2.7432
  102OSM   H17G10398  -0.224   1.169   8.814  0.0717  0.5811  0.8466
  102OSM   C18F10399  -0.244   0.948   8.795  0.3738  0.2817  1.2697
  102OSM   H18F10400  -0.351   0.937   8.823 -0.1840  0.6363 -0.6024
  102OSM   H18G10401  -0.180   0.862   8.827  0.3905  0.1901  0.9894
  102OSM   H18H10402  -0.258   0.941   8.685 -1.0380 -4.1419  1.5312
  103OSM      N10403   0.992   1.815  10.803 -0.2446 -0.3280  0.1382
  103OSM    C1510404   1.027   1.677  10.844 -0.3689  0.6912  1.4297
  103OSM   H15A10405   1.128   1.680  10.882  0.1914  0.8425 -0.0109
  103OSM   H15B10406   1.014   1.603  10.767  1.5028  0.4740  1.2697
  103OSM   H15C10407   0.964   1.635  10.921 -0.7441  0.1119  0.8208
  103OSM    C1410408   0.847   1.814  10.769 -0.4718 -0.2025 -0.0353
  103OSM   H14A10409   0.787   1.781  10.853 -0.0170  1.7215  1.1193
  103OSM   H14B10410   0.818   1.745  10.691 -0.8320  1.9168 -1.8620
  103OSM   H14C10411   0.817   1.913  10.738  0.6448  0.8840  2.1335
  103OSM    C1310412   1.035   1.918  10.907  0.1715 -0.4933 -0.0075
  103OSM   H13A10413   0.997   1.905  11.007 -0.7573  1.1183 -0.1190
  103OSM   H13B10414   1.014   2.014  10.862  0.0270 -1.0833 -1.2546
  103OSM   H13C10415   1.142   1.920  10.918  0.2008  0.2226 -0.3784
  103OSM    C1210416   1.068   1.843  10.671  0.0894 -0.0052  0.0765
  103OSM   H12A10417   1.017   1.783  10.598 -3.2577  0.0706  2.1348
  103OSM   H12B10418   1.171   1.810  10.682 -0.0981 -1.1641 -1.4337
  103OSM    C1110419   1.077   1.989  10.624  0.5992 -0.0206  0.0354
  103OSM   H11A10420   1.116   1.986  10.520 -1.6646  1.9328 -0.9801
  103OSM   H11B10421   1.143   2.048  10.690  0.1589 -0.2395  0.6884
  103OSM      P10422   0.914   2.187  10.687  0.2035 -0.2268 -0.3076
  103OSM    O1310423   0.766   2.198  10.708  0.2987  0.0919  0.3537
  103OSM    O1410424   1.010   2.236  10.792 -0.2606  0.0959  0.3107
  103OSM    O1110425   0.944   2.280  10.569 -0.5733  0.0192  0.4331
  103OSM    O1210426   0.951   2.045  10.629  0.1484  0.0917 -0.2368
  103OSM    C1S10427   0.852   2.281  10.458 -0.4463 -0.4230  0.0792
  103OSM    H1S10428   0.747   2.298  10.489 -0.4609  0.7869 -0.6030
  103OSM    H1T10429   0.853   2.182  10.407  0.4688 -0.2193 -0.3283
  103OSM     NF10430   0.821   2.339  10.219  0.5536  0.5786 -0.2119
  103OSM    HNF10431   0.858   2.288  10.142 -1.1019 -0.5601 -0.2846
  103OSM    C2S10432   0.902   2.367  10.337 -0.9891 -0.0462 -0.3910
  103OSM    H2S10433   0.891   2.473  10.368  1.9416  1.0789 -2.7059
  103OSM    C3S10434   1.055   2.344  10.315 -0.0957  0.0553  0.1662
  103OSM    H3S10435   1.088   2.242  10.287  0.6873  0.2915  0.2135
  103OSM     O310436   1.136   2.372  10.431 -0.2564  0.1314  0.6136
  103OSM    HO310437   1.072   2.356  10.502  0.7822 -1.5724  1.2369
  103OSM    C4S10438   1.094   2.427  10.192  0.1991  0.1520 -0.4145
  103OSM    H4S10439   1.086   2.370  10.098 -0.4316 -0.5669  0.0603
  103OSM    C5S10440   1.137   2.548  10.187 -0.0907 -0.5019 -0.8897
  103OSM    H5S10441   1.169   2.593  10.282 -1.3903 -1.2858 -0.0467
  103OSM    C6S10442   1.178   2.631  10.073 -0.0116  0.1274  0.5878
  103OSM    H6S10443   1.286   2.620  10.047 -0.3762  0.2237 -1.0627
  103OSM    H6T10444   1.180   2.736  10.110  2.3552  0.0847  0.7433
  103OSM    C7S10445   1.093   2.609   9.948  0.4807 -0.1694  0.4521
  103OSM    H7S10446   0.990   2.603   9.987  0.8393 -0.3656  1.3882
  103OSM    H7T10447   1.107   2.510   9.899 -2.5038 -0.9181  0.9327
  103OSM    C8S10448   1.093   2.713   9.844 -0.0671  0.2512 -0.0139
  103OSM    H8S10449   1.189   2.705   9.789 -0.8102 -0.1422 -1.3019
  103OSM    H8T10450   1.086   2.819   9.874  0.2733  0.6899 -1.3833
  103OSM    C9S10451   0.990   2.687   9.734 -0.6953  0.0197 -0.6056
  103OSM    H9S10452   0.889   2.695   9.779 -1.1311  1.3360 -1.7406
  103OSM    H9T10453   0.998   2.583   9.696 -3.2845  0.0319 -1.3770
  103OSM   C10S10454   1.003   2.784   9.619  0.0487 -0.4989  0.0955
  103OSM   H10S10455   1.024   2.888   9.653  0.0598  0.0137 -1.3845
  103OSM   H10T10456   0.909   2.785   9.560 -1.1401  1.6016  1.8867
  103OSM   C11S10457   1.115   2.756   9.520  0.0664  0.0580 -0.6020
  103OSM   H11S10458   1.135   2.648   9.509  0.9458 -0.1091  1.9921
  103OSM   H11T10459   1.211   2.794   9.561 -1.4689 -0.3555  3.9652
  103OSM   C12S10460   1.102   2.840   9.387 -0.8619 -0.5297  0.2630
  103OSM   H12S10461   1.201   2.874   9.350 -1.2539 -0.6405 -0.9469
  103OSM   H12T10462   1.049   2.937   9.404 -1.0022 -0.5504 -0.0466
  103OSM   C13S10463   1.021   2.754   9.285 -0.4805  0.4242  0.1897
  103OSM   H13S10464   0.915   2.741   9.317 -0.3133 -0.8101  0.2636
  103OSM   H13T10465   1.070   2.655   9.286  0.0363  0.6845  0.7037
  103OSM   C14S10466   1.012   2.820   9.143 -0.3617  0.4082  0.0600
  103OSM   H14S10467   1.110   2.860   9.111  0.6249  0.7601  3.2028
  103OSM   H14T10468   0.948   2.908   9.168  0.3234  0.0823  3.4266
  103OSM   C15S10469   0.949   2.725   9.043  0.3047 -0.2905 -0.2314
  103OSM   H15S10470   0.918   2.777   8.950  0.2311 -2.3747 -1.4295
  103OSM   H15T10471   0.856   2.681   9.084 -0.5254 -2.6722 -4.1506
  103OSM   C16S10472   1.034   2.595   9.009  0.1577 -0.1456 -0.1361
  103OSM   H16S10473   1.039   2.529   9.098 -0.2582  0.1738  0.1291
  103OSM   H16T10474   1.133   2.642   8.992  0.2645  0.4718  1.8589
  103OSM   C17S10475   0.980   2.512   8.896 -0.0354  0.1907  0.2504
  103OSM   H17S10476   0.979   2.590   8.817 -0.7623  1.0316  1.0618
  103OSM   H17T10477   0.877   2.472   8.904  0.2517 -0.9139 -1.1540
  103OSM   C18S10478   1.078   2.398   8.853  0.3265 -0.3158  0.2995
  103OSM   H18S10479   1.051   2.313   8.919  1.0569  0.2159  1.3198
  103OSM   H18T10480   1.187   2.420   8.861  0.2974  0.2804 -0.7704
  103OSM   H18U10481   1.057   2.371   8.747 -0.4987  3.7561 -0.7413
  103OSM    C1F10482   0.705   2.401  10.205  0.0554 -0.1962 -0.7571
  103OSM     OF10483   0.640   2.442  10.298  0.1974 -0.1775  0.2752
  103OSM    C2F10484   0.670   2.426  10.059  0.4978  0.2478 -0.0279
  103OSM    H2F10485   0.711   2.341  10.000 -0.8445 -1.1071  0.9297
  103OSM    H2G10486   0.729   2.517  10.034  1.5844 -0.3488  0.2940
  103OSM    C3F10487   0.519   2.459  10.021  0.0128 -0.7302  0.4120
  103OSM    H3F10488   0.470   2.520  10.099 -0.2699  0.2372 -0.4904
  103OSM    H3G10489   0.471   2.359  10.023 -2.2418  0.1334 -2.5996
  103OSM    C4F10490   0.503   2.524   9.881 -0.4996 -0.3370 -0.4056
  103OSM    H4F10491   0.564   2.615   9.896 -0.0889 -0.9631  2.1910
  103OSM    H4G10492   0.399   2.559   9.861  0.1524  1.4705 -0.8015
  103OSM    C5F10493   0.585   2.458   9.765  0.5763 -0.3206 -0.0603
  103OSM    H5F10494   0.542   2.357   9.747 -1.1422  0.0118  1.7098
  103OSM    H5G10495   0.689   2.441   9.800  1.2812  1.1949 -1.3211
  103OSM    C6F10496   0.594   2.554   9.645  0.2960 -0.1578 -0.5955
  103OSM    H6F10497   0.664   2.638   9.664 -0.2544  0.3342 -0.7176
  103OSM    H6G10498   0.496   2.606   9.635 -0.4615 -0.8101  2.3856
  103OSM    C7F10499   0.634   2.472   9.524  0.0100 -0.1223 -0.0257
  103OSM    H7F10500   0.549   2.421   9.474 -1.4837  0.1325  2.1368
  103OSM    H7G10501   0.701   2.386   9.550 -0.8088 -0.6186  0.4798
  103OSM    C8F10502   0.699   2.569   9.423  0.8807  0.8266  0.6728
  103OSM    H8F10503   0.763   2.637   9.484 -0.0127  0.4078  2.1353
  103OSM    H8G10504   0.616   2.638   9.399  0.7232  0.5151  0.3143
  103OSM    C9F10505   0.773   2.505   9.316 -0.0777  0.0425  0.3277
  103OSM    H9F10506   0.882   2.512   9.329 -0.0980  0.3443  0.3384
  103OSM   C10F10507   0.718   2.468   9.200  0.8882  1.0657 -0.6201
  103OSM   H10F10508   0.787   2.431   9.121  0.2316 -2.7531  0.3747
  103OSM   C11F10509   0.567   2.468   9.161 -0.0472  0.2829 -0.0083
  103OSM   H11F10510   0.498   2.503   9.240  1.2278  2.1375  0.3485
  103OSM   H11G10511   0.530   2.368   9.133 -0.9541  0.0212  1.9667
  103OSM   C12F10512   0.543   2.563   9.039 -0.0221 -0.2060  0.2488
  103OSM   H12F10513   0.564   2.510   8.944  1.4037  2.0890 -0.8127
  103OSM   H12G10514   0.601   2.658   9.042 -2.8911  1.7997 -1.6909
  103OSM   C13F10515   0.397   2.618   9.039 -0.1561  0.4680 -0.3903
  103OSM   H13F10516   0.331   2.532   9.020  0.1825  0.4276 -1.4581
  103OSM   H13G10517   0.377   2.663   9.139  1.2296  1.1494 -0.3856
  103OSM   C14F10518   0.372   2.726   8.937 -0.1284  0.6342 -0.6592
  103OSM   H14F10519   0.351   2.676   8.839 -0.1249 -0.7954  0.0445
  103OSM   H14G10520   0.461   2.788   8.915  0.7358 -0.3100  0.0663
  103OSM   C15F10521   0.256   2.823   8.967 -0.5045  0.3455  0.0058
  103OSM   H15F10522   0.279   2.887   9.055 -2.3151 -0.9890  1.5272
  103OSM   H15G10523   0.158   2.777   8.990 -0.5365  0.0025 -0.7822
  103OSM   C16F10524   0.220   2.923   8.857  0.8460 -0.3322 -0.5604
  103OSM   H16F10525   0.210   2.865   8.763  0.7614 -1.8496  0.3480
  103OSM   H16G10526   0.304   2.994   8.844  1.2208 -0.7934 -0.6821
  103OSM   C17F10527   0.082   2.994   8.878  0.6171  0.4644  0.4070
  103OSM   H17F10528   0.068   3.081   8.811  1.1656 -1.2909 -2.1543
  103OSM   H17G10529   0.086   3.037   8.980  1.8806 -0.1469  0.6374
  103OSM   C18F10530  -0.048   2.909   8.852  0.2151 -0.2983  0.0212
  103OSM   H18F10531  -0.138   2.975   8.852  0.4145  0.0170  1.6820
  103OSM   H18G10532  -0.058   2.844   8.942 -0.1312  0.4850  0.5605
  103OSM   H18H10533  -0.045   2.833   8.771 -1.7969  0.1423 -0.5271
  104OSM      N10534   3.128   2.892  10.835  0.6212  0.0283  0.4368
  104OSM    C1510535   3.113   2.832  10.699  0.4279  0.2419  0.0385
  104OSM   H15A10536   3.179   2.748  10.681 -0.7387 -0.8896  0.8914
  104OSM   H15B10537   3.141   2.905  10.624 -0.8250  0.2421 -0.4451
  104OSM   H15C10538   3.017   2.801  10.663  1.5451 -1.7925 -1.3684
  104OSM    C1410539   3.265   2.951  10.843 -0.1769  0.1160  0.6112
  104OSM   H14A10540   3.337   2.872  10.858 -1.0948 -1.0941 -0.9764
  104OSM   H14B10541   3.273   3.022  10.924 -0.6178  0.1343  0.6416
  104OSM   H14C10542   3.290   2.999  10.750  1.8115 -1.4324  0.2811
  104OSM    C1310543   3.026   3.004  10.844 -0.3074  0.7756 -0.1698
  104OSM   H13A10544   3.028   3.048  10.943  1.0477 -2.8463  1.6027
  104OSM   H13B10545   2.931   2.967  10.807  0.0591 -0.8572  0.4252
  104OSM   H13C10546   3.051   3.092  10.787 -0.6542  1.2922  0.4651
  104OSM    C1210547   3.104   2.782  10.946 -0.9923 -0.7688  0.6584
  104OSM   H12A10548   3.003   2.749  10.929 -1.2590  0.7617 -0.9591
  104OSM   H12B10549   3.111   2.831  11.043  2.4178  1.8386 -0.6910
  104OSM    C1110550   3.206   2.672  10.952  0.2925 -0.1915  0.6588
  104OSM   H11A10551   3.207   2.633  10.848 -0.9223  1.1292  0.1168
  104OSM   H11B10552   3.157   2.598  11.020  2.0610 -1.4124  0.6747
  104OSM      P10553   3.457   2.627  10.947  0.0559  0.0559  0.2117
  104OSM    O1310554   3.573   2.718  10.967 -0.2449  0.1264  0.7378
  104OSM    O1410555   3.472   2.496  11.005  0.0607 -0.2740  0.0238
  104OSM    O1110556   3.430   2.618  10.797 -0.6622  0.3311  0.1987
  104OSM    O1210557   3.332   2.705  11.009  0.2279 -0.1669 -0.0526
  104OSM    C1S10558   3.540   2.586  10.711 -0.1874  0.4652 -0.1195
  104OSM    H1S10559   3.585   2.488  10.738  2.1406  0.5519 -3.0796
  104OSM    H1T10560   3.620   2.662  10.703 -0.4953  1.0565  1.9599
  104OSM     NF10561   3.604   2.473  10.501  0.0935 -0.1897 -0.1254
  104OSM    HNF10562   3.678   2.526  10.462 -0.0855  2.7763  3.1384
  104OSM    C2S10563   3.499   2.554  10.561 -0.3495 -0.1228  0.2684
  104OSM    H2S10564   3.402   2.499  10.562 -1.2093  1.2933 -1.1721
  104OSM    C3S10565   3.462   2.692  10.500  0.6450 -0.0491 -0.5921
  104OSM    H3S10566   3.556   2.748  10.487  1.3515 -0.9781  0.2972
  104OSM     O310567   3.386   2.783  10.578 -0.0199  0.6518 -0.1645
  104OSM    HO310568   3.408   2.753  10.666  1.6769  0.8081 -0.5004
  104OSM    C4S10569   3.394   2.683  10.362 -0.1284 -0.5168 -0.2812
  104OSM    H4S10570   3.303   2.621  10.354 -1.6141  1.7096 -2.1859
  104OSM    C5S10571   3.434   2.756  10.251  0.1120  0.2778 -0.6109
  104OSM    H5S10572   3.524   2.820  10.251  0.8645 -0.7454 -1.3653
  104OSM    C6S10573   3.372   2.734  10.111  0.1881 -0.3262 -0.3801
  104OSM    H6S10574   3.385   2.826  10.050  2.3601 -0.2230  0.1335
  104OSM    H6T10575   3.263   2.717  10.114  0.2075 -0.4381 -0.3071
  104OSM    C7S10576   3.459   2.618  10.045  0.3535 -0.5574 -0.0513
  104OSM    H7S10577   3.452   2.529  10.111 -1.9145 -0.2783  0.1556
  104OSM    H7T10578   3.564   2.651  10.037  0.2479 -0.6520 -2.5776
  104OSM    C8S10579   3.412   2.577   9.906  0.1606  0.0510 -0.3196
  104OSM    H8S10580   3.304   2.550   9.908  0.2562 -0.4652  2.6994
  104OSM    H8T10581   3.465   2.484   9.877  0.1037  0.1846 -0.8618
  104OSM    C9S10582   3.441   2.684   9.804  0.0510  0.2019 -0.4366
  104OSM    H9S10583   3.531   2.739   9.836 -0.4043  0.3923  0.5525
  104OSM    H9T10584   3.359   2.759   9.795  0.5839  0.8679  0.1895
  104OSM   C10S10585   3.462   2.621   9.666  0.2135  0.3000  0.7231
  104OSM   H10S10586   3.391   2.539   9.645 -1.3924  0.5772  4.2275
  104OSM   H10T10587   3.564   2.577   9.655  0.0919 -0.6442  2.8600
  104OSM   C11S10588   3.465   2.734   9.556 -0.4531  0.2677  0.4754
  104OSM   H11S10589   3.540   2.815   9.571 -0.9753  1.0299 -0.7717
  104OSM   H11T10590   3.370   2.791   9.546  0.1771  1.0165 -1.9101
  104OSM   C12S10591   3.494   2.680   9.413 -0.4383 -0.0644 -0.0855
  104OSM   H12S10592   3.591   2.626   9.417  0.5992  1.7353  0.0302
  104OSM   H12T10593   3.506   2.772   9.352 -0.2114  0.2654  0.4451
  104OSM   C13S10594   3.390   2.592   9.358  0.4267 -0.3652 -0.1371
  104OSM   H13S10595   3.286   2.626   9.378 -0.9600 -3.5323 -1.2652
  104OSM   H13T10596   3.401   2.487   9.391 -2.3277 -1.2393 -1.6505
  104OSM   C14S10597   3.402   2.596   9.212  0.6993 -0.0661 -0.0560
  104OSM   H14S10598   3.508   2.581   9.183  0.6232 -0.8809  0.0635
  104OSM   H14T10599   3.368   2.694   9.171 -3.6998 -1.1503  0.4449
  104OSM   C15S10600   3.328   2.483   9.138 -0.3057  0.8803  0.1814
  104OSM   H15S10601   3.225   2.484   9.180 -0.3450 -0.5599  0.1656
  104OSM   H15T10602   3.380   2.389   9.168  1.2281  1.5239 -0.3716
  104OSM   C16S10603   3.325   2.482   8.991 -0.6281 -0.5480  0.3354
  104OSM   H16S10604   3.429   2.467   8.953 -0.2223 -0.8835  1.5115
  104OSM   H16T10605   3.286   2.579   8.956  0.7583 -0.1736 -0.2313
  104OSM   C17S10606   3.241   2.365   8.935 -0.0603  0.3176 -0.1655
  104OSM   H17S10607   3.135   2.381   8.965 -0.5359 -0.0043 -1.5903
  104OSM   H17T10608   3.269   2.269   8.982  0.8634  1.5232  1.8785
  104OSM   C18S10609   3.238   2.358   8.783 -1.2061  0.4910 -0.3669
  104OSM   H18S10610   3.176   2.443   8.748 -2.9159 -0.8078 -0.6412
  104OSM   H18T10611   3.197   2.259   8.754 -0.2457 -0.1742  0.4446
  104OSM   H18U10612   3.344   2.372   8.751 -0.5316 -0.9124  1.0850
  104OSM    C1F10613   3.609   2.337  10.519  0.2155  0.0260  0.3499
  104OSM     OF10614   3.518   2.283  10.586 -0.6123  0.1287  0.6178
  104OSM    C2F10615   3.728   2.266  10.462  0.6784 -0.3161 -0.6516
  104OSM    H2F10616   3.797   2.254  10.548  0.1510 -0.5927 -0.2582
  104OSM    H2G10617   3.786   2.332  10.394  0.4430 -0.2245 -0.7686
  104OSM    C3F10618   3.684   2.125  10.411 -0.4862  0.1153 -0.0060
  104OSM    H3F10619   3.670   2.055  10.496 -0.6048  0.0882 -0.0471
  104OSM    H3G10620   3.769   2.082  10.353 -1.6086 -0.1136 -1.5319
  104OSM    C4F10621   3.556   2.123  10.327 -0.7300  0.1333  0.0321
  104OSM    H4F10622   3.471   2.163  10.386 -0.3037 -0.2065  0.8983
  104OSM    H4G10623   3.530   2.016  10.308  4.3655 -1.0822 -1.6696
  104OSM    C5F10624   3.564   2.192  10.187  0.2149 -0.1009  0.2085
  104OSM    H5F10625   3.669   2.223  10.169  0.0148  0.1277 -0.6063
  104OSM    H5G10626   3.507   2.286  10.177  0.9354  0.2591 -0.6909
  104OSM    C6F10627   3.536   2.093  10.072 -0.1679  0.2255 -0.3256
  104OSM    H6F10628   3.471   2.017  10.121 -0.3152  0.2862 -0.4265
  104OSM    H6G10629   3.623   2.038  10.030  0.2367  1.8752 -1.7593
  104OSM    C7F10630   3.463   2.165   9.959 -0.5849  0.1622  0.0446
  104OSM    H7F10631   3.532   2.241   9.918 -0.5349  0.4595  0.6769
  104OSM    H7G10632   3.370   2.216   9.994 -1.8507  0.0178 -2.7973
  104OSM    C8F10633   3.425   2.076   9.840  0.5415 -0.3497 -1.1770
  104OSM    H8F10634   3.340   2.012   9.871  0.6869 -0.2605 -0.5784
  104OSM    H8G10635   3.506   2.005   9.814 -1.0366 -1.7611 -2.4415
  104OSM    C9F10636   3.393   2.166   9.720  0.0821 -0.3507  0.8387
  104OSM    H9F10637   3.302   2.228   9.726 -0.8060 -1.5139 -0.0390
  104OSM   C10F10638   3.464   2.198   9.615 -0.5046 -0.8368 -0.0135
  104OSM   H10F10639   3.425   2.273   9.544 -0.9014 -0.0773  0.9842
  104OSM   C11F10640   3.606   2.151   9.574  0.5539 -0.5523  0.4672
  104OSM   H11F10641   3.629   2.056   9.626 -1.2388 -1.0128  0.5026
  104OSM   H11G10642   3.680   2.229   9.602 -0.5626  1.1213 -0.9667
  104OSM   C12F10643   3.622   2.124   9.421  0.2107 -0.1397 -0.4612
  104OSM   H12F10644   3.550   2.046   9.389 -1.1656  0.7079  0.4397
  104OSM   H12G10645   3.725   2.083   9.417  0.8919  1.4590 -0.0965
  104OSM   C13F10646   3.616   2.256   9.342 -0.1268 -0.1434 -0.7547
  104OSM   H13F10647   3.694   2.318   9.390  1.6103 -0.1121 -3.3633
  104OSM   H13G10648   3.524   2.314   9.361 -0.3044  0.0268 -2.0501
  104OSM   C14F10649   3.652   2.244   9.194 -0.2070  0.1568 -1.0164
  104OSM   H14F10650   3.761   2.223   9.188  0.2024  1.4070  1.0401
  104OSM   H14G10651   3.636   2.342   9.144  0.6610  2.1288  2.2697
  104OSM   C15F10652   3.597   2.133   9.107  1.3382  0.2753  0.0247
  104OSM   H15F10653   3.488   2.158   9.104  0.8368 -1.7262 -0.6097
  104OSM   H15G10654   3.605   2.036   9.161  1.2130 -0.5443 -1.3896
  104OSM   C16F10655   3.647   2.119   8.964 -0.2790  0.0723 -0.4696
  104OSM   H16F10656   3.565   2.084   8.898 -1.3717 -0.5377  1.1736
  104OSM   H16G10657   3.723   2.038   8.960 -0.0413  0.1819  1.0923
  104OSM   C17F10658   3.712   2.253   8.911  0.0389 -0.4995 -0.2438
  104OSM   H17F10659   3.797   2.291   8.970  0.6639  0.3708 -1.6421
  104OSM   H17G10660   3.632   2.327   8.888  1.8558  1.2065 -1.4485
  104OSM   C18F10661   3.767   2.233   8.767 -0.2866  0.0618  0.3497
  104OSM   H18F10662   3.690   2.209   8.691  1.9729 -0.3620 -1.9250
  104OSM   H18G10663   3.860   2.171   8.764  0.6314  1.4216 -0.0290
  104OSM   H18H10664   3.805   2.332   8.735  1.9473 -0.5015  1.0497
  105OSM      N10665   5.713   2.667  11.192 -0.3219  0.3028 -0.6985
  105OSM    C1510666   5.807   2.568  11.138  0.4622  0.3722  0.0424
  105OSM   H15A10667   5.863   2.602  11.052 -0.1680 -0.0898 -0.5631
  105OSM   H15B10668   5.752   2.478  11.115  2.3250 -0.4336 -1.5789
  105OSM   H15C10669   5.880   2.541  11.212  0.3739 -1.1532 -0.4021
  105OSM    C1410670   5.664   2.606  11.324 -0.6425 -0.2840  0.4279
  105OSM   H14A10671   5.747   2.579  11.388  0.3900  2.5482  0.4611
  105OSM   H14B10672   5.591   2.529  11.306 -0.1833 -0.6166 -0.0534
  105OSM   H14C10673   5.613   2.682  11.381 -3.0765 -1.6047  0.1548
  105OSM    C1310674   5.793   2.796  11.214 -0.0290 -0.0268  0.1522
  105OSM   H13A10675   5.728   2.879  11.240 -0.4257 -0.4008  0.3638
  105OSM   H13B10676   5.845   2.836  11.128  1.3164  2.1750  1.8790
  105OSM   H13C10677   5.857   2.780  11.299  0.3793  0.2505 -0.0963
  105OSM    C1210678   5.597   2.692  11.098 -0.7314 -0.1536  0.2435
  105OSM   H12A10679   5.642   2.754  11.022 -0.3464 -0.6229  0.0778
  105OSM   H12B10680   5.523   2.752  11.148  0.3850  1.6631 -0.1862
  105OSM    C1110681   5.530   2.570  11.032  0.2593  0.8349  1.0904
  105OSM   H11A10682   5.591   2.539  10.945 -0.4030 -0.6986  1.1242
  105OSM   H11B10683   5.430   2.599  10.994 -0.5687  0.5229  2.8976
  105OSM      P10684   5.515   2.312  11.073 -0.3365 -0.2473 -0.3724
  105OSM    O1310685   5.654   2.279  11.028  0.7917 -0.7740 -0.2018
  105OSM    O1410686   5.456   2.221  11.169 -0.6620  0.2818  0.4194
  105OSM    O1110687   5.433   2.310  10.941 -0.0597 -0.3457 -0.1600
  105OSM    O1210688   5.506   2.460  11.119  0.1952  0.0373  0.6102
  105OSM    C1S10689   5.298   2.269  10.946  0.1873 -0.0017  0.3594
  105OSM    H1S10690   5.243   2.328  11.022  3.0246  2.1118  0.9396
  105OSM    H1T10691   5.288   2.158  10.954 -1.4466 -0.3064 -3.6114
  105OSM     NF10692   5.076   2.288  10.832 -0.8057  0.4305  0.1726
  105OSM    HNF10693   5.022   2.207  10.813 -0.6300  0.1814  0.7191
  105OSM    C2S10694   5.215   2.291  10.813  0.1950 -0.0099  0.2725
  105OSM    H2S10695   5.243   2.393  10.778  0.5106 -0.3938 -0.6211
  105OSM    C3S10696   5.271   2.194  10.706 -1.0142 -0.0567  0.1306
  105OSM    H3S10697   5.265   2.090  10.745 -1.1908 -0.2010 -0.2835
  105OSM     O310698   5.409   2.221  10.669  0.6342 -0.3163 -0.3940
  105OSM    HO310699   5.444   2.249  10.754 -2.0459 -2.6977  1.7080
  105OSM    C4S10700   5.199   2.219  10.576 -0.1386  0.3576 -0.2350
  105OSM    H4S10701   5.204   2.322  10.535  0.0036 -0.4459 -2.3589
  105OSM    C5S10702   5.125   2.127  10.512 -0.5369  0.0895  0.0401
  105OSM    H5S10703   5.130   2.025  10.552 -0.2132 -0.9908 -2.5627
  105OSM    C6S10704   5.057   2.142  10.371  0.1451  0.8874 -0.6546
  105OSM    H6S10705   4.949   2.116  10.375  0.5693 -0.9546 -0.3744
  105OSM    H6T10706   5.109   2.072  10.301 -0.5311 -2.7878  2.1759
  105OSM    C7S10707   5.056   2.285  10.315 -0.3615 -0.4465  0.0784
  105OSM    H7S10708   5.158   2.327  10.310 -1.2625  1.9202  0.2865
  105OSM    H7T10709   5.000   2.339  10.394  2.7085  0.9766  1.4411
  105OSM    C8S10710   4.992   2.300  10.178  0.1525  0.3580 -0.0038
  105OSM    H8S10711   4.959   2.406  10.175 -0.6599  0.1389  0.8366
  105OSM    H8T10712   4.894   2.247  10.181  0.5564 -0.3903  0.3102
  105OSM    C9S10713   5.090   2.273  10.061  0.0996 -0.0298 -0.4953
  105OSM    H9S10714   5.155   2.183  10.068  0.5388  0.0168 -3.1078
  105OSM    H9T10715   5.150   2.361  10.031 -0.8475  2.0106  3.0315
  105OSM   C10S10716   5.009   2.245   9.935  0.3315 -0.2749 -0.1719
  105OSM   H10S10717   4.943   2.328   9.901  3.3943  1.7862 -1.5328
  105OSM   H10T10718   4.942   2.162   9.964 -0.7662  1.0373  1.2768
  105OSM   C11S10719   5.098   2.218   9.819 -0.8546 -0.2386  0.0499
  105OSM   H11S10720   5.145   2.118   9.832 -2.3413 -0.9892 -0.1352
  105OSM   H11T10721   5.163   2.306   9.803 -2.9438  1.5981  1.0921
  105OSM   C12S10722   5.016   2.203   9.692 -0.6637 -0.3160 -0.2264
  105OSM   H12S10723   4.952   2.289   9.664  0.7711  1.4536  1.6284
  105OSM   H12T10724   4.952   2.115   9.715  2.2750 -2.0053  2.2648
  105OSM   C13S10725   5.102   2.159   9.575  0.0401 -0.4919 -0.3366
  105OSM   H13S10726   5.151   2.061   9.592 -1.8503 -1.7122 -1.5956
  105OSM   H13T10727   5.183   2.236   9.572  0.2357 -0.3319  3.9387
  105OSM   C14S10728   5.018   2.149   9.443  0.1575 -0.1819 -0.1610
  105OSM   H14S10729   4.989   2.254   9.422 -0.1539  0.1718  1.7938
  105OSM   H14T10730   4.927   2.088   9.459  1.6637 -2.2752  0.8174
  105OSM   C15S10731   5.087   2.082   9.321 -0.4367 -1.3096 -0.2163
  105OSM   H15S10732   5.092   1.974   9.348 -0.4764 -1.2783 -0.0803
  105OSM   H15T10733   5.183   2.131   9.296 -2.1288  1.0428 -2.6450
  105OSM   C16S10734   4.989   2.080   9.205  0.6077 -0.3044 -0.7122
  105OSM   H16S10735   4.961   2.187   9.204  2.8161  0.3337  0.0396
  105OSM   H16T10736   4.892   2.033   9.231  0.6902  0.4359  1.1004
  105OSM   C17S10737   5.049   2.031   9.068 -0.1764  0.1915  0.0589
  105OSM   H17S10738   5.061   1.922   9.087  0.7269  0.2946  0.1478
  105OSM   H17T10739   5.149   2.076   9.049 -0.6389  1.0370 -0.3909
  105OSM   C18S10740   4.951   2.043   8.950 -0.0717 -0.8610 -0.0810
  105OSM   H18S10741   4.987   2.012   8.850 -1.9698  0.2499 -1.1777
  105OSM   H18T10742   4.927   2.150   8.930 -0.1015 -0.9300 -0.4130
  105OSM   H18U10743   4.857   1.989   8.974  2.3148 -5.3967  0.0305
  105OSM    C1F10744   5.016   2.381  10.903 -0.1985 -0.5766  0.3447
  105OSM     OF10745   5.075   2.485  10.936 -0.0753  0.8576  0.1374
  105OSM    C2F10746   4.885   2.346  10.955 -0.1955  0.0081  0.4464
  105OSM    H2F10747   4.884   2.361  11.065 -0.2481  1.2293  0.2884
  105OSM    H2G10748   4.866   2.239  10.927  0.6122 -0.0222 -0.0140
  105OSM    C3F10749   4.766   2.419  10.895  0.1922 -0.0591  0.3763
  105OSM    H3F10750   4.760   2.527  10.921  2.3438 -0.1538  1.5014
  105OSM    H3G10751   4.675   2.368  10.931  0.1491 -1.3903 -1.4627
  105OSM    C4F10752   4.764   2.424  10.743  0.5629  0.8768 -0.7399
  105OSM    H4F10753   4.757   2.322  10.699 -2.0585 -0.7559  2.9387
  105OSM    H4G10754   4.854   2.464  10.692  0.5236  2.0590  0.0844
  105OSM    C5F10755   4.646   2.503  10.699  0.4180  0.0483  0.3572
  105OSM    H5F10756   4.657   2.604  10.743 -1.1261  0.1356  0.5807
  105OSM    H5G10757   4.551   2.457  10.735  1.1563  0.7056  3.4167
  105OSM    C6F10758   4.634   2.525  10.548  0.3453 -0.2649  0.0518
  105OSM    H6F10759   4.727   2.579  10.518  0.9303 -1.6710 -0.7422
  105OSM    H6G10760   4.544   2.587  10.532  1.2757  0.9846 -0.5417
  105OSM    C7F10761   4.626   2.386  10.470  0.4796  0.1273 -0.4313
  105OSM    H7F10762   4.558   2.315  10.521 -2.3669  1.8768 -1.5663
  105OSM    H7G10763   4.729   2.346  10.461  0.8582  1.1504 -0.7785
  105OSM    C8F10764   4.567   2.397  10.326  0.8937  0.4568  0.0346
  105OSM    H8F10765   4.577   2.298  10.278  1.7056  0.1107  0.8911
  105OSM    H8G10766   4.617   2.473  10.263 -1.4672 -0.1640 -2.8152
  105OSM    C9F10767   4.424   2.444  10.337 -0.2142  0.2791 -0.1068
  105OSM    H9F10768   4.416   2.541  10.388 -1.3805  0.8094 -1.2261
  105OSM   C10F10769   4.310   2.374  10.293 -0.6380 -0.2062 -0.2637
  105OSM   H10F10770   4.225   2.444  10.290  0.8533  1.6726 -1.1805
  105OSM   C11F10771   4.306   2.244  10.221  0.0101 -0.0009  0.0870
  105OSM   H11F10772   4.215   2.191  10.257 -0.4193  1.0171  0.5091
  105OSM   H11G10773   4.398   2.184  10.240  0.5046  0.0029 -1.9660
  105OSM   C12F10774   4.309   2.251  10.068 -0.6249  0.5098  0.4549
  105OSM   H12F10775   4.405   2.302  10.046 -1.0440  1.6477  1.1173
  105OSM   H12G10776   4.223   2.314  10.037 -1.5582  0.0516  2.0110
  105OSM   C13F10777   4.320   2.111  10.004  0.9499 -0.2474  0.5117
  105OSM   H13F10778   4.233   2.056  10.046  0.6281 -0.4391 -0.3930
  105OSM   H13G10779   4.412   2.055  10.032  1.5737 -0.4201 -1.6921
  105OSM   C14F10780   4.315   2.108   9.849  0.3093 -0.9602  0.3430
  105OSM   H14F10781   4.414   2.129   9.803  1.3397 -3.3387  1.3249
  105OSM   H14G10782   4.237   2.179   9.816  0.4474 -1.0183 -0.1180
  105OSM   C15F10783   4.261   1.967   9.792 -0.5240  0.8879 -0.4197
  105OSM   H15F10784   4.244   1.985   9.684  0.4928 -0.5381 -0.8528
  105OSM   H15G10785   4.165   1.936   9.839 -0.3057 -1.5215 -1.3981
  105OSM   C16F10786   4.361   1.860   9.821 -0.8472  0.1289  0.0392
  105OSM   H16F10787   4.379   1.843   9.929  1.1919 -0.9965 -0.4186
  105OSM   H16G10788   4.458   1.892   9.777 -0.6142 -2.0554 -1.2071
  105OSM   C17F10789   4.337   1.727   9.744  0.3696 -0.0036  0.8548
  105OSM   H17F10790   4.329   1.765   9.639  1.3992 -0.2766  0.6730
  105OSM   H17G10791   4.240   1.675   9.758  0.0419  0.5306  0.6199
  105OSM   C18F10792   4.451   1.636   9.753 -0.6378  0.0997  0.0254
  105OSM   H18F10793   4.433   1.542   9.697 -0.5153 -0.9525  1.7005
  105OSM   H18G10794   4.485   1.618   9.857  0.2654 -0.3144 -0.3318
  105OSM   H18H10795   4.542   1.687   9.714 -1.0644  1.0042  0.1758
  106OSM      N10796   5.409   0.565  11.332 -1.0266  0.1973  0.0251
  106OSM    C1510797   5.279   0.480  11.337 -0.2521 -0.4138  0.6221
  106OSM   H15A10798   5.206   0.517  11.267 -1.1856 -0.1296  1.7285
  106OSM   H15B10799   5.247   0.488  11.440  1.2910  1.4038  1.0241
  106OSM   H15C10800   5.306   0.376  11.326  1.2293 -0.0146  0.1859
  106OSM    C1410801   5.380   0.714  11.339  0.2277  0.7266  0.1937
  106OSM   H14A10802   5.466   0.776  11.319  2.0171 -1.0218  2.1151
  106OSM   H14B10803   5.321   0.734  11.427 -0.9701  0.8940 -0.6237
  106OSM   H14C10804   5.305   0.726  11.261  1.4939  0.5614 -1.1022
  106OSM    C1310805   5.494   0.517  11.444  0.8539 -0.3771  0.0801
  106OSM   H13A10806   5.584   0.576  11.449  0.8574 -0.3283 -0.5107
  106OSM   H13B10807   5.526   0.414  11.430  0.5062 -0.2964 -1.4984
  106OSM   H13C10808   5.446   0.537  11.538  2.1082  0.5894  0.5447
  106OSM    C1210809   5.491   0.537  11.210  0.2650 -0.6026  0.2442
  106OSM   H12A10810   5.510   0.431  11.197  0.7388 -0.5130  0.1955
  106OSM   H12B10811   5.587   0.586  11.216  0.3825 -0.9356  1.3982
  106OSM    C1110812   5.424   0.572  11.076  0.0713  0.8829 -0.0919
  106OSM   H11A10813   5.315   0.556  11.093  0.5236 -4.7028 -0.5442
  106OSM   H11B10814   5.450   0.482  11.018 -1.8840  0.9839 -1.2297
  106OSM      P10815   5.604   0.728  10.984 -0.0698 -0.3589  0.3386
  106OSM    O1310816   5.615   0.875  10.971 -0.3012  0.9497 -0.4949
  106OSM    O1410817   5.705   0.671  11.077  0.2104  0.7736 -0.8011
  106OSM    O1110818   5.628   0.662  10.842 -0.3644 -0.2065  0.1611
  106OSM    O1210819   5.455   0.695  11.017  0.4110  0.1358  0.0805
  106OSM    C1S10820   5.533   0.676  10.736  0.0989  0.2790 -0.1245
  106OSM    H1S10821   5.553   0.774  10.689  0.2017  1.2928  1.9123
  106OSM    H1T10822   5.431   0.676  10.779  0.0583  0.5404 -0.2230
  106OSM     NF10823   5.504   0.612  10.508  0.2520  0.3559 -0.8836
  106OSM    HNF10824   5.406   0.593  10.507  0.3396 -0.9022  2.0800
  106OSM    C2S10825   5.560   0.568  10.634  0.0055  0.1312  0.3323
  106OSM    H2S10826   5.671   0.570  10.630  0.1870  1.3780  3.4283
  106OSM    C3S10827   5.527   0.424  10.690 -0.1677  0.6055  0.3481
  106OSM    H3S10828   5.420   0.395  10.687  0.3860 -1.4969 -1.1259
  106OSM     O310829   5.561   0.408  10.829 -0.1950 -0.5598  0.2652
  106OSM    HO310830   5.611   0.488  10.843 -2.0723  1.3559 -2.8507
  106OSM    C4S10831   5.595   0.324  10.611  0.1101  0.1984  0.0065
  106OSM    H4S10832   5.705   0.328  10.612  0.2390 -2.2093 -0.2932
  106OSM    C5S10833   5.533   0.232  10.547 -0.0178  0.1149 -0.9045
  106OSM    H5S10834   5.424   0.216  10.552  0.3491 -3.5457 -1.8996
  106OSM    C6S10835   5.602   0.130  10.464 -0.6095  0.5322  0.3462
  106OSM    H6S10836   5.597   0.033  10.517  1.5023 -1.4378 -2.7516
  106OSM    H6T10837   5.708   0.164  10.455 -0.5506 -0.1112 -2.0777
  106OSM    C7S10838   5.559   0.096  10.313  0.5289  1.0114 -0.2917
  106OSM    H7S10839   5.450   0.078  10.303  0.3186  0.4905  2.2975
  106OSM    H7T10840   5.618   0.015  10.265 -1.7537 -0.6954 -0.3453
  106OSM    C8S10841   5.570   0.213  10.213 -0.2611  0.3332  0.1684
  106OSM    H8S10842   5.667   0.266  10.228 -0.9959  1.9350 -0.5222
  106OSM    H8T10843   5.500   0.294  10.241  0.0429  1.5712 -2.3893
  106OSM    C9S10844   5.541   0.170  10.072 -0.0273  0.3613 -0.2893
  106OSM    H9S10845   5.442   0.130  10.042  0.7711 -0.3159 -2.2090
  106OSM    H9T10846   5.624   0.103  10.040  1.0647  1.0273  1.0164
  106OSM   C10S10847   5.565   0.297   9.992  0.0364 -0.1133  0.6614
  106OSM   H10S10848   5.675   0.315   9.995  0.1637 -0.8845  1.1414
  106OSM   H10T10849   5.511   0.385  10.031 -0.7973 -0.1940 -0.2838
  106OSM   C11S10850   5.522   0.294   9.839 -0.0642  0.0581 -0.8167
  106OSM   H11S10851   5.411   0.298   9.839 -0.1388 -1.3168  0.1176
  106OSM   H11T10852   5.562   0.196   9.802  1.9770 -0.6930  2.9204
  106OSM   C12S10853   5.566   0.422   9.766 -0.0494  0.2438  0.4746
  106OSM   H12S10854   5.674   0.435   9.790  0.7790  0.3998 -2.7986
  106OSM   H12T10855   5.516   0.509   9.813  1.3931  0.8687  0.9238
  106OSM   C13S10856   5.554   0.419   9.616 -0.0542  0.5941  0.5701
  106OSM   H13S10857   5.451   0.384   9.594  0.4382 -0.2164 -0.5185
  106OSM   H13T10858   5.628   0.348   9.574  0.3912 -0.4889  3.0224
  106OSM   C14S10859   5.590   0.553   9.549 -0.1573 -0.5571  0.1049
  106OSM   H14S10860   5.696   0.577   9.570 -0.3581  0.0475  0.4440
  106OSM   H14T10861   5.529   0.620   9.614 -0.5786 -1.2027  0.3998
  106OSM   C15S10862   5.553   0.568   9.403  0.1943  0.5211 -0.0309
  106OSM   H15S10863   5.452   0.525   9.386  1.1912 -2.2389  0.4530
  106OSM   H15T10864   5.617   0.501   9.340  0.6814  1.7101 -0.8470
  106OSM   C16S10865   5.572   0.711   9.344  0.5981  0.1895  1.3510
  106OSM   H16S10866   5.668   0.761   9.367 -0.2397  1.7006  1.7384
  106OSM   H16T10867   5.488   0.776   9.379 -1.6800 -2.0609  0.3888
  106OSM   C17S10868   5.567   0.706   9.185  0.1876  0.5271 -0.1581
  106OSM   H17S10869   5.663   0.656   9.161 -1.2574 -2.5906  0.0036
  106OSM   H17T10870   5.578   0.810   9.148  0.0639  0.1341 -1.3467
  106OSM   C18S10871   5.452   0.631   9.115 -0.2948  0.0448 -0.2172
  106OSM   H18S10872   5.438   0.667   9.011  0.5220 -0.3950 -0.4966
  106OSM   H18T10873   5.357   0.666   9.160  0.0792 -0.0552  0.6607
  106OSM   H18U10874   5.465   0.521   9.121 -2.1068 -0.1319  1.0396
  106OSM    C1F10875   5.548   0.709  10.425 -0.3331  0.9116  0.2313
  106OSM     OF10876   5.654   0.767  10.445 -0.4272 -0.0494 -0.2769
  106OSM    C2F10877   5.443   0.759  10.331 -0.8149  0.5772  0.7271
  106OSM    H2F10878   5.474   0.859  10.296 -0.5848 -0.5464 -2.6610
  106OSM    H2G10879   5.353   0.767  10.395 -1.8839  0.1167 -0.6553
  106OSM    C3F10880   5.424   0.664  10.209 -0.0476 -0.5464  0.1837
  106OSM    H3F10881   5.394   0.564  10.247 -0.4902 -0.3976  0.2355
  106OSM    H3G10882   5.523   0.653  10.160  0.2754  3.5039 -0.4548
  106OSM    C4F10883   5.316   0.715  10.112  0.1749  0.5631  0.5279
  106OSM    H4F10884   5.344   0.811  10.064 -0.2018  0.4219  0.0107
  106OSM    H4G10885   5.227   0.759  10.162 -1.1462 -0.1879 -1.0752
  106OSM    C5F10886   5.271   0.605  10.010  0.0725  0.3334  0.2848
  106OSM    H5F10887   5.199   0.536  10.059  0.8922 -1.1433 -0.4965
  106OSM    H5G10888   5.351   0.534   9.979 -0.4726  0.3136 -1.1468
  106OSM    C6F10889   5.214   0.671   9.883  0.7456 -0.8165 -0.3266
  106OSM    H6F10890   5.188   0.590   9.812 -0.3228 -1.2140  0.4977
  106OSM    H6G10891   5.281   0.745   9.835  0.0996  0.4562  0.6750
  106OSM    C7F10892   5.075   0.743   9.898 -0.1971 -0.5979 -0.0595
  106OSM    H7F10893   5.072   0.832   9.964  0.3746  2.0539 -3.3099
  106OSM    H7G10894   5.007   0.667   9.941  1.3930 -1.3668  1.1859
  106OSM    C8F10895   5.022   0.785   9.753  0.3392  0.2193 -0.8579
  106OSM    H8F10896   4.919   0.824   9.768 -0.0146 -0.4358 -1.5260
  106OSM    H8G10897   5.016   0.699   9.683  0.2716 -1.6395  1.3060
  106OSM    C9F10898   5.111   0.895   9.708 -0.6411  0.5536  0.2359
  106OSM    H9F10899   5.111   0.981   9.777  3.4860  0.5594  0.4802
  106OSM   C10F10900   5.199   0.892   9.605 -0.2659 -0.0783 -0.2678
  106OSM   H10F10901   5.263   0.977   9.577  1.8909 -2.2852 -2.6394
  106OSM   C11F10902   5.225   0.771   9.513  0.2122 -0.0574  0.6928
  106OSM   H11F10903   5.158   0.687   9.541  0.1551  0.7299  3.1328
  106OSM   H11G10904   5.331   0.745   9.531  1.0062  2.9997  0.8460
  106OSM   C12F10905   5.208   0.808   9.364  0.7797  0.2789  0.7380
  106OSM   H12F10906   5.224   0.712   9.311 -2.5868 -1.0491  1.8686
  106OSM   H12G10907   5.289   0.874   9.327  1.0793 -0.9813 -0.9918
  106OSM   C13F10908   5.072   0.862   9.321  0.5841 -0.4686 -0.6609
  106OSM   H13F10909   5.068   0.964   9.367  0.1817 -1.3260  1.3126
  106OSM   H13G10910   4.982   0.805   9.351  0.3263  0.2378 -0.0575
  106OSM   C14F10911   5.074   0.877   9.166  0.2959 -0.1364 -0.0517
  106OSM   H14F10912   5.112   0.782   9.124  1.5970 -0.6688  2.1626
  106OSM   H14G10913   5.149   0.956   9.144 -1.3396  1.8867  1.2013
  106OSM   C15F10914   4.936   0.919   9.111  0.6242  0.2649 -0.0358
  106OSM   H15F10915   4.913   1.019   9.152  1.3657  1.2237 -1.8547
  106OSM   H15G10916   4.862   0.843   9.144  0.0687  0.8705  0.1287
  106OSM   C16F10917   4.923   0.932   8.954  0.8241  1.2181  0.3499
  106OSM   H16F10918   4.826   0.983   8.939 -0.2341 -0.9854 -0.7902
  106OSM   H16G10919   4.918   0.826   8.921  0.2514  1.5924 -0.8304
  106OSM   C17F10920   5.031   1.011   8.883 -0.4303  0.3376  0.2331
  106OSM   H17F10921   5.102   0.962   8.813 -0.0669  1.7823 -0.4476
  106OSM   H17G10922   5.104   1.041   8.962  1.1405 -2.4081 -0.0439
  106OSM   C18F10923   4.962   1.128   8.806  0.5990 -0.2177 -0.1130
  106OSM   H18F10924   4.906   1.075   8.726  0.7115 -0.6266  0.0766
  106OSM   H18G10925   5.053   1.187   8.785  0.8445 -0.2204  0.9060
  106OSM   H18H10926   4.904   1.200   8.868  0.3219 -1.1674  0.7690
  107OSM      N10927   5.399   5.564  11.027  0.4186 -0.0777  0.5228
  107OSM    C1510928   5.293   5.563  11.135 -0.0058 -0.1849  0.2422
  107OSM   H15A10929   5.201   5.593  11.087  0.5412 -1.1252 -1.4896
  107OSM   H15B10930   5.326   5.642  11.200  0.9527  0.7896 -1.3543
  107OSM   H15C10931   5.277   5.468  11.185  1.5913 -1.1325 -0.9476
  107OSM    C1410932   5.425   5.708  10.972  0.5540  0.3224 -0.3761
  107OSM   H14A10933   5.463   5.761  11.057  1.3365  1.3130 -1.3166
  107OSM   H14B10934   5.340   5.755  10.925  1.6350  2.1925 -0.5574
  107OSM   H14C10935   5.506   5.695  10.900  0.6115 -0.8089 -0.1337
  107OSM    C1310936   5.525   5.515  11.081 -1.0299  0.1884 -0.4221
  107OSM   H13A10937   5.515   5.419  11.129  0.7058  1.3278  2.4400
  107OSM   H13B10938   5.559   5.587  11.154 -2.3156 -1.2451  1.7062
  107OSM   H13C10939   5.601   5.498  11.006 -0.1782 -0.4676  0.5659
  107OSM    C1210940   5.361   5.466  10.914 -0.0790 -0.0457 -1.2750
  107OSM   H12A10941   5.317   5.382  10.966 -1.0730  0.7311 -0.8445
  107OSM   H12B10942   5.458   5.437  10.876  0.8075  2.2699 -0.9578
  107OSM    C1110943   5.259   5.506  10.810  0.7162  0.1486  0.3717
  107OSM   H11A10944   5.245   5.424  10.737  3.1241  1.0119 -1.1903
  107OSM   H11B10945   5.295   5.589  10.746  0.6625 -0.0861  0.0366
  107OSM      P10946   5.011   5.462  10.916  0.2167 -0.3958  0.3379
  107OSM    O1310947   5.029   5.393  11.038 -0.5205  0.6660 -0.0933
  107OSM    O1410948   4.887   5.539  10.901  0.5206 -0.3595  0.1876
  107OSM    O1110949   5.026   5.355  10.801  0.4349 -0.1236  0.3164
  107OSM    O1210950   5.137   5.549  10.875 -0.2486  0.4804 -0.9092
  107OSM    C1S10951   4.932   5.345  10.697 -0.3051  0.6057 -0.0738
  107OSM    H1S10952   4.903   5.442  10.651 -2.2866 -0.2709 -0.8158
  107OSM    H1T10953   4.842   5.297  10.740  1.8720 -3.6559  0.2201
  107OSM     NF10954   4.901   5.265  10.457  0.0024  0.4130 -0.5110
  107OSM    HNF10955   4.837   5.189  10.457  0.1987  0.1634  1.6193
  107OSM    C2S10956   4.991   5.264  10.576 -0.8065  0.0056  0.0516
  107OSM    H2S10957   5.088   5.314  10.554  0.4022 -2.0023  0.5745
  107OSM    C3S10958   5.023   5.121  10.613  1.1181 -0.5266 -0.5463
  107OSM    H3S10959   4.929   5.062  10.620  0.8791 -0.1284 -0.3256
  107OSM     O310960   5.075   5.094  10.747  0.1581 -0.6183 -0.1016
  107OSM    HO310961   5.080   5.179  10.791  3.3776 -1.4382  1.4418
  107OSM    C4S10962   5.095   5.041  10.512 -0.9612 -0.6148  0.5611
  107OSM    H4S10963   5.035   5.019  10.422 -1.9965  2.1882  0.4559
  107OSM    C5S10964   5.223   5.008  10.518 -0.8713  0.7571  0.3889
  107OSM    H5S10965   5.277   5.032  10.611  1.5736  0.2440 -0.8219
  107OSM    C6S10966   5.301   4.925  10.419  1.0399  0.5499 -0.6405
  107OSM    H6S10967   5.301   4.820  10.455 -3.4168  0.0676 -1.3958
  107OSM    H6T10968   5.402   4.964  10.398  1.5450 -0.7553 -0.6950
  107OSM    C7S10969   5.242   4.904  10.281 -0.1860 -0.9228 -1.2079
  107OSM    H7S10970   5.212   5.001  10.235 -0.7531 -0.0198  0.9499
  107OSM    H7T10971   5.151   4.840  10.287 -1.2159  0.4788 -1.3902
  107OSM    C8S10972   5.334   4.837  10.171  0.7977  0.1900 -0.0901
  107OSM    H8S10973   5.335   4.730  10.199  2.2370  1.1117  4.2692
  107OSM    H8T10974   5.432   4.879  10.200  0.3375 -0.2409  2.3090
  107OSM    C9S10975   5.300   4.869  10.031 -0.6641 -0.2432  0.3049
  107OSM    H9S10976   5.308   4.979  10.014  0.2669 -0.3507 -0.0489
  107OSM    H9T10977   5.198   4.831  10.009  0.0322 -1.9539 -0.1011
  107OSM   C10S10978   5.401   4.815   9.920  0.1882 -0.3881 -0.8845
  107OSM   H10S10979   5.381   4.706   9.910 -5.3738  0.1951  0.4803
  107OSM   H10T10980   5.504   4.845   9.948 -0.1886  0.8593 -0.7767
  107OSM   C11S10981   5.388   4.886   9.781 -0.7040  0.2395  0.3579
  107OSM   H11S10982   5.414   4.993   9.794 -3.1558  0.5361  4.5925
  107OSM   H11T10983   5.279   4.879   9.763 -0.8778  0.5648  1.2377
  107OSM   C12S10984   5.470   4.811   9.680 -0.2589  0.7485  0.5214
  107OSM   H12S10985   5.431   4.710   9.653 -0.3024  0.8105  0.3564
  107OSM   H12T10986   5.568   4.797   9.729 -0.4943 -1.4268  0.4748
  107OSM   C13S10987   5.488   4.885   9.546 -0.3229 -0.4841 -0.1600
  107OSM   H13S10988   5.520   4.988   9.570  1.9849 -0.7779 -1.6978
  107OSM   H13T10989   5.389   4.890   9.495 -0.2664 -0.4768 -0.2694
  107OSM   C14S10990   5.573   4.809   9.446 -0.0761  0.6185  0.1434
  107OSM   H14S10991   5.542   4.704   9.425 -1.7028  1.2369 -0.7447
  107OSM   H14T10992   5.671   4.798   9.497 -0.7776 -2.6432  1.0720
  107OSM   C15S10993   5.603   4.889   9.317  0.0110 -0.4891  0.4934
  107OSM   H15S10994   5.703   4.863   9.276 -0.4459 -0.9218 -0.3975
  107OSM   H15T10995   5.626   4.997   9.334 -0.0905 -0.5789  1.2212
  107OSM   C16S10996   5.492   4.873   9.213  0.1252 -0.1113 -0.0933
  107OSM   H16S10997   5.400   4.919   9.255 -0.0106 -0.8732  0.4667
  107OSM   H16T10998   5.469   4.767   9.189  2.1739 -0.4419 -0.7920
  107OSM   C17S10999   5.507   4.944   9.071  0.0610 -0.2064 -0.0106
  107OSM   H17S11000   5.606   4.917   9.028  0.1745  0.3871 -0.1428
  107OSM   H17T11001   5.497   5.050   9.104  1.0816 -0.0558 -0.1427
  107OSM   C18S11002   5.396   4.928   8.965  0.0989 -0.7254 -0.4156
  107OSM   H18S11003   5.420   5.008   8.891  0.4702 -0.3670  0.0856
  107OSM   H18T11004   5.298   4.954   9.011  1.1896  2.4215  0.3760
  107OSM   H18U11005   5.378   4.829   8.918  0.6887 -0.6540 -0.8060
  107OSM    C1F11006   4.862   5.378  10.400 -0.3380 -0.7056 -0.2023
  107OSM     OF11007   4.921   5.484  10.419 -0.1714 -0.0829 -0.1518
  107OSM    C2F11008   4.751   5.370  10.302 -0.1691  0.1727 -0.4991
  107OSM    H2F11009   4.665   5.431  10.339  0.4130  0.2442  0.8113
  107OSM    H2G11010   4.716   5.265  10.293  0.3891  0.0686 -1.5392
  107OSM    C3F11011   4.796   5.406  10.160 -0.3107 -0.2719 -0.1089
  107OSM    H3F11012   4.714   5.359  10.101 -1.1592 -0.0687  0.8787
  107OSM    H3G11013   4.890   5.351  10.136 -0.9859 -1.0144 -1.1141
  107OSM    C4F11014   4.800   5.558  10.132 -0.0123  0.2169  0.0575
  107OSM    H4F11015   4.893   5.614  10.155 -0.7317  1.7644 -0.6889
  107OSM    H4G11016   4.725   5.601  10.203 -0.3316  0.0722 -0.1904
  107OSM    C5F11017   4.749   5.595   9.992 -0.1194  0.4945 -0.4390
  107OSM    H5F11018   4.719   5.702   9.984  1.9532  1.1160 -0.5902
  107OSM    H5G11019   4.657   5.537   9.969 -0.4569  0.6802  0.4093
  107OSM    C6F11020   4.840   5.560   9.872 -0.1049 -0.2818  0.2126
  107OSM    H6F11021   4.877   5.456   9.871 -1.0726 -0.6424 -0.8113
  107OSM    H6G11022   4.934   5.619   9.870 -0.3225  0.0947 -2.1658
  107OSM    C7F11023   4.753   5.596   9.750 -0.2899 -0.1096  0.3786
  107OSM    H7F11024   4.730   5.705   9.748 -2.2923 -0.4839  0.8309
  107OSM    H7G11025   4.665   5.528   9.756  0.0588 -0.6213 -0.2673
  107OSM    C8F11026   4.821   5.567   9.609 -0.3798  0.6130 -0.2345
  107OSM    H8F11027   4.822   5.457   9.595  0.1874  0.6209 -0.2786
  107OSM    H8G11028   4.927   5.600   9.614  0.2299 -1.0992 -1.1587
  107OSM    C9F11029   4.765   5.634   9.495  0.0250 -0.5914  0.1240
  107OSM    H9F11030   4.657   5.625   9.475 -0.2731  1.2122  0.7213
  107OSM   C10F11031   4.828   5.726   9.417 -0.1968 -0.1167  0.2078
  107OSM   H10F11032   4.771   5.774   9.336  1.1342  0.0473 -0.6605
  107OSM   C11F11033   4.978   5.754   9.402 -0.0045 -0.1772  0.1203
  107OSM   H11F11034   5.038   5.703   9.481 -0.6769  0.7984  1.3113
  107OSM   H11G11035   4.990   5.860   9.433 -0.4223 -0.3494  0.9179
  107OSM   C12F11036   5.031   5.713   9.268  0.3083 -0.2978 -0.3328
  107OSM   H12F11037   5.027   5.603   9.256  1.8180 -0.6925  1.9939
  107OSM   H12G11038   5.139   5.734   9.284  0.3227  0.8530 -1.7588
  107OSM   C13F11039   4.989   5.798   9.144  0.3363 -0.1530 -1.1856
  107OSM   H13F11040   5.039   5.897   9.156  1.4847 -0.8940  0.6062
  107OSM   H13G11041   4.880   5.819   9.150  0.2925 -0.4377 -0.9651
  107OSM   C14F11042   5.017   5.742   9.003 -0.0480 -0.2176  0.7190
  107OSM   H14F11043   4.983   5.641   8.974  0.7629  0.3596 -2.6908
  107OSM   H14G11044   5.125   5.737   8.978  0.0148  0.3203  0.8705
  107OSM   C15F11045   4.970   5.846   8.896  0.0393  0.2100  0.0304
  107OSM   H15F11046   5.033   5.934   8.920  0.7824  0.2372 -1.8812
  107OSM   H15G11047   4.861   5.868   8.899  0.3306  1.7033  2.1808
  107OSM   C16F11048   4.995   5.799   8.754 -0.1028 -0.0404  0.0492
  107OSM   H16F11049   4.957   5.696   8.742  0.2573 -0.4367  2.0323
  107OSM   H16G11050   5.106   5.793   8.740 -0.0602 -0.5064  0.5700
  107OSM   C17F11051   4.947   5.892   8.640 -0.2720  0.5277  0.2907
  107OSM   H17F11052   5.007   5.986   8.640 -1.7460  1.5126  0.7449
  107OSM   H17G11053   4.840   5.911   8.664 -0.3697 -1.0009  1.1903
  107OSM   C18F11054   4.960   5.822   8.504 -1.1325  0.6116 -0.1718
  107OSM   H18F11055   5.067   5.796   8.491 -0.7948  0.1115  2.8845
  107OSM   H18G11056   4.943   5.901   8.427 -1.7603  2.3996  1.7134
  107OSM   H18H11057   4.898   5.731   8.493 -1.0555  0.3039  1.6260
  108OSM      N11058   2.391   3.038  10.818 -0.2605  0.2466  0.0490
  108OSM    C1511059   2.270   3.100  10.756  0.1097  0.0862  0.6932
  108OSM   H15A11060   2.229   3.052  10.669 -0.5242  0.7364  0.6249
  108OSM   H15B11061   2.273   3.206  10.737 -3.2597  0.2640  0.5347
  108OSM   H15C11062   2.190   3.091  10.828  0.3116 -3.6707  0.6407
  108OSM    C1411063   2.508   3.061  10.726  0.2280 -0.5113  0.1122
  108OSM   H14A11064   2.553   3.158  10.743  0.5868 -0.6821  0.1480
  108OSM   H14B11065   2.476   3.059  10.623  0.1624  2.0968  0.0167
  108OSM   H14C11066   2.586   2.988  10.742  0.8998  0.3214  0.7223
  108OSM    C1311067   2.421   3.107  10.942 -0.1802 -0.3775  0.1374
  108OSM   H13A11068   2.517   3.078  10.980 -1.3402 -2.2678  1.7824
  108OSM   H13B11069   2.353   3.081  11.022 -0.0048  2.3985  1.3330
  108OSM   H13C11070   2.429   3.215  10.935 -1.6095 -0.1803  1.0169
  108OSM    C1211071   2.370   2.890  10.839  1.0896 -0.2845  0.1681
  108OSM   H12A11072   2.359   2.850  10.739  1.9911  1.0557 -0.4886
  108OSM   H12B11073   2.283   2.856  10.893  0.8656 -1.1091 -0.6737
  108OSM    C1111074   2.485   2.801  10.903 -0.8321 -0.6103  0.5771
  108OSM   H11A11075   2.453   2.695  10.914 -1.7916 -0.1369  3.1063
  108OSM   H11B11076   2.485   2.852  11.002 -1.5818  1.6501 -0.5108
  108OSM      P11077   2.696   2.707  10.773  0.4320  0.1460 -0.5198
  108OSM    O1311078   2.801   2.775  10.691 -0.7039 -0.6608 -0.2387
  108OSM    O1411079   2.742   2.612  10.875 -0.7044 -0.0647  0.0416
  108OSM    O1111080   2.596   2.625  10.688 -0.1759 -0.1022 -0.1260
  108OSM    O1211081   2.608   2.820  10.839  0.2949 -0.5568  0.5300
  108OSM    C1S11082   2.511   2.669  10.584  0.1567 -0.5231 -0.5580
  108OSM    H1S11083   2.521   2.780  10.574 -4.8671  0.3719  1.4347
  108OSM    H1T11084   2.409   2.644  10.619  0.3749 -1.0554 -0.2839
  108OSM     NF11085   2.491   2.671  10.335 -0.7729 -0.2076  0.4557
  108OSM    HNF11086   2.413   2.642  10.281 -1.3295  2.7329 -0.5103
  108OSM    C2S11087   2.536   2.594  10.451 -0.2948  0.6702  0.0124
  108OSM    H2S11088   2.646   2.587  10.439 -0.4744 -2.3675 -0.6855
  108OSM    C3S11089   2.478   2.454  10.446 -0.1210  0.1464 -0.6020
  108OSM    H3S11090   2.368   2.462  10.463  0.1449  1.4638  0.7363
  108OSM     O311091   2.526   2.363  10.551  0.5103  0.1898  0.3208
  108OSM    HO311092   2.555   2.430  10.613  0.3211  1.1195 -0.5721
  108OSM    C4S11093   2.502   2.388  10.318 -0.7083  0.7509 -0.0142
  108OSM    H4S11094   2.605   2.363  10.286 -1.0931  1.2058 -1.7403
  108OSM    C5S11095   2.411   2.361  10.226 -0.1536  0.4444  0.5437
  108OSM    H5S11096   2.305   2.384  10.241  0.1522  1.1133  1.7563
  108OSM    C6S11097   2.440   2.300  10.092 -0.4393  0.1393  0.4814
  108OSM    H6S11098   2.364   2.219  10.087 -1.9599  1.5927 -2.1720
  108OSM    H6T11099   2.543   2.257  10.089 -0.5382 -0.1497  1.0681
  108OSM    C7S11100   2.419   2.388   9.971 -0.5116  0.8617 -0.5038
  108OSM    H7S11101   2.505   2.458   9.964  1.3317 -1.1390  0.7995
  108OSM    H7T11102   2.328   2.451   9.980 -0.3582  0.7937  3.0134
  108OSM    C8S11103   2.397   2.307   9.844  0.0644  0.0562 -0.0250
  108OSM    H8S11104   2.291   2.277   9.843  0.1074 -0.2097 -2.7877
  108OSM    H8T11105   2.470   2.223   9.838  0.0416  0.0778 -0.6640
  108OSM    C9S11106   2.421   2.395   9.719  0.8014  0.6806  0.1515
  108OSM    H9S11107   2.514   2.452   9.740  0.3440  1.6236 -0.3156
  108OSM    H9T11108   2.332   2.461   9.706  2.2067  2.3055 -1.8228
  108OSM   C10S11109   2.441   2.315   9.583  0.5054 -0.6060  0.6961
  108OSM   H10S11110   2.363   2.239   9.564 -0.7133  0.7394  0.0870
  108OSM   H10T11111   2.539   2.263   9.587  0.3899 -0.7743  1.8323
  108OSM   C11S11112   2.457   2.407   9.451  0.6837 -0.5178  0.4173
  108OSM   H11S11113   2.561   2.446   9.463  0.1069  1.2303 -0.0429
  108OSM   H11T11114   2.385   2.491   9.462  0.3362 -0.4939 -1.6400
  108OSM   C12S11115   2.452   2.335   9.321  0.0587  0.1754 -0.0407
  108OSM   H12S11116   2.352   2.288   9.310 -0.3844  0.5908  1.8630
  108OSM   H12T11117   2.529   2.255   9.321 -1.4270 -1.3668 -1.5915
  108OSM   C13S11118   2.463   2.425   9.196  0.5891 -0.5349  0.7213
  108OSM   H13S11119   2.511   2.363   9.117  0.4985 -0.2622  0.4498
  108OSM   H13T11120   2.529   2.508   9.228  0.4738 -1.1260  2.5950
  108OSM   C14S11121   2.319   2.480   9.152 -0.1866  0.2345  0.0027
  108OSM   H14S11122   2.275   2.521   9.246  1.4839 -0.8465  1.3142
  108OSM   H14T11123   2.261   2.388   9.130 -0.3114  0.0290  1.1340
  108OSM   C15S11124   2.317   2.593   9.048 -1.0391  1.0368  0.7605
  108OSM   H15S11125   2.374   2.687   9.059 -0.8402  1.2870 -1.8198
  108OSM   H15T11126   2.213   2.633   9.052 -1.0181  1.0835  0.8479
  108OSM   C16S11127   2.347   2.531   8.905 -0.0967  0.0008  0.3149
  108OSM   H16S11128   2.252   2.484   8.875  0.4974 -1.9255  1.3152
  108OSM   H16T11129   2.429   2.456   8.897 -1.3747 -1.6470  1.9251
  108OSM   C17S11130   2.362   2.650   8.808  0.6362  0.7197 -0.0413
  108OSM   H17S11131   2.465   2.688   8.827  0.2748  1.8295 -0.2180
  108OSM   H17T11132   2.305   2.740   8.840 -1.6824 -0.2235 -1.2726
  108OSM   C18S11133   2.348   2.617   8.658 -0.1147 -0.3201  0.0490
  108OSM   H18S11134   2.434   2.553   8.627  2.0181  1.9820  0.8675
  108OSM   H18T11135   2.360   2.714   8.605 -1.7853  0.5211  1.1276
  108OSM   H18U11136   2.249   2.568   8.648  0.6297 -1.9986  0.5386
  108OSM    C1F11137   2.555   2.794  10.294  0.4844  0.3762  0.0418
  108OSM     OF11138   2.667   2.818  10.332 -0.2528 -0.4275 -0.5967
  108OSM    C2F11139   2.488   2.887  10.198  0.6615 -0.4368  0.1478
  108OSM    H2F11140   2.405   2.935  10.254 -0.5470 -1.7103 -0.4947
  108OSM    H2G11141   2.442   2.838  10.109  0.9123 -0.3957 -0.0052
  108OSM    C3F11142   2.576   3.003  10.150 -0.5729 -0.0158  0.8790
  108OSM    H3F11143   2.668   2.955  10.111  0.2789  1.1985  1.3446
  108OSM    H3G11144   2.594   3.061  10.243 -2.2289 -1.3189  2.0836
  108OSM    C4F11145   2.521   3.097  10.043  0.2525  0.0656  0.4364
  108OSM    H4F11146   2.605   3.157  10.003 -1.0119  0.2434 -2.1385
  108OSM    H4G11147   2.449   3.166  10.092 -1.8364 -1.4807 -0.3126
  108OSM    C5F11148   2.454   3.035   9.926 -0.0887  0.5342 -0.0993
  108OSM    H5F11149   2.400   3.117   9.873 -2.2140  1.2056  2.8887
  108OSM    H5G11150   2.369   2.971   9.955 -0.4427  1.4870  1.0404
  108OSM    C6F11151   2.558   2.964   9.837  0.4102  0.0757  0.9319
  108OSM    H6F11152   2.610   2.884   9.895 -0.1370 -0.5012  0.6475
  108OSM    H6G11153   2.643   3.031   9.813  1.4840 -1.3715  0.5004
  108OSM    C7F11154   2.487   2.907   9.708  0.0620  0.3170  0.1777
  108OSM    H7F11155   2.427   2.986   9.660 -1.8511 -0.4178  1.2590
  108OSM    H7G11156   2.420   2.821   9.728 -0.4530 -0.2823 -3.5743
  108OSM    C8F11157   2.596   2.858   9.604  0.2137  0.2842 -0.3573
  108OSM    H8F11158   2.674   2.811   9.667  1.9141  2.3558 -0.7790
  108OSM    H8G11159   2.647   2.948   9.563  0.1096  0.6336  0.2758
  108OSM    C9F11160   2.533   2.766   9.500 -0.4935 -0.1545  0.0778
  108OSM    H9F11161   2.535   2.660   9.531  0.4900 -0.0925  0.2371
  108OSM   C10F11162   2.479   2.801   9.380 -0.3857  0.5071 -0.2043
  108OSM   H10F11163   2.447   2.718   9.315 -1.1569  0.1619  0.5948
  108OSM   C11F11164   2.470   2.942   9.336  0.3979 -0.3479 -0.3246
  108OSM   H11F11165   2.477   3.010   9.424  2.6584 -1.3387  0.3366
  108OSM   H11G11166   2.370   2.961   9.292  0.6177  0.2868 -0.5727
  108OSM   C12F11167   2.579   2.980   9.234 -0.4386 -0.0690  0.2166
  108OSM   H12F11168   2.677   2.932   9.251 -0.9602 -0.9049  0.9599
  108OSM   H12G11169   2.599   3.089   9.238  0.3135 -0.2052  0.2245
  108OSM   C13F11170   2.546   2.947   9.084 -0.1971  0.4640  0.0204
  108OSM   H13F11171   2.447   2.995   9.067 -0.2302  0.1183 -0.8153
  108OSM   H13G11172   2.520   2.839   9.073 -1.4248  0.7746 -0.3348
  108OSM   C14F11173   2.656   2.983   8.991  0.4766  0.6076 -0.5110
  108OSM   H14F11174   2.733   2.905   9.009 -0.3389 -0.8922 -2.8848
  108OSM   H14G11175   2.710   3.077   9.010  2.3266  0.0450 -2.5793
  108OSM   C15F11176   2.613   2.979   8.845 -0.3389 -1.0972  0.1633
  108OSM   H15F11177   2.554   3.069   8.816  0.6352 -0.0222  1.3752
  108OSM   H15G11178   2.538   2.898   8.832 -2.5085  0.8506 -0.0772
  108OSM   C16F11179   2.729   2.957   8.743 -0.2680 -0.0764 -0.2976
  108OSM   H16F11180   2.780   2.865   8.778  1.1870  0.7913 -0.0817
  108OSM   H16G11181   2.798   3.044   8.750 -0.2623 -0.0963 -0.1092
  108OSM   C17F11182   2.682   2.933   8.595 -0.7311  0.0001 -0.8730
  108OSM   H17F11183   2.642   3.030   8.558 -0.9502 -0.2377 -1.2618
  108OSM   H17G11184   2.592   2.868   8.600 -1.3745  0.9000 -0.3843
  108OSM   C18F11185   2.783   2.885   8.491 -0.4691 -0.2166 -0.7869
  108OSM   H18F11186   2.747   2.895   8.387 -2.4251  5.1354  0.0677
  108OSM   H18G11187   2.804   2.778   8.513 -4.0820 -0.7913  0.6773
  108OSM   H18H11188   2.883   2.931   8.504 -1.4021  1.5115  0.8995
  109OSM      N11189   3.728   2.402  11.275 -0.1619 -0.1631  0.7357
  109OSM    C1511190   3.629   2.406  11.389  0.6762  0.2018 -0.3910
  109OSM   H15A11191   3.562   2.490  11.377 -0.3810 -0.7544 -1.6024
  109OSM   H15B11192   3.680   2.416  11.483  0.8945  1.2207 -0.6081
  109OSM   H15C11193   3.563   2.321  11.400  0.2899  0.5983  0.3935
  109OSM    C1411194   3.852   2.345  11.325  0.2137 -0.3055 -0.1022
  109OSM   H14A11195   3.889   2.384  11.419 -2.1417  1.6380  0.1020
  109OSM   H14B11196   3.930   2.380  11.259  1.0107 -1.2716  0.3061
  109OSM   H14C11197   3.861   2.239  11.338 -2.6300 -0.3924  1.8999
  109OSM    C1311198   3.666   2.321  11.168 -1.1662  0.3508  0.1256
  109OSM   H13A11199   3.735   2.301  11.087 -0.7818 -1.8180  0.8975
  109OSM   H13B11200   3.576   2.365  11.128 -0.5095  0.9738 -0.6910
  109OSM   H13C11201   3.654   2.225  11.216  2.0187  0.7943  2.1059
  109OSM    C1211202   3.737   2.543  11.218 -0.0985  0.7140 -0.1597
  109OSM   H12A11203   3.639   2.572  11.185  0.5201  1.8097 -1.1357
  109OSM   H12B11204   3.798   2.542  11.129  0.5027  2.2416  0.1924
  109OSM    C1111205   3.802   2.646  11.313 -0.4018 -0.3929 -0.1473
  109OSM   H11A11206   3.760   2.637  11.416  1.2648  1.5874  0.7797
  109OSM   H11B11207   3.782   2.744  11.265 -2.4962 -0.0091  1.3298
  109OSM      P11208   4.040   2.630  11.194 -0.1429 -0.0265  0.2194
  109OSM    O1311209   4.126   2.754  11.194 -0.1441 -0.0770 -0.0155
  109OSM    O1411210   4.112   2.502  11.191  0.2000 -0.3715 -0.0539
  109OSM    O1111211   3.945   2.649  11.067 -0.4690  0.2281 -0.4629
  109OSM    O1211212   3.950   2.625  11.321  0.3951 -0.3758 -0.1709
  109OSM    C1S11213   3.990   2.612  10.937  0.7302 -0.3138 -0.3492
  109OSM    H1S11214   3.972   2.503  10.926 -1.5179 -0.3092  2.2913
  109OSM    H1T11215   4.097   2.634  10.917  0.8827 -2.5266 -2.3665
  109OSM     NF11216   3.957   2.634  10.687  0.0684 -0.4117  0.3632
  109OSM    HNF11217   4.028   2.694  10.650 -0.0902  1.9231  3.4259
  109OSM    C2S11218   3.916   2.684  10.814  0.0362  0.2849 -0.1767
  109OSM    H2S11219   3.807   2.660  10.823 -0.2902  0.9199 -2.0156
  109OSM    C3S11220   3.931   2.838  10.832  0.0044  0.3828 -0.5002
  109OSM    H3S11221   4.041   2.852  10.821  0.2041 -0.4228  0.4192
  109OSM     O311222   3.925   2.893  10.963  0.2101  0.4902 -0.1214
  109OSM    HO311223   3.905   2.824  11.026  0.2868  1.0772  0.5602
  109OSM    C4S11224   3.869   2.926  10.726  0.0874  0.3347 -0.0259
  109OSM    H4S11225   3.940   2.954  10.647  0.5699 -0.5819  0.0552
  109OSM    C5S11226   3.740   2.964  10.718 -0.2637  0.1733  0.1218
  109OSM    H5S11227   3.671   2.942  10.801 -2.5078  1.4222 -1.3350
  109OSM    C6S11228   3.688   3.042  10.600  0.1580  0.3804  0.2347
  109OSM    H6S11229   3.684   3.150  10.627  0.1771 -0.5674  4.8937
  109OSM    H6T11230   3.583   3.006  10.589 -0.1248  1.3105 -0.3014
  109OSM    C7S11231   3.742   3.021  10.465  0.1317  0.7009  0.0604
  109OSM    H7S11232   3.747   2.911  10.447 -0.1453  0.2445  2.3881
  109OSM    H7T11233   3.845   3.060  10.451  1.1568 -1.5443  0.8707
  109OSM    C8S11234   3.645   3.084  10.363  0.1399 -0.0170 -0.8098
  109OSM    H8S11235   3.628   3.187  10.399 -1.7528 -0.8815  0.9963
  109OSM    H8T11236   3.546   3.034  10.371  0.5238 -0.6218  0.4260
  109OSM    C9S11237   3.705   3.083  10.220 -0.4288  0.0045  0.5067
  109OSM    H9S11238   3.737   2.979  10.199  0.2615  0.2242  0.4512
  109OSM    H9T11239   3.790   3.154  10.211 -0.7168  0.1044 -2.1760
  109OSM   C10S11240   3.603   3.129  10.118 -0.7321  0.3837 -0.7279
  109OSM   H10S11241   3.588   3.239  10.120 -0.7281  0.3970 -1.1519
  109OSM   H10T11242   3.507   3.082  10.146  0.0970 -0.4136  0.9005
  109OSM   C11S11243   3.637   3.079   9.974  0.5286 -0.2160 -0.4103
  109OSM   H11S11244   3.609   2.971   9.972 -0.4924  0.0539 -1.1153
  109OSM   H11T11245   3.747   3.083   9.955  0.8661 -1.0427  1.1475
  109OSM   C12S11246   3.564   3.158   9.867 -0.4621 -0.7016  0.3735
  109OSM   H12S11247   3.596   3.264   9.855  2.8179 -1.6265  0.1536
  109OSM   H12T11248   3.457   3.167   9.896 -0.2026  1.5111  0.8688
  109OSM   C13S11249   3.578   3.077   9.729  0.2922  0.4594 -0.4559
  109OSM   H13S11250   3.503   3.101   9.651  0.8123 -0.1059 -1.1449
  109OSM   H13T11251   3.551   2.972   9.753 -0.3010  0.6182 -0.4164
  109OSM   C14S11252   3.716   3.078   9.666 -0.2735 -0.0978 -0.6447
  109OSM   H14S11253   3.792   3.057   9.744 -0.0894  3.1153  0.1798
  109OSM   H14T11254   3.735   3.181   9.629 -0.1730  0.1677  0.1443
  109OSM   C15S11255   3.741   2.987   9.541 -0.2846 -0.1662  0.3716
  109OSM   H15S11256   3.647   2.977   9.483 -0.6863 -1.3201  1.1726
  109OSM   H15T11257   3.767   2.883   9.572  1.2708  0.0227 -0.1863
  109OSM   C16S11258   3.859   3.030   9.457  0.2490  0.3657  0.5231
  109OSM   H16S11259   3.948   3.055   9.519 -0.3759  2.3046  0.7313
  109OSM   H16T11260   3.817   3.116   9.400 -1.6424  0.2357  1.6232
  109OSM   C17S11261   3.876   2.920   9.354  0.2517 -0.6755  0.2947
  109OSM   H17S11262   3.777   2.907   9.305  0.9921 -0.9600 -1.1770
  109OSM   H17T11263   3.912   2.826   9.402  0.9068 -1.4649 -1.6052
  109OSM   C18S11264   3.970   2.964   9.242  0.5719 -0.2228 -0.0276
  109OSM   H18S11265   3.978   2.888   9.160 -2.6327 -0.2474 -0.4751
  109OSM   H18T11266   4.070   3.001   9.272  1.2790 -1.5064 -0.6809
  109OSM   H18U11267   3.923   3.043   9.180 -2.6421 -1.5238  0.5510
  109OSM    C1F11268   3.941   2.512  10.655 -0.3799 -0.1925 -1.1906
  109OSM     OF11269   3.848   2.452  10.711 -0.2488  0.5168 -0.3060
  109OSM    C2F11270   4.046   2.438  10.582 -0.2701  0.8125 -0.4041
  109OSM    H2F11271   4.138   2.495  10.556 -0.1597 -0.5400 -3.2943
  109OSM    H2G11272   3.991   2.401  10.494 -1.3056 -0.5696  0.7809
  109OSM    C3F11273   4.079   2.315  10.666 -0.2669  0.4825 -0.4544
  109OSM    H3F11274   3.993   2.245  10.666 -0.5307  0.7480  1.3478
  109OSM    H3G11275   4.097   2.339  10.773 -1.1749 -0.1487 -0.1442
  109OSM    C4F11276   4.203   2.240  10.616 -0.2485 -0.1139 -0.0137
  109OSM    H4F11277   4.285   2.303  10.656 -0.3901 -0.4420  0.8327
  109OSM    H4G11278   4.216   2.235  10.506  2.0013 -1.1213  0.2431
  109OSM    C5F11279   4.208   2.100  10.681  0.0119  0.1371  0.0452
  109OSM    H5F11280   4.180   2.114  10.788 -1.5132 -0.2705 -0.2789
  109OSM    H5G11281   4.314   2.066  10.685  0.8121  2.5372  0.9981
  109OSM    C6F11282   4.120   1.994  10.614  0.5521  0.7414  1.0904
  109OSM    H6F11283   4.013   2.024  10.608  0.0696 -0.7653  1.6469
  109OSM    H6G11284   4.118   1.919  10.696  0.7270 -0.9710 -0.3840
  109OSM    C7F11285   4.172   1.934  10.486 -0.3234  0.5451  0.1923
  109OSM    H7F11286   4.280   1.906  10.493 -0.4827 -0.7689 -1.8724
  109OSM    H7G11287   4.168   2.013  10.409 -1.6952  1.2795  0.9775
  109OSM    C8F11288   4.095   1.805  10.452  0.2211  0.1826  0.1133
  109OSM    H8F11289   4.090   1.743  10.544 -2.4120  1.8345  1.1909
  109OSM    H8G11290   4.138   1.746  10.368 -2.7167 -0.7698 -0.8689
  109OSM    C9F11291   3.943   1.821  10.418 -0.0943  0.6308  0.4287
  109OSM    H9F11292   3.870   1.797  10.497 -1.5918  0.5147 -0.9407
  109OSM   C10F11293   3.890   1.874  10.310 -0.0557  0.5139  0.2182
  109OSM   H10F11294   3.782   1.863  10.294  0.3417 -0.9866 -2.0433
  109OSM   C11F11295   3.976   1.925  10.197 -0.3565 -0.6955  0.3019
  109OSM   H11F11296   4.074   1.961  10.233 -0.8167  1.8457 -0.7836
  109OSM   H11G11297   3.930   2.014  10.150 -0.5283 -1.4322 -0.9850
  109OSM   C12F11298   4.006   1.827  10.081 -0.6688  0.2797 -0.1162
  109OSM   H12F11299   4.056   1.735  10.118  1.3216  1.3926  0.0750
  109OSM   H12G11300   4.073   1.876  10.007 -1.3066 -1.0154 -1.6146
  109OSM   C13F11301   3.882   1.796  10.006  1.2591 -0.1752  0.3797
  109OSM   H13F11302   3.841   1.883   9.950 -0.7516 -0.7069  0.9225
  109OSM   H13G11303   3.808   1.774  10.086  1.5866 -2.0973  0.1935
  109OSM   C14F11304   3.887   1.681   9.908  0.1615  0.5964  0.2505
  109OSM   H14F11305   3.904   1.586   9.964  0.6773  1.3475  1.4186
  109OSM   H14G11306   3.958   1.707   9.827  0.7510 -0.9590  0.2375
  109OSM   C15F11307   3.753   1.663   9.824  0.0275 -0.0875 -0.2147
  109OSM   H15F11308   3.669   1.684   9.894  1.4302  0.4846  1.3991
  109OSM   H15G11309   3.754   1.559   9.785  1.3468  0.2849 -1.2340
  109OSM   C16F11310   3.747   1.748   9.695  0.0772 -0.4661  0.0038
  109OSM   H16F11311   3.808   1.692   9.620 -1.9781  1.1431 -3.0893
  109OSM   H16G11312   3.796   1.846   9.712  0.1439 -0.3925 -0.6060
  109OSM   C17F11313   3.606   1.763   9.640 -0.3572  0.3650  0.1324
  109OSM   H17F11314   3.614   1.817   9.544 -1.9753 -2.7920 -1.9796
  109OSM   H17G11315   3.542   1.822   9.710 -2.1190 -0.8816 -0.3479
  109OSM   C18F11316   3.544   1.629   9.606 -0.0011  0.0592  0.5185
  109OSM   H18F11317   3.440   1.637   9.569  0.6599  0.5600 -1.3598
  109OSM   H18G11318   3.546   1.564   9.696  1.1879 -0.5782  0.0586
  109OSM   H18H11319   3.592   1.570   9.524 -0.4293 -0.7595  0.8497
  110OSM      N11320   0.099   2.243  10.827 -0.5222  0.2337  0.0540
  110OSM    C1511321   0.149   2.247  10.688 -0.3235 -0.7855  0.0390
  110OSM   H15A11322   0.118   2.163  10.628  2.8270 -2.4439  0.5503
  110OSM   H15B11323   0.257   2.257  10.685 -0.2229 -0.1026  2.7414
  110OSM   H15C11324   0.107   2.330  10.632  0.5348  0.1749  0.7595
  110OSM    C1411325   0.166   2.130  10.904  0.4421 -0.5410  0.4170
  110OSM   H14A11326   0.133   2.034  10.869 -2.4379  0.6250 -0.3157
  110OSM   H14B11327   0.153   2.138  11.011  1.5688 -1.2870  0.6260
  110OSM   H14C11328   0.272   2.133  10.881  0.7629  0.4899  1.8904
  110OSM    C1311329   0.129   2.367  10.900 -0.3393  0.2131  0.3805
  110OSM   H13A11330   0.233   2.374  10.927 -0.1790  0.4320 -0.2594
  110OSM   H13B11331   0.088   2.372  10.999 -0.5971 -1.1390  0.3610
  110OSM   H13C11332   0.114   2.450  10.832  0.7386 -1.4902 -2.0948
  110OSM    C1211333  -0.051   2.219  10.813  0.5279  1.1125 -0.3241
  110OSM   H12A11334  -0.059   2.145  10.734  0.7745  0.9279 -0.1776
  110OSM   H12B11335  -0.090   2.313  10.777  1.0958  1.0296 -1.1812
  110OSM    C1111336  -0.123   2.173  10.943 -0.4186 -0.1762 -0.5109
  110OSM   H11A11337  -0.082   2.078  10.983 -2.1506 -0.9863 -0.5766
  110OSM   H11B11338  -0.225   2.148  10.906 -1.2784  1.5813  0.5612
  110OSM      P11339  -0.227   2.392  11.035  0.0578  0.0445 -0.5606
  110OSM    O1311340  -0.345   2.377  11.127  0.7198  0.2234  0.1612
  110OSM    O1411341  -0.151   2.516  11.054 -0.1484 -0.5730 -0.6838
  110OSM    O1111342  -0.285   2.392  10.883 -0.4929  0.0552 -0.3354
  110OSM    O1211343  -0.129   2.272  11.046 -0.1145 -0.0687 -0.2263
  110OSM    C1S11344  -0.421   2.358  10.844 -0.4026 -0.5038 -0.2839
  110OSM    H1S11345  -0.486   2.343  10.933 -0.6047 -0.6386 -0.4544
  110OSM    H1T11346  -0.423   2.256  10.800 -1.2476  0.7829 -3.4636
  110OSM     NF11347  -0.614   2.425  10.704  0.6309  0.0269  0.5898
  110OSM    HNF11348  -0.637   2.374  10.622 -0.4457  1.7468 -0.2240
  110OSM    C2S11349  -0.472   2.447  10.731  0.0910 -0.2575 -0.4984
  110OSM    H2S11350  -0.460   2.554  10.757 -0.1973  0.2442 -2.2585
  110OSM    C3S11351  -0.375   2.424  10.609  0.1106 -0.3105 -0.0539
  110OSM    H3S11352  -0.397   2.320  10.576 -1.0908 -0.6664  1.7058
  110OSM     O311353  -0.235   2.420  10.642 -0.3400  0.5302 -0.0893
  110OSM    HO311354  -0.242   2.399  10.735 -1.6553 -0.9541 -0.4730
  110OSM    C4S11355  -0.414   2.517  10.490 -0.5025  0.0553 -0.4980
  110OSM    H4S11356  -0.513   2.506  10.444 -1.1248  1.2499  0.5042
  110OSM    C5S11357  -0.338   2.623  10.449 -0.4029 -0.0619  1.0029
  110OSM    H5S11358  -0.238   2.648  10.488  1.2839 -1.0633 -2.2657
  110OSM    C6S11359  -0.388   2.705  10.332 -0.4460 -1.2601  0.5175
  110OSM    H6S11360  -0.353   2.811  10.342  1.1513 -1.8449  1.6175
  110OSM    H6T11361  -0.499   2.703  10.336 -0.5172 -0.3400 -0.5289
  110OSM    C7S11362  -0.340   2.650  10.197 -0.0117  0.6048 -0.4096
  110OSM    H7S11363  -0.383   2.550  10.175 -0.4623  0.9957 -1.3644
  110OSM    H7T11364  -0.229   2.643  10.199 -0.0371 -0.3085  2.4405
  110OSM    C8S11365  -0.394   2.741  10.083  0.2231  0.2011 -0.8653
  110OSM    H8S11366  -0.344   2.839  10.100 -0.7593  0.8237 -1.4562
  110OSM    H8T11367  -0.503   2.758  10.080  0.1453 -0.2421 -0.7150
  110OSM    C9S11368  -0.358   2.685   9.942  0.0077  0.3788 -0.9899
  110OSM    H9S11369  -0.424   2.596   9.932 -1.0231  0.6830  2.2028
  110OSM    H9T11370  -0.251   2.654   9.935 -0.0707 -0.5913  1.3095
  110OSM   C10S11371  -0.398   2.785   9.837  1.1550  0.1911  0.0599
  110OSM   H10S11372  -0.330   2.873   9.850  1.1877  0.0327  1.0553
  110OSM   H10T11373  -0.500   2.827   9.840  0.4340 -1.4315 -0.5809
  110OSM   C11S11374  -0.386   2.719   9.695  0.0302  0.1140  0.2737
  110OSM   H11S11375  -0.448   2.627   9.708 -1.5629  1.3367  1.9282
  110OSM   H11T11376  -0.277   2.697   9.693 -0.4981 -3.1636  0.4547
  110OSM   C12S11377  -0.435   2.809   9.583 -0.1493 -0.0719 -0.0914
  110OSM   H12S11378  -0.417   2.916   9.607 -2.7391  0.4315 -0.0433
  110OSM   H12T11379  -0.546   2.806   9.586 -0.3430  3.3624  0.0413
  110OSM   C13S11380  -0.393   2.760   9.442 -0.3025 -0.2635 -0.5544
  110OSM   H13S11381  -0.432   2.656   9.444 -0.0585 -0.3516 -0.1063
  110OSM   H13T11382  -0.283   2.755   9.432 -0.1935 -1.0687  0.7764
  110OSM   C14S11383  -0.461   2.844   9.324 -0.7736 -0.1303  0.6339
  110OSM   H14S11384  -0.434   2.952   9.321  3.5739 -1.0228 -0.1201
  110OSM   H14T11385  -0.569   2.851   9.348 -0.7362 -1.5533  1.3445
  110OSM   C15S11386  -0.431   2.790   9.184  0.3129 -0.2134  0.9711
  110OSM   H15S11387  -0.478   2.691   9.166  0.1753  0.0478 -0.2500
  110OSM   H15T11388  -0.320   2.795   9.172  0.3406 -0.5287  1.0982
  110OSM   C16S11389  -0.494   2.872   9.062 -0.3078 -0.4693 -0.1770
  110OSM   H16S11390  -0.486   2.980   9.085  0.0449 -0.3594 -0.8103
  110OSM   H16T11391  -0.593   2.832   9.030 -0.8504  0.5540  0.1766
  110OSM   C17S11392  -0.403   2.861   8.938 -0.0343  0.0863  0.3904
  110OSM   H17S11393  -0.388   2.752   8.918 -2.2851  0.1083 -2.0095
  110OSM   H17T11394  -0.308   2.913   8.960  0.5220 -0.2633 -1.0684
  110OSM   C18S11395  -0.474   2.926   8.814  0.0063  0.4863  0.3018
  110OSM   H18S11396  -0.415   2.917   8.720  0.3620 -1.6615  0.6811
  110OSM   H18T11397  -0.501   3.029   8.845  0.9012  0.8248 -0.0411
  110OSM   H18U11398  -0.569   2.874   8.787  0.6155 -2.0716  2.6087
  110OSM    C1F11399  -0.707   2.464  10.787  1.2024 -0.3591 -0.2844
  110OSM     OF11400  -0.678   2.535  10.882  0.0368 -0.6055  0.2345
  110OSM    C2F11401  -0.848   2.419  10.757  0.9949  0.2885  0.0086
  110OSM    H2F11402  -0.898   2.388  10.851 -0.4096  0.4479 -0.6638
  110OSM    H2G11403  -0.850   2.342  10.677 -1.7252  0.9462 -0.6423
  110OSM    C3F11404  -0.932   2.532  10.692 -0.4977  0.2737  0.5946
  110OSM    H3F11405  -0.867   2.564  10.607 -2.8317 -1.4933 -2.0277
  110OSM    H3G11406  -0.945   2.618  10.761 -1.5434 -1.7863  3.1129
  110OSM    C4F11407  -1.061   2.479  10.632  0.3271  0.1664  0.0307
  110OSM    H4F11408  -1.133   2.486  10.717  0.9803  1.4916  0.5042
  110OSM    H4G11409  -1.047   2.374  10.600 -2.5437  0.2924 -2.0375
  110OSM    C5F11410  -1.121   2.553  10.511  0.1422  0.4274  0.0776
  110OSM    H5F11411  -1.031   2.588  10.457  0.0662  0.5593  0.0327
  110OSM    H5G11412  -1.175   2.642  10.550 -3.4530 -1.1673 -0.8234
  110OSM    C6F11413  -1.234   2.478  10.434  0.1237  0.1516 -0.0493
  110OSM    H6F11414  -1.288   2.552  10.371  0.5788 -2.7142 -4.1397
  110OSM    H6G11415  -1.306   2.425  10.500 -2.2643  2.1508 -0.8807
  110OSM    C7F11416  -1.186   2.368  10.342 -0.0795  0.1433  0.2328
  110OSM    H7F11417  -1.117   2.313  10.410 -0.2035 -0.4058 -0.0818
  110OSM    H7G11418  -1.133   2.420  10.260 -1.0016 -1.3974 -1.4244
  110OSM    C8F11419  -1.297   2.268  10.298 -0.6074 -0.3232  0.2121
  110OSM    H8F11420  -1.368   2.326  10.235  0.8878  1.7378  0.3485
  110OSM    H8G11421  -1.351   2.238  10.391  0.3324 -1.4328  0.4156
  110OSM    C9F11422  -1.250   2.151  10.220  0.5735 -0.0801 -0.4169
  110OSM    H9F11423  -1.255   2.055  10.275  2.1519  0.5658  0.9292
  110OSM   C10F11424  -1.192   2.143  10.103 -0.0356 -0.0656 -0.1712
  110OSM   H10F11425  -1.160   2.045  10.065  1.5205  0.6925 -0.9224
  110OSM   C11F11426  -1.165   2.258  10.019  0.5336  0.2448  0.9373
  110OSM   H11F11427  -1.058   2.282  10.008  0.7592 -0.7237  0.9186
  110OSM   H11G11428  -1.214   2.353  10.051  0.6557  0.6922 -0.1565
  110OSM   C12F11429  -1.229   2.238   9.875 -0.5343  0.0706 -0.3108
  110OSM   H12F11430  -1.339   2.252   9.885 -0.8938 -2.0412 -0.7959
  110OSM   H12G11431  -1.209   2.134   9.840 -0.5369  0.4814 -1.5858
  110OSM   C13F11432  -1.168   2.334   9.779  0.4022  0.9578  0.6677
  110OSM   H13F11433  -1.061   2.317   9.754  0.2462  0.1255  0.5185
  110OSM   H13G11434  -1.166   2.436   9.822  2.7261  0.5758  1.6104
  110OSM   C14F11435  -1.250   2.334   9.646 -0.0239 -0.0675 -0.4556
  110OSM   H14F11436  -1.359   2.334   9.669 -0.0746  0.9507 -0.6151
  110OSM   H14G11437  -1.247   2.235   9.597  0.8514 -1.1875  1.7085
  110OSM   C15F11438  -1.213   2.440   9.551 -0.2395  0.2508 -0.3047
  110OSM   H15F11439  -1.103   2.449   9.548 -0.2086 -0.2815 -1.1670
  110OSM   H15G11440  -1.241   2.535   9.603 -0.1630 -0.9816  2.1166
  110OSM   C16F11441  -1.275   2.420   9.412  0.1026 -0.2876 -0.1008
  110OSM   H16F11442  -1.268   2.520   9.364 -0.7455  0.1979  0.7516
  110OSM   H16G11443  -1.380   2.398   9.441 -0.4433  0.0887 -1.6670
  110OSM   C17F11444  -1.221   2.309   9.325  0.3681 -0.8287 -0.5645
  110OSM   H17F11445  -1.255   2.215   9.374  1.4466 -0.1924  1.5003
  110OSM   H17G11446  -1.110   2.315   9.330  0.2270  1.7234  0.9856
  110OSM   C18F11447  -1.269   2.313   9.183  0.1440 -0.8032  0.5375
  110OSM   H18F11448  -1.375   2.348   9.177  0.4178  0.0293  0.4359
  110OSM   H18G11449  -1.258   2.209   9.146 -0.5157 -0.3856 -0.9094
  110OSM   H18H11450  -1.215   2.385   9.118 -0.7100  0.6908  1.4215
  111OSM      N11451   5.938   0.360  10.940 -0.2015 -0.7215  0.5598
  111OSM    C1511452   6.064   0.342  11.019  0.1625  0.5941  0.0616
  111OSM   H15A11453   6.058   0.382  11.119 -0.9692 -0.1815  0.3219
  111OSM   H15B11454   6.144   0.390  10.964  0.7375 -0.2023  0.1907
  111OSM   H15C11455   6.071   0.235  11.024 -2.3709  0.3088 -0.8528
  111OSM    C1411456   5.826   0.315  11.025  0.2360 -0.0428  0.5027
  111OSM   H14A11457   5.737   0.353  10.975  1.5055  0.0460 -1.8468
  111OSM   H14B11458   5.840   0.354  11.125  0.4688 -1.4091  1.0098
  111OSM   H14C11459   5.830   0.210  11.049 -1.0287 -0.3399 -0.4338
  111OSM    C1311460   5.925   0.507  10.921 -0.0186  0.4495 -0.8244
  111OSM   H13A11461   5.997   0.556  10.856  0.1191 -0.6130 -1.4995
  111OSM   H13B11462   5.930   0.563  11.013  0.9720  0.8542 -1.1075
  111OSM   H13C11463   5.827   0.537  10.887 -1.5342  1.3216  3.6522
  111OSM    C1211464   5.944   0.293  10.807 -0.5796 -0.1535  0.8169
  111OSM   H12A11465   5.978   0.361  10.730 -2.7429 -0.2807 -0.3002
  111OSM   H12B11466   5.846   0.270  10.768 -0.0536 -1.2155  0.0824
  111OSM    C1111467   6.030   0.157  10.798  0.4117  0.1840 -0.1588
  111OSM   H11A11468   6.137   0.183  10.809  0.1551  0.9756  0.5472
  111OSM   H11B11469   6.028   0.117  10.694  2.9599 -1.3266  0.2969
  111OSM      P11470   5.881  -0.040  10.858 -0.2705 -0.2647  0.2786
  111OSM    O1311471   5.832  -0.116  10.977  0.6985 -0.2395  0.1632
  111OSM    O1411472   5.782   0.037  10.778  0.1658  0.1532  0.4597
  111OSM    O1111473   5.973  -0.127  10.770  0.4414 -0.2925  0.4636
  111OSM    O1211474   5.992   0.066  10.901  0.2703 -0.2915 -0.8842
  111OSM    C1S11475   5.924  -0.222  10.676  0.6893  0.1905  0.0532
  111OSM    H1S11476   5.829  -0.273  10.703  1.7603 -3.2806 -2.0443
  111OSM    H1T11477   5.995  -0.307  10.666 -0.6044 -0.8031 -1.1369
  111OSM     NF11478   5.795  -0.248  10.475  0.7057  0.3070 -0.1697
  111OSM    HNF11479   5.815  -0.306  10.397 -1.4413 -0.3137 -0.3158
  111OSM    C2S11480   5.900  -0.168  10.536 -0.0053 -0.3083  0.3586
  111OSM    H2S11481   5.859  -0.065  10.545  2.3162  0.9184 -1.8716
  111OSM    C3S11482   6.029  -0.160  10.462  1.0815  0.6650  0.9858
  111OSM    H3S11483   6.050  -0.264  10.428 -0.0198  0.9505 -0.7173
  111OSM     O311484   6.140  -0.108  10.541  0.6038  0.4664 -0.1972
  111OSM    HO311485   6.117  -0.091  10.632 -1.5001  2.2490 -0.9803
  111OSM    C4S11486   6.007  -0.075  10.338  0.7269  0.3775 -0.5425
  111OSM    H4S11487   6.003  -0.131  10.243 -0.1419 -0.5763  0.0349
  111OSM    C5S11488   6.010   0.056  10.329 -0.4550 -0.3206 -0.0730
  111OSM    H5S11489   6.017   0.108  10.426 -1.8792 -1.5845  0.7600
  111OSM    C6S11490   6.006   0.150  10.205  0.4604 -0.2798  0.0684
  111OSM    H6S11491   6.097   0.212  10.190 -0.6865  1.5394  0.2160
  111OSM    H6T11492   5.919   0.219  10.210  1.6451  1.2057  2.1699
  111OSM    C7S11493   5.971   0.086  10.074  0.1421  0.6694 -0.7123
  111OSM    H7S11494   5.869   0.047  10.093  1.0480 -1.3137  0.4210
  111OSM    H7T11495   6.043   0.004  10.053  1.9502  1.4949  1.7598
  111OSM    C8S11496   5.967   0.193   9.960 -0.6349 -0.6417  0.0422
  111OSM    H8S11497   6.074   0.220   9.949 -0.8974  0.3679 -0.0629
  111OSM    H8T11498   5.913   0.286   9.987 -1.0750 -0.8192 -0.2200
  111OSM    C9S11499   5.906   0.149   9.836  0.3722  0.0868  0.2053
  111OSM    H9S11500   5.798   0.129   9.849  0.3663 -0.7077 -0.8405
  111OSM    H9T11501   5.952   0.050   9.811  2.5969  1.1229 -0.0692
  111OSM   C10S11502   5.947   0.242   9.718 -0.2182  0.3377 -0.6246
  111OSM   H10S11503   6.058   0.238   9.713 -0.1138  2.6537 -1.4408
  111OSM   H10T11504   5.912   0.343   9.750 -0.1257  0.2001 -0.0968
  111OSM   C11S11505   5.896   0.200   9.576 -0.2816 -0.2147 -0.9015
  111OSM   H11S11506   5.788   0.176   9.588 -0.0914 -0.9036 -0.5234
  111OSM   H11T11507   5.944   0.103   9.553  0.7761  0.0222  0.2023
  111OSM   C12S11508   5.941   0.299   9.473 -0.3393  0.7798  0.7887
  111OSM   H12S11509   6.051   0.312   9.475 -0.5091  2.8281 -0.2132
  111OSM   H12T11510   5.898   0.399   9.499 -1.7187  0.5933 -0.6133
  111OSM   C13S11511   5.908   0.265   9.321  0.0769 -0.2840 -0.7520
  111OSM   H13S11512   5.799   0.253   9.303 -0.2572  1.0947  0.1763
  111OSM   H13T11513   5.969   0.173   9.304  1.2645  0.4741 -0.7289
  111OSM   C14S11514   5.977   0.366   9.229 -0.5656 -0.0557  0.4191
  111OSM   H14S11515   5.997   0.316   9.132 -0.0589  0.0298  0.4800
  111OSM   H14T11516   6.075   0.369   9.282  0.5142  1.2965 -1.5271
  111OSM   C15S11517   5.913   0.503   9.222 -0.2484 -0.0918  0.0049
  111OSM   H15S11518   5.830   0.508   9.296  1.1070 -0.0592  1.5753
  111OSM   H15T11519   5.874   0.512   9.118  1.2525 -0.7519 -0.6384
  111OSM   C16S11520   6.013   0.620   9.229  0.2370  0.5339 -0.1705
  111OSM   H16S11521   5.950   0.706   9.198  0.4508  1.1276  0.9729
  111OSM   H16T11522   6.104   0.589   9.174 -0.3594 -4.0740  0.9959
  111OSM   C17S11523   6.046   0.647   9.379  0.0229 -0.4537  0.3324
  111OSM   H17S11524   6.119   0.569   9.409  0.0959  0.0954  1.6348
  111OSM   H17T11525   5.954   0.631   9.439 -1.0499  2.4074 -0.3715
  111OSM   C18S11526   6.106   0.784   9.408 -0.3014 -0.1700  0.0002
  111OSM   H18S11527   6.211   0.792   9.371  1.7799 -2.2138  4.6351
  111OSM   H18T11528   6.107   0.801   9.518 -1.6816  3.1669 -0.3612
  111OSM   H18U11529   6.046   0.869   9.369 -0.5058 -0.8500 -1.2087
  111OSM    C1F11530   5.666  -0.254  10.510  0.2964 -0.0155 -0.3675
  111OSM     OF11531   5.619  -0.189  10.604 -0.1255 -0.8624 -0.2609
  111OSM    C2F11532   5.573  -0.345  10.438  0.0117 -0.5839  0.1201
  111OSM    H2F11533   5.502  -0.387  10.512 -1.4154  0.8151 -0.4154
  111OSM    H2G11534   5.633  -0.421  10.384  0.1106 -0.4529  0.0441
  111OSM    C3F11535   5.484  -0.253  10.346  0.4764 -0.2229  0.3746
  111OSM    H3F11536   5.539  -0.187  10.276 -1.7731  1.7024  0.2785
  111OSM    H3G11537   5.428  -0.176  10.404 -1.2164 -1.9352  1.1008
  111OSM    C4F11538   5.381  -0.321  10.262  0.0947 -0.3563  0.1828
  111OSM    H4F11539   5.307  -0.364  10.332 -3.2689 -0.5765 -3.1847
  111OSM    H4G11540   5.430  -0.415  10.226 -0.3980 -0.8797  0.8589
  111OSM    C5F11541   5.315  -0.234  10.157 -0.7130  0.1493  0.0033
  111OSM    H5F11542   5.320  -0.125  10.179  0.6959  0.2661 -0.8110
  111OSM    H5G11543   5.208  -0.266  10.151 -0.9248  1.0729 -1.7235
  111OSM    C6F11544   5.377  -0.240  10.016  0.5854 -0.0830 -0.1530
  111OSM    H6F11545   5.380  -0.346   9.985 -0.2646 -0.3872  0.7571
  111OSM    H6G11546   5.484  -0.211  10.024  0.9822 -1.1515 -1.3336
  111OSM    C7F11547   5.306  -0.163   9.916  0.0223  0.2814  0.2484
  111OSM    H7F11548   5.270  -0.065   9.954 -0.5220  1.0824 -2.1523
  111OSM    H7G11549   5.211  -0.208   9.880 -0.4852  0.2195  1.6029
  111OSM    C8F11550   5.401  -0.118   9.808 -0.5224 -0.0444  0.5627
  111OSM    H8F11551   5.431  -0.204   9.744 -2.5693 -1.2293  1.0808
  111OSM    H8G11552   5.498  -0.088   9.852 -0.2178 -0.5482  0.2490
  111OSM    C9F11553   5.358  -0.001   9.718  0.4309  0.9621 -0.4772
  111OSM    H9F11554   5.334   0.095   9.767  0.7080  0.2404  1.1280
  111OSM   C10F11555   5.335  -0.005   9.589 -0.3644  0.5098  0.3535
  111OSM   H10F11556   5.310   0.088   9.536 -0.6126 -1.0369 -2.4496
  111OSM   C11F11557   5.353  -0.127   9.510  0.0475 -0.8534  0.4659
  111OSM   H11F11558   5.427  -0.193   9.558  0.9913  0.2933  0.6418
  111OSM   H11G11559   5.405  -0.095   9.417  0.6959 -1.4064  0.6362
  111OSM   C12F11560   5.218  -0.195   9.461 -0.0579  0.1059  0.0209
  111OSM   H12F11561   5.148  -0.115   9.431  1.3886  1.2281 -0.5148
  111OSM   H12G11562   5.181  -0.257   9.545  1.3975 -0.8183  0.0251
  111OSM   C13F11563   5.252  -0.292   9.343  0.7514 -0.4295 -0.5205
  111OSM   H13F11564   5.322  -0.372   9.376  0.9687 -0.1984 -0.4228
  111OSM   H13G11565   5.306  -0.221   9.277  0.8774  0.3483  0.3923
  111OSM   C14F11566   5.125  -0.340   9.270  0.0859  0.2943 -0.8902
  111OSM   H14F11567   5.056  -0.254   9.281 -0.4861 -0.4104  1.6871
  111OSM   H14G11568   5.085  -0.421   9.335  0.1810 -0.4425 -1.7346
  111OSM   C15F11569   5.145  -0.395   9.125  0.0592  0.3760  0.5143
  111OSM   H15F11570   5.045  -0.430   9.091  1.2364 -2.6368 -0.1607
  111OSM   H15G11571   5.213  -0.482   9.110 -1.2800 -0.6492  0.1797
  111OSM   C16F11572   5.187  -0.288   9.024  0.2011  0.0228  0.8923
  111OSM   H16F11573   5.297  -0.291   9.007  0.1909 -0.6613  0.9372
  111OSM   H16G11574   5.145  -0.188   9.046  0.5577  0.0614  1.4203
  111OSM   C17F11575   5.140  -0.319   8.879 -0.0558 -0.0924 -0.7264
  111OSM   H17F11576   5.029  -0.324   8.876 -0.2914  2.5072  0.4931
  111OSM   H17G11577   5.193  -0.411   8.846  2.2614  0.5716  0.8609
  111OSM   C18F11578   5.168  -0.207   8.785 -0.1539 -0.0736  0.4741
  111OSM   H18F11579   5.274  -0.174   8.798  0.1142 -0.8641  0.3213
  111OSM   H18G11580   5.112  -0.114   8.810  2.0496  1.4136  0.1869
  111OSM   H18H11581   5.157  -0.234   8.678 -1.2865  1.9798  0.0031
  112OSM      N11582   5.275   3.472  11.245  0.1500  0.0146  0.5674
  112OSM    C1511583   5.144   3.493  11.307 -0.4228  0.3464 -0.3161
  112OSM   H15A11584   5.129   3.581  11.368 -1.6684  0.8694 -1.3198
  112OSM   H15B11585   5.118   3.414  11.377  1.9970 -0.8636 -0.6926
  112OSM   H15C11586   5.074   3.510  11.226  0.4659  3.0977 -0.5959
  112OSM    C1411587   5.370   3.488  11.354  0.5363  0.4303 -0.7468
  112OSM   H14A11588   5.469   3.485  11.310  1.6949  1.1162  1.6110
  112OSM   H14B11589   5.364   3.402  11.419 -0.8342  0.4126 -0.8684
  112OSM   H14C11590   5.354   3.577  11.414 -0.0889  0.1739 -0.5310
  112OSM    C1311591   5.289   3.325  11.191  0.3324 -0.3988 -0.0177
  112OSM   H13A11592   5.282   3.258  11.276 -0.2114  0.7153  0.8472
  112OSM   H13B11593   5.387   3.306  11.151  0.5788 -3.9008  1.7760
  112OSM   H13C11594   5.205   3.307  11.126  0.5439 -1.4554 -0.0198
  112OSM    C1211595   5.298   3.581  11.140 -0.0069  0.1372 -0.4247
  112OSM   H12A11596   5.405   3.582  11.123  0.5840 -2.4454  2.3335
  112OSM   H12B11597   5.273   3.679  11.178 -0.8322 -0.6391  1.1436
  112OSM    C1111598   5.222   3.567  11.009 -0.2561 -0.0119 -0.4363
  112OSM   H11A11599   5.250   3.467  10.969 -1.9929  0.4470 -3.1190
  112OSM   H11B11600   5.261   3.638  10.933  0.0798  0.8560  0.5324
  112OSM      P11601   4.999   3.714  10.978  0.0891  0.0083  0.1978
  112OSM    O1311602   4.853   3.710  11.005 -0.1348  0.2084  0.3492
  112OSM    O1411603   5.069   3.830  11.035  0.3805 -0.1168 -0.5685
  112OSM    O1111604   5.025   3.726  10.824  0.1793 -0.0614 -0.0156
  112OSM    O1211605   5.077   3.582  11.021 -0.3989 -0.0228 -0.6073
  112OSM    C1S11606   4.969   3.627  10.738  1.3375  0.5157  0.3988
  112OSM    H1S11607   4.860   3.644  10.722  1.0857 -2.4164 -1.8387
  112OSM    H1T11608   4.996   3.529  10.781  0.9801  0.9137  1.5804
  112OSM     NF11609   4.988   3.495  10.531  0.2695  0.1398 -0.4865
  112OSM    HNF11610   5.040   3.411  10.532  0.8251  0.4135  2.7550
  112OSM    C2S11611   5.042   3.621  10.596  0.2184  0.4372 -0.2313
  112OSM    H2S11612   5.010   3.699  10.524  0.4994 -0.0163 -0.8660
  112OSM    C3S11613   5.201   3.625  10.620  0.5211 -0.2030 -0.4307
  112OSM    H3S11614   5.235   3.536  10.679 -1.1667 -1.1548 -0.8302
  112OSM     O311615   5.253   3.734  10.695 -0.0728  0.2011 -0.5165
  112OSM    HO311616   5.173   3.774  10.730 -1.4818 -1.0465 -2.1158
  112OSM    C4S11617   5.263   3.617  10.486 -0.3061 -0.0203 -0.7636
  112OSM    H4S11618   5.267   3.518  10.440 -1.1744 -1.1905  1.5289
  112OSM    C5S11619   5.325   3.723  10.429  0.1127  0.0053  0.1202
  112OSM    H5S11620   5.347   3.816  10.483  0.0106  0.2925 -0.3248
  112OSM    C6S11621   5.389   3.722  10.294  0.5482 -0.2762 -0.0451
  112OSM    H6S11622   5.499   3.735  10.303  0.6945 -0.1627 -1.7356
  112OSM    H6T11623   5.348   3.808  10.236  0.9519 -1.3165 -1.9583
  112OSM    C7S11624   5.360   3.605  10.205  0.5567 -0.1127  0.9731
  112OSM    H7S11625   5.249   3.595  10.194  0.7602 -1.5412 -0.1343
  112OSM    H7T11626   5.393   3.509  10.250 -0.3646 -1.9697 -1.9757
  112OSM    C8S11627   5.439   3.616  10.070  0.6499 -0.3958  0.3457
  112OSM    H8S11628   5.547   3.630  10.093  0.9666 -0.6434 -0.9026
  112OSM    H8T11629   5.408   3.714  10.028 -0.5870  0.0960  2.2981
  112OSM    C9S11630   5.414   3.493   9.974 -0.2516 -0.7329  0.4823
  112OSM    H9S11631   5.320   3.503   9.915  0.7585 -0.4720 -1.1635
  112OSM    H9T11632   5.414   3.402  10.037 -2.6998 -0.4480  1.0106
  112OSM   C10S11633   5.529   3.470   9.868 -0.4919 -0.5641  0.0176
  112OSM   H10S11634   5.535   3.360   9.863  0.4226 -0.4937 -0.7906
  112OSM   H10T11635   5.625   3.509   9.908 -0.2511 -1.6149  0.4817
  112OSM   C11S11636   5.499   3.515   9.726 -0.9733 -0.1371 -0.2365
  112OSM   H11S11637   5.490   3.625   9.738  0.8186  0.0261  0.0082
  112OSM   H11T11638   5.403   3.477   9.686 -0.5961 -1.5412  0.1152
  112OSM   C12S11639   5.620   3.493   9.638 -0.1338  0.1160  0.1679
  112OSM   H12S11640   5.651   3.387   9.625  1.9023  0.8966 -1.8317
  112OSM   H12T11641   5.701   3.550   9.687 -0.5457 -0.8276  2.0521
  112OSM   C13S11642   5.606   3.540   9.489  0.2488  0.2783 -0.0775
  112OSM   H13S11643   5.707   3.548   9.445  0.1023 -1.1042 -0.7007
  112OSM   H13T11644   5.553   3.638   9.490  0.2525  0.3351  2.4686
  112OSM   C14S11645   5.517   3.450   9.403 -0.0209  0.2691  0.9241
  112OSM   H14S11646   5.430   3.505   9.361  0.0999 -1.0534 -1.2000
  112OSM   H14T11647   5.466   3.371   9.462 -0.0416 -0.3901  0.0509
  112OSM   C15S11648   5.585   3.384   9.283 -0.7274 -0.6510  0.0295
  112OSM   H15S11649   5.679   3.342   9.326  1.3064  1.2419 -2.2740
  112OSM   H15T11650   5.619   3.451   9.201  0.3942 -1.7838 -0.4637
  112OSM   C16S11651   5.498   3.282   9.207 -0.2165 -0.0580 -0.3191
  112OSM   H16S11652   5.391   3.314   9.201  0.2895  1.6485 -0.8843
  112OSM   H16T11653   5.493   3.197   9.279 -0.5164 -0.7297 -1.1196
  112OSM   C17S11654   5.547   3.250   9.071  0.6955 -0.5141  0.3440
  112OSM   H17S11655   5.626   3.172   9.079 -0.2462 -1.5801 -0.2683
  112OSM   H17T11656   5.586   3.338   9.017 -1.1190 -0.8706 -1.7421
  112OSM   C18S11657   5.429   3.191   8.994  0.8154  0.5565 -0.0651
  112OSM   H18S11658   5.355   3.266   8.960  1.1092 -0.0557 -2.2052
  112OSM   H18T11659   5.390   3.102   9.048  0.0003  0.0759 -1.4108
  112OSM   H18U11660   5.454   3.155   8.892 -1.2118 -0.2260 -0.3341
  112OSM    C1F11661   4.860   3.493  10.477 -0.4844  0.1187 -0.3242
  112OSM     OF11662   4.785   3.585  10.498 -0.0706  0.0914 -0.0244
  112OSM    C2F11663   4.825   3.363  10.410 -0.7910 -0.0339  0.0576
  112OSM    H2F11664   4.804   3.298  10.498 -2.5715  0.7801  0.2844
  112OSM    H2G11665   4.910   3.326  10.349 -0.3190  2.0921 -0.6657
  112OSM    C3F11666   4.688   3.354  10.345  0.5056  0.4458  0.0969
  112OSM    H3F11667   4.601   3.350  10.414  0.7399  0.1063  0.3798
  112OSM    H3G11668   4.680   3.260  10.286  0.7752  1.4650 -1.6327
  112OSM    C4F11669   4.660   3.466  10.233 -1.0936  0.2238 -1.0754
  112OSM    H4F11670   4.753   3.462  10.174 -0.9870 -0.7269 -0.8597
  112OSM    H4G11671   4.657   3.563  10.288 -0.0087  0.0689 -0.7247
  112OSM    C5F11672   4.540   3.438  10.145 -0.2252  0.0524 -0.1028
  112OSM    H5F11673   4.450   3.425  10.210 -0.2918  1.3167  0.0979
  112OSM    H5G11674   4.555   3.359  10.069  0.3441 -0.2370  0.3063
  112OSM    C6F11675   4.487   3.567  10.073 -0.3440  0.1590  0.4847
  112OSM    H6F11676   4.490   3.648  10.150 -0.6433  0.2202  0.4338
  112OSM    H6G11677   4.382   3.541  10.048  0.0382 -1.5833  0.5926
  112OSM    C7F11678   4.568   3.596   9.943 -0.1744  0.0658 -0.1718
  112OSM    H7F11679   4.606   3.498   9.908 -2.0937  0.1438 -2.7897
  112OSM    H7G11680   4.657   3.656   9.970  0.7422 -1.5181  0.4786
  112OSM    C8F11681   4.488   3.667   9.836  0.1109  0.3407  0.2550
  112OSM    H8F11682   4.460   3.759   9.892  2.3854  0.8017  0.7113
  112OSM    H8G11683   4.400   3.606   9.805  1.2710 -1.6515  0.7308
  112OSM    C9F11684   4.569   3.711   9.720 -0.0319  0.0867  0.0858
  112OSM    H9F11685   4.643   3.788   9.748  0.0629 -0.6628  2.0747
  112OSM   C10F11686   4.561   3.682   9.593  0.2629  0.1793 -0.0686
  112OSM   H10F11687   4.634   3.737   9.532  1.1317 -0.1976  0.6174
  112OSM   C11F11688   4.463   3.593   9.518  0.1410 -0.1974  0.4160
  112OSM   H11F11689   4.416   3.638   9.428  1.1531  0.3946  0.1697
  112OSM   H11G11690   4.381   3.559   9.585  0.5575 -1.1498  0.4523
  112OSM   C12F11691   4.540   3.471   9.448 -0.2630  0.2378  0.4549
  112OSM   H12F11692   4.568   3.397   9.526  2.4170  2.1114  1.4245
  112OSM   H12G11693   4.634   3.518   9.411  0.5330 -2.2991 -1.0308
  112OSM   C13F11694   4.472   3.410   9.327  0.8549 -0.2874 -0.2606
  112OSM   H13F11695   4.430   3.497   9.272  0.0120 -0.2523  0.4209
  112OSM   H13G11696   4.383   3.358   9.369  0.8594  1.6719  2.4110
  112OSM   C14F11697   4.554   3.320   9.241 -0.2409  0.1272 -0.2317
  112OSM   H14F11698   4.613   3.249   9.302 -0.0544 -0.0369 -0.6023
  112OSM   H14G11699   4.631   3.385   9.194 -1.7952  1.6807 -0.7411
  112OSM   C15F11700   4.486   3.244   9.127 -0.5181 -0.7205 -0.2708
  112OSM   H15F11701   4.417   3.163   9.157 -1.4073  0.3273  0.6147
  112OSM   H15G11702   4.571   3.201   9.070  0.2718 -0.5132  0.7195
  112OSM   C16F11703   4.399   3.321   9.030 -0.0611 -0.1695  0.1461
  112OSM   H16F11704   4.435   3.426   9.015 -0.1095  0.0005  1.1630
  112OSM   H16G11705   4.304   3.328   9.087 -0.8756  1.1598 -1.2770
  112OSM   C17F11706   4.383   3.248   8.892  0.7952  0.1298 -0.3240
  112OSM   H17F11707   4.487   3.245   8.851  0.9037 -0.0777 -0.0336
  112OSM   H17G11708   4.329   3.317   8.823 -2.8619 -2.4974 -0.3647
  112OSM   C18F11709   4.298   3.126   8.895 -0.2477  0.4127  0.2930
  112OSM   H18F11710   4.210   3.145   8.960 -0.1635  1.7666  0.0424
  112OSM   H18G11711   4.371   3.059   8.946  0.9826  0.1340 -1.7157
  112OSM   H18H11712   4.275   3.098   8.790  0.9528  0.4740 -0.0049
  113OSM      N11713   3.724   0.638  10.958 -0.1925  0.4485  0.4871
  113OSM    C1511714   3.790   0.501  10.941 -0.1429 -0.1094 -0.1303
  113OSM   H15A11715   3.721   0.429  10.899 -0.9188 -0.3234  1.4261
  113OSM   H15B11716   3.813   0.474  11.043 -0.7694  2.2985  0.7159
  113OSM   H15C11717   3.884   0.501  10.888  0.3116  0.4652  0.6514
  113OSM    C1411718   3.639   0.618  11.073 -0.0883  0.1873  0.2730
  113OSM   H14A11719   3.696   0.623  11.164  0.3164 -0.3992  0.0558
  113OSM   H14B11720   3.577   0.529  11.075 -1.1633  0.8967 -0.1943
  113OSM   H14C11721   3.567   0.699  11.070 -1.8436 -1.3406 -1.4438
  113OSM    C1311722   3.823   0.745  11.000 -0.6551 -0.3431  0.6667
  113OSM   H13A11723   3.863   0.734  11.100 -0.5451 -0.9779  0.5523
  113OSM   H13B11724   3.765   0.837  11.002  0.4001  0.5203 -2.4434
  113OSM   H13C11725   3.903   0.756  10.929 -0.1528 -3.7890  0.5480
  113OSM    C1211726   3.651   0.671  10.826 -0.0437  0.0296 -0.1645
  113OSM   H12A11727   3.729   0.681  10.752  1.3825 -1.7557  0.9800
  113OSM   H12B11728   3.599   0.765  10.836 -3.0966 -1.3048 -1.9128
  113OSM    C1111729   3.537   0.579  10.802 -0.3746  0.8483  0.0027
  113OSM   H11A11730   3.571   0.473  10.797  1.9616  1.5673 -1.3985
  113OSM   H11B11731   3.507   0.605  10.698  0.6494 -1.0504 -0.8150
  113OSM      P11732   3.323   0.711  10.859 -0.0691 -0.0645  0.4535
  113OSM    O1311733   3.225   0.705  10.971 -0.4092 -0.4388  0.0625
  113OSM    O1411734   3.394   0.840  10.837  0.1245  0.3005 -0.4310
  113OSM    O1111735   3.249   0.666  10.732  0.5712 -0.4175 -0.3444
  113OSM    O1211736   3.427   0.594  10.888  0.4968 -0.4663 -0.4386
  113OSM    C1S11737   3.275   0.722  10.604  0.0086  0.2410  0.2539
  113OSM    H1S11738   3.371   0.697  10.554  0.2629  3.2317 -0.9984
  113OSM    H1T11739   3.268   0.832  10.617 -2.7674  0.1624  0.0631
  113OSM     NF11740   3.191   0.737  10.373  0.1989  0.0364  0.0224
  113OSM    HNF11741   3.126   0.806  10.342 -0.0034 -0.8702 -1.7513
  113OSM    C2S11742   3.171   0.678  10.498  0.7744 -0.6546 -0.2301
  113OSM    H2S11743   3.174   0.569  10.478  2.0791 -0.5324 -0.8121
  113OSM    C3S11744   3.028   0.711  10.557  0.1351 -0.4250  0.7708
  113OSM    H3S11745   3.032   0.821  10.571  1.2698  0.1089 -2.6417
  113OSM     O311746   3.005   0.636  10.673 -0.1030  0.0116  0.5596
  113OSM    HO311747   3.091   0.618  10.712  1.3398 -0.6863 -2.5718
  113OSM    C4S11748   2.913   0.689  10.455 -0.4322 -0.8622  0.1284
  113OSM    H4S11749   2.886   0.584  10.436 -2.4777 -0.4020  0.2158
  113OSM    C5S11750   2.838   0.790  10.397  0.2078 -0.7370 -0.8879
  113OSM    H5S11751   2.853   0.889  10.441  0.1717 -1.0526 -0.1511
  113OSM    C6S11752   2.729   0.777  10.295 -0.0705 -0.1371  0.4203
  113OSM    H6S11753   2.631   0.767  10.347 -0.8984  1.8405 -0.6274
  113OSM    H6T11754   2.743   0.692  10.225 -1.1949 -0.7766  0.9427
  113OSM    C7S11755   2.731   0.901  10.201 -0.0426  0.4426 -0.7119
  113OSM    H7S11756   2.701   0.991  10.260 -0.5424  0.2908 -0.7283
  113OSM    H7T11757   2.664   0.881  10.114  0.5536  1.5367 -1.4376
  113OSM    C8S11758   2.870   0.904  10.137 -0.0313  0.0329 -0.6690
  113OSM    H8S11759   2.912   0.802  10.121  1.1918  0.5829 -1.1384
  113OSM    H8T11760   2.932   0.953  10.215 -0.0495 -1.8614  0.6163
  113OSM    C9S11761   2.879   0.990  10.021 -0.0881  0.6588 -0.4507
  113OSM    H9S11762   2.971   1.052  10.019 -0.6807  1.7975  2.3795
  113OSM    H9T11763   2.807   1.074  10.029  2.3448  2.6770  1.5573
  113OSM   C10S11764   2.855   0.907   9.892 -0.3597 -0.1923 -0.5532
  113OSM   H10S11765   2.749   0.932   9.866  0.4988  4.4497 -0.5644
  113OSM   H10T11766   2.890   0.802   9.900  0.6806  0.1534 -0.4933
  113OSM   C11S11767   2.927   0.963   9.769 -0.1799 -0.8208  0.9650
  113OSM   H11S11768   3.035   0.939   9.782  1.0519  1.6540 -3.0111
  113OSM   H11T11769   2.908   1.073   9.767  1.1045 -0.5922 -1.0672
  113OSM   C12S11770   2.869   0.920   9.636  0.1641 -0.0049 -0.2392
  113OSM   H12S11771   2.761   0.939   9.650 -0.0312 -2.1767  1.8173
  113OSM   H12T11772   2.886   0.810   9.635 -0.7979 -0.1742  0.7102
  113OSM   C13S11773   2.926   0.996   9.513  0.0062 -0.8386 -0.5191
  113OSM   H13S11774   3.035   0.997   9.496  0.1704 -0.8299  0.4795
  113OSM   H13T11775   2.899   1.102   9.530 -2.3884 -1.6925  1.8603
  113OSM   C14S11776   2.838   0.964   9.394 -0.2717 -0.4182 -0.2505
  113OSM   H14S11777   2.745   1.025   9.399 -0.3956 -0.6158 -0.1292
  113OSM   H14T11778   2.810   0.857   9.395  0.3104 -0.7768 -4.2175
  113OSM   C15S11779   2.915   1.008   9.266  0.0015  0.1885  0.4860
  113OSM   H15S11780   3.019   0.968   9.269  0.1596  0.5953  2.9905
  113OSM   H15T11781   2.934   1.117   9.276 -0.4440  0.2906  0.2306
  113OSM   C16S11782   2.835   0.994   9.138  0.8117 -0.2096  1.0009
  113OSM   H16S11783   2.739   1.050   9.143  0.8711  0.1440 -0.8063
  113OSM   H16T11784   2.820   0.887   9.114  1.1749 -0.4137  1.6651
  113OSM   C17S11785   2.909   1.057   9.021 -0.5588  0.5982 -0.4429
  113OSM   H17S11786   3.014   1.022   9.020 -0.9527 -0.6544 -1.9940
  113OSM   H17T11787   2.905   1.168   9.034 -3.7138  0.5953 -0.4902
  113OSM   C18S11788   2.858   1.024   8.880  0.0604 -0.6216 -0.5469
  113OSM   H18S11789   2.911   1.085   8.804 -0.8511  1.1960  0.2099
  113OSM   H18T11790   2.749   1.044   8.880  0.0834 -0.4846  0.2714
  113OSM   H18U11791   2.883   0.917   8.862  1.8415 -0.1594 -0.9779
  113OSM    C1F11792   3.290   0.718  10.290 -0.1143  0.4003 -0.0067
  113OSM     OF11793   3.378   0.636  10.319  0.7616 -0.0007 -0.4621
  113OSM    C2F11794   3.296   0.806  10.170 -0.5924  0.1650 -0.3204
  113OSM    H2F11795   3.380   0.876  10.190 -1.0568  0.3093  1.3029
  113OSM    H2G11796   3.198   0.859  10.166 -0.4690  0.4917  0.7185
  113OSM    C3F11797   3.334   0.729  10.042  0.6960 -0.0223  0.3985
  113OSM    H3F11798   3.236   0.685  10.013  1.4363 -1.9164  0.6494
  113OSM    H3G11799   3.404   0.645  10.060  0.5917 -0.2625 -0.2887
  113OSM    C4F11800   3.377   0.816   9.926  0.0408  0.5805 -0.5586
  113OSM    H4F11801   3.474   0.865   9.951 -1.3163  2.5296  1.2895
  113OSM    H4G11802   3.313   0.906   9.941  0.8042  0.6431  3.1800
  113OSM    C5F11803   3.375   0.746   9.791 -0.1139  0.6514  0.0874
  113OSM    H5F11804   3.282   0.685   9.788  0.5288 -0.3055 -0.9648
  113OSM    H5G11805   3.460   0.675   9.785 -1.0201 -0.4927  0.4262
  113OSM    C6F11806   3.367   0.836   9.674  0.0255 -0.0988 -0.2758
  113OSM    H6F11807   3.440   0.920   9.667 -0.9661  0.8473  0.4060
  113OSM    H6G11808   3.275   0.899   9.676  2.5783  4.0568  1.6447
  113OSM    C7F11809   3.370   0.758   9.548 -0.1996  0.1405 -0.8031
  113OSM    H7F11810   3.299   0.674   9.562  1.1538 -1.0975 -1.1505
  113OSM    H7G11811   3.467   0.709   9.522  0.7029 -0.4900  3.0972
  113OSM    C8F11812   3.302   0.816   9.417 -0.5144  0.3045 -0.2762
  113OSM    H8F11813   3.202   0.859   9.439 -0.0513  1.3723 -0.1948
  113OSM    H8G11814   3.282   0.727   9.354 -2.5357  0.4046  0.1528
  113OSM    C9F11815   3.407   0.911   9.366 -0.0429  1.0685 -0.0431
  113OSM    H9F11816   3.453   0.976   9.442  0.0882  1.2632 -0.2835
  113OSM   C10F11817   3.434   0.926   9.239 -0.0111 -0.3159  0.4823
  113OSM   H10F11818   3.494   1.013   9.208 -0.4524 -0.5144 -1.0186
  113OSM   C11F11819   3.375   0.842   9.126 -1.0031 -0.2584 -0.2923
  113OSM   H11F11820   3.267   0.823   9.144 -1.1900  0.8724 -0.1579
  113OSM   H11G11821   3.431   0.746   9.120  1.7388  1.2259 -0.1617
  113OSM   C12F11822   3.383   0.933   9.007 -0.0895 -0.3660 -0.1062
  113OSM   H12F11823   3.482   0.973   8.976 -0.6879  0.6918 -0.7182
  113OSM   H12G11824   3.314   1.015   9.035 -1.4120 -0.5941 -2.4134
  113OSM   C13F11825   3.310   0.865   8.895 -0.7197 -0.6324  0.0763
  113OSM   H13F11826   3.226   0.808   8.941  0.3876 -0.4481  2.4787
  113OSM   H13G11827   3.364   0.781   8.847 -1.2257 -1.8014  1.4745
  113OSM   C14F11828   3.253   0.962   8.788  0.2659 -0.1716 -0.8815
  113OSM   H14F11829   3.334   1.012   8.731  0.0192 -1.5056 -2.4668
  113OSM   H14G11830   3.180   1.033   8.833 -0.5198 -1.2525 -0.4223
  113OSM   C15F11831   3.175   0.888   8.677 -0.1171  0.1322  0.3770
  113OSM   H15F11832   3.082   0.840   8.714  0.7124 -1.5669  0.3210
  113OSM   H15G11833   3.246   0.811   8.639  0.5440  0.8907  0.0467
  113OSM   C16F11834   3.132   0.973   8.562 -0.5487  0.1008 -1.0778
  113OSM   H16F11835   3.213   1.027   8.508  0.3870 -0.5537 -0.3680
  113OSM   H16G11836   3.074   1.060   8.598 -0.2968  0.0308 -0.4872
  113OSM   C17F11837   3.042   0.898   8.457 -0.4276 -0.0934  0.1174
  113OSM   H17F11838   3.078   0.794   8.442 -0.6331 -0.1026 -0.3486
  113OSM   H17G11839   3.045   0.956   8.362 -0.8424  0.0680  0.1976
  113OSM   C18F11840   2.888   0.896   8.494  0.4042 -0.0605  0.2119
  113OSM   H18F11841   2.830   0.867   8.403  0.4488  1.9027 -0.4884
  113OSM   H18G11842   2.857   0.998   8.526 -0.4377  0.1114 -1.0596
  113OSM   H18H11843   2.866   0.828   8.579 -1.1907  0.9454  0.6460
  114OSM      N11844   4.033   4.772  10.826  0.4952 -0.1757  0.0996
  114OSM    C1511845   3.907   4.720  10.774 -0.4035  0.5269  0.2894
  114OSM   H15A11846   3.894   4.739  10.668  0.2938 -1.0291 -0.0955
  114OSM   H15B11847   3.830   4.768  10.833 -1.2492 -0.0142 -0.3663
  114OSM   H15C11848   3.900   4.613  10.779  0.2996  0.4770  0.3715
  114OSM    C1411849   4.042   4.755  10.973  0.5381  0.1709  0.1244
  114OSM   H14A11850   4.103   4.833  11.018 -0.9573  0.9007  0.9684
  114OSM   H14B11851   4.071   4.656  11.003  1.3471  0.2929 -0.2325
  114OSM   H14C11852   3.943   4.778  11.010 -0.5583 -1.4362 -1.6568
  114OSM    C1311853   4.147   4.706  10.758 -0.2422  0.6861 -0.0852
  114OSM   H13A11854   4.148   4.719  10.650 -1.3898 -1.4179 -0.4096
  114OSM   H13B11855   4.147   4.601  10.781 -0.6327  1.2631  2.8555
  114OSM   H13C11856   4.232   4.744  10.813 -1.5316  1.0781  1.7083
  114OSM    C1211857   4.042   4.924  10.802 -0.7044  0.9408  0.1906
  114OSM   H12A11858   3.962   4.974  10.854  0.7307  2.4118  1.0850
  114OSM   H12B11859   4.027   4.948  10.698 -1.3070  2.3791  0.5903
  114OSM    C1111860   4.171   4.994  10.844  0.1999  0.0493 -0.0272
  114OSM   H11A11861   4.195   4.978  10.952 -0.3812  0.5271  0.1749
  114OSM   H11B11862   4.156   5.104  10.844  2.3752  0.4468  2.3780
  114OSM      P11863   4.339   5.059  10.668 -0.0039  0.3716  0.1796
  114OSM    O1311864   4.224   5.104  10.582  0.0702 -0.0139  0.2878
  114OSM    O1411865   4.411   5.162  10.752 -0.4306  0.5112 -0.0143
  114OSM    O1111866   4.451   4.996  10.577 -0.2151  0.3374  0.1328
  114OSM    O1211867   4.282   4.948  10.766 -0.4927 -0.4559 -0.2100
  114OSM    C1S11868   4.436   4.874  10.503 -0.3332 -0.0932 -0.0711
  114OSM    H1S11869   4.335   4.869  10.457 -1.3780  1.8258  1.8669
  114OSM    H1T11870   4.451   4.789  10.574  1.1673 -0.4413 -0.7471
  114OSM     NF11871   4.544   4.711  10.329  0.7704 -0.0971  0.1590
  114OSM    HNF11872   4.618   4.654  10.365  1.3714 -0.6142 -1.7523
  114OSM    C2S11873   4.537   4.851  10.375  0.4975  0.3080 -0.0041
  114OSM    H2S11874   4.498   4.902  10.284 -0.2949 -0.1159  0.0859
  114OSM    C3S11875   4.677   4.907  10.407 -0.3779  0.2256  0.3335
  114OSM    H3S11876   4.714   4.836  10.484 -0.1162 -0.1356 -0.1188
  114OSM     O311877   4.683   5.041  10.454 -0.0055 -0.0098  0.5198
  114OSM    HO311878   4.599   5.045  10.501  0.8570  1.8916  2.0235
  114OSM    C4S11879   4.783   4.885  10.296  0.3594  0.5585  0.3253
  114OSM    H4S11880   4.847   4.796  10.302  0.1839  0.1390 -2.5859
  114OSM    C5S11881   4.817   4.968  10.201 -0.5294 -0.0368  0.5138
  114OSM    H5S11882   4.770   5.065  10.180 -2.9697 -1.4323 -0.9567
  114OSM    C6S11883   4.927   4.931  10.107  0.5188  0.0180  0.6889
  114OSM    H6S11884   4.962   4.826  10.102  0.4627  0.0406 -1.7733
  114OSM    H6T11885   5.020   4.987  10.134  0.4141  0.7390 -0.3678
  114OSM    C7S11886   4.891   4.966   9.962  0.0457 -0.0001  0.6544
  114OSM    H7S11887   4.886   5.077   9.965 -0.0472  0.0360 -0.5380
  114OSM    H7T11888   4.794   4.919   9.935  1.4299 -1.4303 -2.2171
  114OSM    C8S11889   4.993   4.936   9.851  0.3709 -0.3854 -0.0667
  114OSM    H8S11890   5.032   4.832   9.844  1.7459  0.2331 -3.3444
  114OSM    H8T11891   5.074   5.012   9.850 -1.4806  1.6640 -0.4754
  114OSM    C9S11892   4.924   4.949   9.716 -0.6162  0.6628 -0.5676
  114OSM    H9S11893   4.878   5.049   9.701  1.4684  1.7368 -0.1672
  114OSM    H9T11894   4.839   4.879   9.700 -0.1386 -0.0289 -0.1829
  114OSM   C10S11895   5.026   4.925   9.606 -0.3290  0.2765  0.2291
  114OSM   H10S11896   5.053   4.817   9.609 -1.5340 -0.1801 -2.3737
  114OSM   H10T11897   5.112   4.995   9.604 -0.3473  0.2826 -1.0027
  114OSM   C11S11898   4.956   4.961   9.474  0.0488 -0.6439  0.1259
  114OSM   H11S11899   4.961   5.071   9.456  0.5695 -0.6773  0.0580
  114OSM   H11T11900   4.855   4.916   9.476  0.2933 -1.3777 -2.1381
  114OSM   C12S11901   5.031   4.897   9.348 -0.0398  0.3515 -0.2405
  114OSM   H12S11902   5.064   4.796   9.379  0.8161  0.0794 -1.9246
  114OSM   H12T11903   5.127   4.952   9.342 -0.4124  1.8264  3.9527
  114OSM   C13S11904   4.960   4.902   9.210  0.9724 -0.4300 -0.1328
  114OSM   H13S11905   4.957   5.005   9.170 -2.6527 -0.5960 -0.6235
  114OSM   H13T11906   4.862   4.854   9.231  0.8749 -1.3279 -2.4317
  114OSM   C14S11907   5.023   4.818   9.102 -0.0521  0.0489  0.6676
  114OSM   H14S11908   5.050   4.717   9.140  0.6162  0.4623  1.3093
  114OSM   H14T11909   5.125   4.856   9.082 -0.2352  0.7581  1.0780
  114OSM   C15S11910   4.931   4.790   8.982 -0.2901  0.4693  0.4406
  114OSM   H15S11911   4.825   4.786   9.015 -0.3424  0.8653  0.3222
  114OSM   H15T11912   4.957   4.693   8.933  0.0963  0.2284  1.1090
  114OSM   C16S11913   4.956   4.886   8.866  0.0005  0.0923  0.0690
  114OSM   H16S11914   4.999   4.976   8.915  2.1000 -1.1595  0.6666
  114OSM   H16T11915   4.869   4.920   8.806 -1.4244 -0.9718  1.4438
  114OSM   C17S11916   5.065   4.833   8.773  0.7413  0.2082 -0.2575
  114OSM   H17S11917   5.029   4.731   8.749  0.5001 -0.1321  1.4457
  114OSM   H17T11918   5.158   4.825   8.834  1.0126  0.9443 -0.5646
  114OSM   C18S11919   5.085   4.924   8.653 -0.4635 -0.3715 -0.0729
  114OSM   H18S11920   5.115   5.023   8.693 -0.9773 -0.4016  0.4047
  114OSM   H18T11921   4.985   4.930   8.604 -0.1808  0.2649 -0.5779
  114OSM   H18U11922   5.167   4.896   8.584 -0.1414 -0.1444  0.2117
  114OSM    C1F11923   4.442   4.655  10.262 -0.3945  0.3517  0.5566
  114OSM     OF11924   4.326   4.696  10.261 -0.0982  0.3866 -0.3555
  114OSM    C2F11925   4.499   4.541  10.175  0.0717  0.0831 -0.3966
  114OSM    H2F11926   4.421   4.511  10.102 -1.2489  2.6189 -0.1510
  114OSM    H2G11927   4.528   4.451  10.234 -0.7148  0.4037  0.5073
  114OSM    C3F11928   4.637   4.579  10.111 -0.2033 -0.0382  0.0168
  114OSM    H3F11929   4.672   4.486  10.061  1.8957  1.3614 -1.2502
  114OSM    H3G11930   4.718   4.616  10.177 -0.7993  2.1898 -0.4056
  114OSM    C4F11931   4.627   4.692  10.000 -0.6215  1.3511 -0.2689
  114OSM    H4F11932   4.727   4.712   9.957  0.2324  2.5695  2.0958
  114OSM    H4G11933   4.604   4.797  10.030  0.2331  2.2082 -2.3893
  114OSM    C5F11934   4.529   4.658   9.888 -0.1733  0.2507  0.2823
  114OSM    H5F11935   4.447   4.733   9.892  0.8409  1.6522 -2.3593
  114OSM    H5G11936   4.491   4.554   9.896 -0.8649  0.6489  3.7923
  114OSM    C6F11937   4.599   4.678   9.756 -0.3548  0.2894  0.7883
  114OSM    H6F11938   4.685   4.609   9.748 -2.6566 -3.0987  2.7642
  114OSM    H6G11939   4.610   4.787   9.739 -1.4803  0.1648 -0.9999
  114OSM    C7F11940   4.508   4.639   9.632 -0.0278 -0.6397  0.0356
  114OSM    H7F11941   4.429   4.715   9.619  0.7753  0.1510 -0.3671
  114OSM    H7G11942   4.466   4.539   9.656 -1.6201  0.1402  0.6316
  114OSM    C8F11943   4.584   4.629   9.500  0.3874  0.3423  0.3668
  114OSM    H8F11944   4.530   4.556   9.437  1.0638  2.2452 -2.6431
  114OSM    H8G11945   4.679   4.573   9.512 -0.3965 -0.8299  1.3379
  114OSM    C9F11946   4.605   4.758   9.422 -0.1988 -0.6563 -0.0304
  114OSM    H9F11947   4.653   4.840   9.476  0.3668 -0.1425 -1.2672
  114OSM   C10F11948   4.581   4.789   9.292  0.2068  0.6894  0.0058
  114OSM   H10F11949   4.611   4.887   9.252 -2.7466  2.2635  1.3573
  114OSM   C11F11950   4.527   4.684   9.200 -0.0125 -0.3475 -0.8680
  114OSM   H11F11951   4.482   4.595   9.250 -0.0348 -0.2721 -0.7531
  114OSM   H11G11952   4.615   4.645   9.145 -0.6084 -0.5943 -1.6680
  114OSM   C12F11953   4.431   4.731   9.089  0.0251  0.3324  0.2815
  114OSM   H12F11954   4.345   4.789   9.129 -0.0328  1.9929 -2.0470
  114OSM   H12G11955   4.407   4.636   9.036  0.6324 -0.9532  2.2241
  114OSM   C13F11956   4.498   4.825   8.994  0.1552 -0.3819  0.6751
  114OSM   H13F11957   4.597   4.787   8.959 -0.2395 -0.7905 -0.0143
  114OSM   H13G11958   4.520   4.924   9.040  0.3334  0.6986 -1.5580
  114OSM   C14F11959   4.417   4.850   8.867 -0.1370 -1.1140  0.7883
  114OSM   H14F11960   4.314   4.887   8.890 -0.2491 -1.1595  0.3713
  114OSM   H14G11961   4.396   4.756   8.811 -2.7438  1.0279 -2.2261
  114OSM   C15F11962   4.492   4.937   8.768 -0.0856  0.0003  0.2265
  114OSM   H15F11963   4.591   4.892   8.747  0.9630  2.0970  0.4408
  114OSM   H15G11964   4.520   5.040   8.799  0.9224  0.1230 -1.0373
  114OSM   C16F11965   4.422   4.957   8.627 -0.3529 -0.3037 -0.2694
  114OSM   H16F11966   4.330   5.013   8.654 -0.9643 -1.4452  0.0514
  114OSM   H16G11967   4.389   4.864   8.575 -1.1158  0.3343 -0.9555
  114OSM   C17F11968   4.506   5.032   8.516 -0.0498 -0.0772  0.1428
  114OSM   H17F11969   4.504   5.137   8.552  1.1043  0.3287 -0.9124
  114OSM   H17G11970   4.450   5.039   8.420  1.0221 -0.8604 -0.5535
  114OSM   C18F11971   4.651   4.992   8.487  0.3135  0.3519 -0.0942
  114OSM   H18F11972   4.697   5.057   8.410  1.9768  0.3956  0.8693
  114OSM   H18G11973   4.640   4.892   8.440 -0.1393 -0.4534  1.6611
  114OSM   H18H11974   4.719   4.995   8.575  0.1117 -2.3273  0.2406
  115OSM      N11975   1.929   4.294  10.936  0.0413  0.4339 -0.5984
  115OSM    C1511976   1.785   4.273  10.963 -0.2134 -0.6216  0.4508
  115OSM   H15A11977   1.721   4.303  10.881  0.9575 -0.0227 -0.2713
  115OSM   H15B11978   1.749   4.331  11.046  0.3390  0.2689  0.0832
  115OSM   H15C11979   1.759   4.172  10.991 -2.2946  0.6161  3.4992
  115OSM    C1411980   1.945   4.427  10.870 -0.7099  0.0289 -1.1194
  115OSM   H14A11981   1.880   4.435  10.784 -2.9086  0.4528  0.4968
  115OSM   H14B11982   2.042   4.449  10.828 -0.7639  2.4642 -0.0972
  115OSM   H14C11983   1.912   4.503  10.939 -0.8765 -0.7900 -0.2857
  115OSM    C1311984   2.005   4.293  11.066  0.0427  0.2869 -0.6771
  115OSM   H13A11985   1.978   4.210  11.128 -4.0615 -0.8629 -3.6067
  115OSM   H13B11986   1.978   4.379  11.125  1.5019  1.4122 -1.5785
  115OSM   H13C11987   2.112   4.301  11.050  0.1227 -1.4366 -1.2167
  115OSM    C1211988   1.980   4.181  10.853  0.0438 -0.1665 -0.2733
  115OSM   H12A11989   1.956   4.081  10.887  1.8713 -0.5049  0.1019
  115OSM   H12B11990   2.088   4.180  10.856  0.0749  1.4691 -0.0672
  115OSM    C1111991   1.944   4.179  10.706 -0.1166 -0.0387 -0.1496
  115OSM   H11A11992   1.839   4.213  10.700  0.3200  1.5299  0.3789
  115OSM   H11B11993   1.946   4.075  10.668 -0.9533 -0.7949  1.7423
  115OSM      P11994   2.182   4.262  10.617 -0.3188 -0.5555  0.1007
  115OSM    O1311995   2.238   4.396  10.619  0.4754 -0.2962  0.0164
  115OSM    O1411996   2.231   4.165  10.715  0.1895 -0.0182  0.7123
  115OSM    O1111997   2.197   4.203  10.473  0.5437 -0.0014  0.4158
  115OSM    O1211998   2.026   4.271  10.637  0.0268  0.3956  1.0581
  115OSM    C1S11999   2.128   4.268  10.364  0.2103 -0.1079  0.2849
  115OSM    H1S12000   2.166   4.371  10.353  2.2481 -0.9853 -1.6530
  115OSM    H1T12001   2.018   4.261  10.382  0.0770 -2.2044 -1.0085
  115OSM     NF12002   2.172   4.292  10.115  0.3376  0.3375 -0.6675
  115OSM    HNF12003   2.090   4.290  10.059  1.6507  2.5164 -2.8827
  115OSM    C2S12004   2.174   4.199  10.234 -0.2219  0.4748  0.4972
  115OSM    H2S12005   2.278   4.166  10.258 -1.4053 -2.2096  2.3812
  115OSM    C3S12006   2.106   4.062  10.210 -0.8612 -0.2279  0.0847
  115OSM    H3S12007   1.997   4.077  10.191 -0.4735 -0.9060 -3.4000
  115OSM     O312008   2.104   3.980  10.330  0.2319  0.4036 -0.1879
  115OSM    HO312009   2.125   4.043  10.399  0.1473  1.1091 -0.7951
  115OSM    C4S12010   2.161   3.986  10.090 -0.0712 -0.3310  0.7476
  115OSM    H4S12011   2.111   4.014   9.995  1.0979  0.1040  0.2451
  115OSM    C5S12012   2.265   3.900  10.087 -0.1309  0.5490  0.7513
  115OSM    H5S12013   2.333   3.879  10.171 -0.9817 -2.6275  0.7870
  115OSM    C6S12014   2.318   3.822   9.964  0.6348  0.4706  0.0686
  115OSM    H6S12015   2.304   3.713   9.982  1.7217  0.3060  0.0157
  115OSM    H6T12016   2.429   3.831   9.956  0.9536 -3.3342 -2.5265
  115OSM    C7S12017   2.255   3.882   9.832  0.0325  0.4559  0.6559
  115OSM    H7S12018   2.256   3.993   9.823 -1.5598  0.3694 -0.9193
  115OSM    H7T12019   2.149   3.850   9.832  0.2506 -0.3002  1.2628
  115OSM    C8S12020   2.321   3.821   9.701  0.6209  0.0648 -0.3143
  115OSM    H8S12021   2.295   3.714   9.707 -0.5066  0.3232 -0.3594
  115OSM    H8T12022   2.431   3.831   9.709  0.5842  2.5026 -1.7457
  115OSM    C9S12023   2.275   3.897   9.582  0.0617  0.1741  0.8409
  115OSM    H9S12024   2.307   4.003   9.590  0.9161 -0.0855  0.9784
  115OSM    H9T12025   2.165   3.890   9.569  0.1511 -0.2490  0.2197
  115OSM   C10S12026   2.329   3.846   9.447 -0.0013 -0.0386 -0.5811
  115OSM   H10S12027   2.305   3.738   9.434  2.0144 -0.6189  0.1653
  115OSM   H10T12028   2.439   3.858   9.439 -0.2149  2.0797 -1.0415
  115OSM   C11S12029   2.253   3.917   9.341 -0.7247 -0.2969  0.4473
  115OSM   H11S12030   2.272   4.026   9.352  0.2015 -0.3261 -0.6791
  115OSM   H11T12031   2.143   3.911   9.358 -0.4204  0.9144  3.5049
  115OSM   C12S12032   2.310   3.878   9.201  0.5791 -0.4730  0.5755
  115OSM   H12S12033   2.309   3.767   9.191  1.6737 -0.3755 -0.9683
  115OSM   H12T12034   2.418   3.904   9.204  0.0330  2.0937  0.0527
  115OSM   C13S12035   2.228   3.933   9.077  0.4108  0.5361  0.0479
  115OSM   H13S12036   2.178   4.032   9.087  0.5870  0.7352 -0.9188
  115OSM   H13T12037   2.140   3.867   9.062 -0.6107  1.5945  1.1837
  115OSM   C14S12038   2.315   3.924   8.944  0.6910 -0.0266 -0.6826
  115OSM   H14S12039   2.352   3.819   8.940 -2.5002 -1.4383  2.0898
  115OSM   H14T12040   2.400   3.997   8.946  2.2617 -1.7850 -0.4082
  115OSM   C15S12041   2.226   3.942   8.820  0.6822 -0.7146  0.2433
  115OSM   H15S12042   2.167   4.034   8.839  0.1646 -0.8588 -0.6117
  115OSM   H15T12043   2.169   3.847   8.812  2.2286 -1.6235 -0.4818
  115OSM   C16S12044   2.313   3.964   8.700  1.0259 -0.3084 -0.8337
  115OSM   H16S12045   2.387   3.882   8.704  0.6319 -0.6375  2.7444
  115OSM   H16T12046   2.363   4.062   8.716  0.3097 -0.0490 -0.0724
  115OSM   C17S12047   2.234   3.949   8.571  0.5587  0.1551  0.4502
  115OSM   H17S12048   2.307   3.984   8.496 -0.5986  0.8918 -0.3647
  115OSM   H17T12049   2.163   4.033   8.555  1.5191  0.7654 -0.7072
  115OSM   C18S12050   2.184   3.805   8.539  0.2532 -0.7679 -0.0467
  115OSM   H18S12051   2.080   3.782   8.571  0.4277 -2.2298 -0.4490
  115OSM   H18T12052   2.258   3.740   8.590  0.1450 -0.8560 -0.0013
  115OSM   H18U12053   2.192   3.790   8.430  0.4511  0.0828 -0.1562
  115OSM    C1F12054   2.262   4.385  10.098 -0.0819 -0.2290  0.2611
  115OSM     OF12055   2.363   4.403  10.176 -0.8584 -0.5670 -0.6032
  115OSM    C2F12056   2.252   4.468   9.978  0.3395 -0.2048  1.0735
  115OSM    H2F12057   2.182   4.551  10.003 -0.1073 -0.8846  2.1359
  115OSM    H2G12058   2.206   4.415   9.892  1.2659  0.0493  0.3996
  115OSM    C3F12059   2.389   4.530   9.931  0.3098  0.5955  0.1585
  115OSM    H3F12060   2.455   4.443   9.912  1.0310  0.7442  1.7690
  115OSM    H3G12061   2.445   4.575  10.016  1.0669  0.1417 -0.0903
  115OSM    C4F12062   2.373   4.615   9.806  0.7156 -0.1951 -0.1394
  115OSM    H4F12063   2.329   4.714   9.830 -0.1968 -0.4036 -0.9108
  115OSM    H4G12064   2.323   4.577   9.715 -1.8168  1.1902  0.5540
  115OSM    C5F12065   2.520   4.649   9.763  0.9074  0.2322  0.5690
  115OSM    H5F12066   2.585   4.559   9.769  1.1505  0.3954  0.3836
  115OSM    H5G12067   2.563   4.714   9.842  1.3765  3.5626 -2.2117
  115OSM    C6F12068   2.526   4.704   9.622 -0.3441  0.3563 -0.1415
  115OSM    H6F12069   2.617   4.768   9.621 -0.1930  0.1764  1.0041
  115OSM    H6G12070   2.443   4.775   9.604  0.0014  0.1953 -2.8598
  115OSM    C7F12071   2.554   4.597   9.513 -0.3655  0.7033  0.1382
  115OSM    H7F12072   2.473   4.521   9.512 -0.8472  1.2061 -1.3046
  115OSM    H7G12073   2.654   4.550   9.528 -1.6556 -2.1723  0.3406
  115OSM    C8F12074   2.552   4.665   9.379 -0.5302  0.2362 -0.0970
  115OSM    H8F12075   2.650   4.716   9.365  1.0459 -2.1915  1.3500
  115OSM    H8G12076   2.475   4.745   9.382 -1.5477 -0.7299  0.5703
  115OSM    C9F12077   2.510   4.574   9.265 -0.3159 -0.1581  0.4946
  115OSM    H9F12078   2.415   4.529   9.297 -0.3204  0.6052  1.6246
  115OSM   C10F12079   2.569   4.569   9.142  0.4274  0.5045 -0.2171
  115OSM   H10F12080   2.518   4.505   9.068  0.0266  0.6559 -0.0695
  115OSM   C11F12081   2.677   4.662   9.098 -0.8336  0.8119  0.5925
  115OSM   H11F12082   2.756   4.646   9.175 -0.4407  1.9180  0.4305
  115OSM   H11G12083   2.659   4.768   9.126  0.6822  0.9352  1.1906
  115OSM   C12F12084   2.728   4.642   8.953  0.2403 -0.7508 -0.1823
  115OSM   H12F12085   2.756   4.534   8.944 -1.2041 -1.1098 -0.6087
  115OSM   H12G12086   2.824   4.697   8.946 -0.7832  1.1981  0.5265
  115OSM   C13F12087   2.619   4.692   8.854  0.1600 -0.5730  0.0673
  115OSM   H13F12088   2.604   4.801   8.866  0.2748 -0.6795  1.3370
  115OSM   H13G12089   2.526   4.633   8.868  0.4793 -1.2163 -0.4223
  115OSM   C14F12090   2.684   4.671   8.714 -0.5407  0.1457  0.8951
  115OSM   H14F12091   2.730   4.569   8.710 -0.3224  0.2736 -0.5121
  115OSM   H14G12092   2.764   4.747   8.708  1.5817 -2.0469 -1.1449
  115OSM   C15F12093   2.589   4.674   8.590 -0.3385  0.0969 -0.2397
  115OSM   H15F12094   2.548   4.777   8.584  1.4691  0.8819  0.2116
  115OSM   H15G12095   2.510   4.599   8.613 -0.9193  0.9976  0.7870
  115OSM   C16F12096   2.666   4.625   8.463 -0.1518  0.0852  0.4964
  115OSM   H16F12097   2.578   4.608   8.398  0.1247  0.0165  0.1382
  115OSM   H16G12098   2.730   4.535   8.474  0.0869  0.0232 -1.0846
  115OSM   C17F12099   2.758   4.737   8.407 -0.6248  0.9620  0.3461
  115OSM   H17F12100   2.782   4.806   8.491 -1.8179  1.6203  0.1667
  115OSM   H17G12101   2.711   4.810   8.337  0.0075  0.3942 -0.7014
  115OSM   C18F12102   2.890   4.679   8.346 -0.2189 -0.1827  0.1396
  115OSM   H18F12103   2.969   4.755   8.331  1.1465 -1.2244  1.7135
  115OSM   H18G12104   2.883   4.629   8.247  1.5380  1.6902 -1.0212
  115OSM   H18H12105   2.942   4.611   8.416  0.6321  0.7538  0.4380
  116OSM      N12106   5.145   6.688  11.016 -0.2790  0.4227 -0.0312
  116OSM    C1512107   5.186   6.581  10.923 -0.2965 -0.8956 -0.0754
  116OSM   H15A12108   5.185   6.480  10.960 -0.9361 -1.1188 -0.6907
  116OSM   H15B12109   5.287   6.601  10.890 -0.8054 -0.1848 -1.2518
  116OSM   H15C12110   5.124   6.585  10.835  1.4390 -2.2295 -1.4472
  116OSM    C1412111   4.997   6.684  11.028 -0.1733 -0.5836 -0.8698
  116OSM   H14A12112   4.957   6.726  10.937 -2.1772 -0.3410  0.0705
  116OSM   H14B12113   4.964   6.760  11.098  0.7353 -1.3530  0.4321
  116OSM   H14C12114   4.958   6.592  11.068 -1.1374  0.3978  0.5390
  116OSM    C1312115   5.208   6.656  11.148 -0.4922 -0.3204 -0.5208
  116OSM   H13A12116   5.311   6.624  11.134 -0.4061 -0.6952  0.8862
  116OSM   H13B12117   5.149   6.585  11.203 -2.5399  1.9816  0.4232
  116OSM   H13C12118   5.208   6.748  11.204 -1.5249 -0.7956  0.2848
  116OSM    C1212119   5.186   6.820  10.959  0.0928  0.0189 -0.0856
  116OSM   H12A12120   5.142   6.844  10.864  0.2622 -0.2436 -0.2310
  116OSM   H12B12121   5.292   6.832  10.947  0.0087 -0.6186 -1.6138
  116OSM    C1112122   5.139   6.937  11.059  0.2024 -0.0865  0.3544
  116OSM   H11A12123   5.197   7.027  11.029 -2.6513  1.1751 -1.8528
  116OSM   H11B12124   5.184   6.909  11.157 -1.2981 -0.8335  0.8713
  116OSM      P12125   4.915   7.040  10.971  0.3289 -0.0614 -0.0848
  116OSM    O1312126   4.773   7.008  11.013  0.0306 -0.7893  0.6428
  116OSM    O1412127   4.953   7.183  10.961 -0.9109  0.0472 -0.3925
  116OSM    O1112128   4.961   6.961  10.840  0.1027 -0.1166  0.0718
  116OSM    O1212129   5.000   6.968  11.082 -0.2009 -0.0028  0.1919
  116OSM    C1S12130   4.872   6.947  10.732  0.1780 -0.8099  0.3280
  116OSM    H1S12131   4.788   7.018  10.744 -0.1035 -1.2941  1.3411
  116OSM    H1T12132   4.841   6.842  10.714 -0.3996 -1.0781  2.6225
  116OSM     NF12133   4.842   7.021  10.499  0.4798  0.4280  0.3817
  116OSM    HNF12134   4.822   6.944  10.439  0.1112 -0.1302  1.2055
  116OSM    C2S12135   4.944   6.996  10.596  0.2272 -0.6617  0.1329
  116OSM    H2S12136   4.996   7.090  10.623 -1.2704  1.1124 -2.7248
  116OSM    C3S12137   5.047   6.889  10.558 -0.6635 -0.1526  0.3601
  116OSM    H3S12138   5.002   6.787  10.559  0.8444 -0.8749 -0.6609
  116OSM     O312139   5.162   6.883  10.649 -0.0937 -0.2725 -0.1026
  116OSM    HO312140   5.147   6.962  10.701  0.8186  0.8001 -1.4258
  116OSM    C4S12141   5.106   6.920  10.427  0.3715 -0.0178 -0.6539
  116OSM    H4S12142   5.193   6.988  10.432  1.4345 -1.2481 -1.8120
  116OSM    C5S12143   5.088   6.858  10.311 -0.1323 -0.4294  0.4986
  116OSM    H5S12144   5.024   6.770  10.297 -1.5701  0.9214 -2.3465
  116OSM    C6S12145   5.170   6.885  10.187  0.1535  0.2161 -1.1223
  116OSM    H6S12146   5.224   6.797  10.147  2.6264  1.0493  0.1824
  116OSM    H6T12147   5.247   6.963  10.205  0.3679 -0.4372  1.1135
  116OSM    C7S12148   5.078   6.949  10.080 -0.1835  0.1456  0.3233
  116OSM    H7S12149   5.042   7.044  10.125  3.7149  2.4778 -0.9816
  116OSM    H7T12150   4.995   6.883  10.049  0.2694 -0.7475  0.9786
  116OSM    C8S12151   5.141   6.990   9.945 -0.4075  0.1215  0.3811
  116OSM    H8S12152   5.153   6.890   9.898 -1.4357  1.7002 -3.6498
  116OSM    H8T12153   5.238   7.044   9.954  0.1792 -0.4519 -2.0052
  116OSM    C9S12154   5.049   7.063   9.847  0.3824 -0.2933 -0.8101
  116OSM    H9S12155   5.018   7.162   9.887 -0.0073 -1.2720  1.4912
  116OSM    H9T12156   4.956   7.004   9.832  0.7367 -0.9713 -0.3910
  116OSM   C10S12157   5.112   7.068   9.713  0.2042 -0.7297 -0.4813
  116OSM   H10S12158   5.133   6.964   9.680 -0.5299 -1.2494  0.6403
  116OSM   H10T12159   5.203   7.132   9.710  1.1394 -1.9541  0.7701
  116OSM   C11S12160   5.024   7.121   9.602  0.1515  0.3466  0.1719
  116OSM   H11S12161   4.993   7.221   9.641  1.7147  0.9686 -0.1106
  116OSM   H11T12162   4.938   7.050   9.599 -0.3956  0.9883  0.3304
  116OSM   C12S12163   5.095   7.138   9.462 -0.5815  0.1621 -0.6635
  116OSM   H12S12164   5.191   7.191   9.480 -1.2934  1.5852 -0.9610
  116OSM   H12T12165   5.034   7.209   9.403 -2.5709 -1.6762 -0.9605
  116OSM   C13S12166   5.133   7.014   9.384 -0.2097  0.4782  0.4189
  116OSM   H13S12167   5.057   6.952   9.436 -0.4516  0.9474  0.6349
  116OSM   H13T12168   5.235   6.977   9.406  0.5764 -0.1604 -3.4944
  116OSM   C14S12169   5.109   7.017   9.229  0.4519  0.1512 -0.2380
  116OSM   H14S12170   5.182   7.089   9.185 -0.3974 -0.0776 -2.1427
  116OSM   H14T12171   5.010   7.054   9.195 -0.1261 -2.6926 -2.0293
  116OSM   C15S12172   5.134   6.879   9.161 -0.1456 -0.2866  0.3961
  116OSM   H15S12173   5.123   6.894   9.052  0.7937  1.9222  0.5439
  116OSM   H15T12174   5.074   6.804   9.217  1.0259 -0.1346  1.9210
  116OSM   C16S12175   5.275   6.822   9.185  0.2429  0.4327  0.3671
  116OSM   H16S12176   5.278   6.730   9.122  1.1217  0.2540  0.6449
  116OSM   H16T12177   5.274   6.777   9.287 -0.8357 -0.2336  0.0825
  116OSM   C17S12178   5.399   6.899   9.140 -0.2668  0.3700 -0.0556
  116OSM   H17S12179   5.485   6.829   9.154 -1.3684 -0.7649  1.3113
  116OSM   H17T12180   5.415   6.997   9.191 -2.5068  0.7440  0.0048
  116OSM   C18S12181   5.389   6.930   8.988 -0.3821  0.6213  0.7048
  116OSM   H18S12182   5.481   6.970   8.940 -0.0153 -0.6941  0.2669
  116OSM   H18T12183   5.315   7.012   8.976 -0.3775  0.7758  1.6958
  116OSM   H18U12184   5.350   6.847   8.924  1.8878  0.1958 -0.2289
  116OSM    C1F12185   4.766   7.131  10.493 -1.0116 -0.6259  0.2205
  116OSM     OF12186   4.783   7.227  10.568  0.6511 -0.0383  0.0560
  116OSM    C2F12187   4.664   7.127  10.383 -0.6776 -0.7196  0.2161
  116OSM    H2F12188   4.598   7.213  10.407 -0.2719 -0.9721  2.5038
  116OSM    H2G12189   4.591   7.044  10.384  0.7174 -2.0567 -1.9538
  116OSM    C3F12190   4.733   7.134  10.246 -1.1049 -0.2033 -0.4435
  116OSM    H3F12191   4.801   7.046  10.233 -0.6050 -0.1986  1.7706
  116OSM    H3G12192   4.803   7.219  10.261  0.9529 -1.7236 -0.9115
  116OSM    C4F12193   4.640   7.163  10.131 -0.2219 -0.2794 -0.6549
  116OSM    H4F12194   4.571   7.236  10.177 -0.6378 -1.2712  0.3406
  116OSM    H4G12195   4.583   7.069  10.112 -1.0960  0.3533 -1.2560
  116OSM    C5F12196   4.710   7.207  10.002  0.4133 -0.5455  0.0612
  116OSM    H5F12197   4.782   7.127   9.974 -1.0474 -1.7397 -0.4282
  116OSM    H5G12198   4.770   7.299  10.018 -0.6740  0.5311 -1.7558
  116OSM    C6F12199   4.611   7.223   9.886 -0.1532 -0.3986 -0.0177
  116OSM    H6F12200   4.518   7.271   9.923  1.3506  2.0746  0.8877
  116OSM    H6G12201   4.586   7.123   9.846  1.4420 -1.0020  0.3998
  116OSM    C7F12202   4.665   7.309   9.772  0.9171 -0.9364  0.1916
  116OSM    H7F12203   4.772   7.281   9.758  1.7818  1.1970  1.8101
  116OSM    H7G12204   4.671   7.413   9.811 -1.3356 -0.8695  0.4727
  116OSM    C8F12205   4.597   7.292   9.632  0.6704 -0.5169 -0.5273
  116OSM    H8F12206   4.488   7.290   9.653  1.0034  3.7397  2.8017
  116OSM    H8G12207   4.631   7.197   9.584  2.6783  0.6266 -1.5345
  116OSM    C9F12208   4.622   7.404   9.536  0.1258 -0.0420  0.6173
  116OSM    H9F12209   4.600   7.508   9.564  1.4143  0.3922  0.1135
  116OSM   C10F12210   4.644   7.392   9.398  0.8236  0.3331 -0.1657
  116OSM   H10F12211   4.661   7.482   9.336  0.3794 -0.4037 -1.3994
  116OSM   C11F12212   4.668   7.260   9.322 -0.6998 -0.2324 -0.4082
  116OSM   H11F12213   4.656   7.179   9.397 -3.3699  0.6800  0.2504
  116OSM   H11G12214   4.774   7.257   9.288 -0.4115  0.8125  0.3325
  116OSM   C12F12215   4.562   7.237   9.214  0.5464  1.0901  0.0261
  116OSM   H12F12216   4.465   7.220   9.264  1.2462 -1.1576  0.7138
  116OSM   H12G12217   4.584   7.141   9.162 -2.7343  0.8804 -1.2011
  116OSM   C13F12218   4.552   7.348   9.113  0.0168  0.0638 -0.2456
  116OSM   H13F12219   4.643   7.373   9.054 -0.6921  1.8170 -0.6510
  116OSM   H13G12220   4.531   7.444   9.166  1.2764 -0.1500  0.6902
  116OSM   C14F12221   4.436   7.339   9.015  0.7153 -0.2277 -0.3315
  116OSM   H14F12222   4.432   7.431   8.952 -0.0928 -0.3115 -0.4139
  116OSM   H14G12223   4.342   7.343   9.074 -1.1189  1.4483 -3.1160
  116OSM   C15F12224   4.435   7.213   8.928  0.0024 -0.1921  1.4780
  116OSM   H15F12225   4.414   7.119   8.982  0.4082 -1.9657 -1.2697
  116OSM   H15G12226   4.537   7.207   8.884 -0.0743 -0.7746  1.3724
  116OSM   C16F12227   4.333   7.233   8.809 -0.1740  0.0317 -0.9207
  116OSM   H16F12228   4.363   7.324   8.754 -1.2404 -0.2450 -1.9967
  116OSM   H16G12229   4.236   7.258   8.856 -0.6139 -1.5228 -0.9344
  116OSM   C17F12230   4.339   7.114   8.720  0.6936 -0.2467  0.1937
  116OSM   H17F12231   4.433   7.118   8.660  1.5257 -0.3000  1.4514
  116OSM   H17G12232   4.258   7.139   8.649  0.5299  1.2366  0.8684
  116OSM   C18F12233   4.340   6.969   8.775  0.6602 -0.1910 -0.8587
  116OSM   H18F12234   4.426   6.955   8.844  0.5108  1.5114 -0.2710
  116OSM   H18G12235   4.351   6.899   8.689  1.4854  0.5789 -1.4084
  116OSM   H18H12236   4.245   6.954   8.830  0.0057  1.1117 -1.5789
  117OSM      N12237   2.765   6.306  10.479 -0.3742 -1.0629  0.2168
  117OSM    C1512238   2.881   6.217  10.492 -0.3623 -0.7469 -0.1797
  117OSM   H15A12239   2.915   6.192  10.393 -2.2950 -0.9207 -0.8400
  117OSM   H15B12240   2.848   6.127  10.542  0.0448 -0.3841  0.7716
  117OSM   H15C12241   2.961   6.266  10.546  0.5575  0.5803 -2.5981
  117OSM    C1412242   2.832   6.426  10.415 -0.0638 -0.0171  0.1046
  117OSM   H14A12243   2.887   6.384  10.332 -0.4266  1.3368 -0.8567
  117OSM   H14B12244   2.880   6.487  10.489 -2.7726  0.1916  1.8363
  117OSM   H14C12245   2.755   6.487  10.369 -1.6924 -1.5895  0.6136
  117OSM    C1312246   2.660   6.241  10.393  0.0839 -0.4577  0.8096
  117OSM   H13A12247   2.701   6.210  10.298  0.8287  0.3529  0.8501
  117OSM   H13B12248   2.584   6.318  10.385 -2.4072 -2.7896  0.5042
  117OSM   H13C12249   2.613   6.153  10.434 -2.3252  0.4147  0.1419
  117OSM    C1212250   2.709   6.355  10.616 -0.9265  0.1572  0.4015
  117OSM   H12A12251   2.787   6.384  10.684 -0.0783 -0.7901 -0.1426
  117OSM   H12B12252   2.660   6.273  10.667 -0.9157  0.5811  1.1011
  117OSM    C1112253   2.610   6.470  10.625 -0.0675 -0.1646 -0.5704
  117OSM   H11A12254   2.576   6.478  10.730  0.4123  0.3271 -0.4442
  117OSM   H11B12255   2.527   6.450  10.554 -0.0951 -0.2080 -0.5258
  117OSM      P12256   2.593   6.735  10.562 -0.4193 -0.1902 -0.3212
  117OSM    O1312257   2.534   6.731  10.427  0.8503 -0.7820 -0.2830
  117OSM    O1412258   2.509   6.768  10.677 -0.4712  0.3792  0.5839
  117OSM    O1112259   2.709   6.838  10.565  0.1901 -0.0999 -0.2204
  117OSM    O1212260   2.676   6.596  10.595 -0.4056  0.0561 -0.4401
  117OSM    C1S12261   2.824   6.815  10.470  0.3313  0.1286 -0.3224
  117OSM    H1S12262   2.841   6.705  10.472 -2.2866 -0.3606  2.2372
  117OSM    H1T12263   2.914   6.869  10.506 -0.4027  1.4936 -0.4661
  117OSM     NF12264   2.900   6.836  10.232  0.4672 -0.1937 -0.0756
  117OSM    HNF12265   2.977   6.893  10.202 -0.9117  1.4955 -0.5937
  117OSM    C2S12266   2.799   6.885  10.322 -0.0160  0.3785 -0.2448
  117OSM    H2S12267   2.694   6.863  10.290 -0.3924  2.2164 -0.4032
  117OSM    C3S12268   2.803   7.041  10.338  0.5067  0.1679  0.3198
  117OSM    H3S12269   2.881   7.073  10.410  0.7245  0.6088 -0.1050
  117OSM     O312270   2.700   7.101  10.414  0.4430 -0.2510 -0.0850
  117OSM    HO312271   2.665   7.029  10.466 -0.8287  2.0777  2.5173
  117OSM    C4S12272   2.800   7.103  10.207  0.4049  0.3367 -0.3816
  117OSM    H4S12273   2.705   7.098  10.152  0.7125  2.9990 -1.2924
  117OSM    C5S12274   2.909   7.158  10.146 -1.0921 -0.6408 -0.7439
  117OSM    H5S12275   3.008   7.131  10.185 -0.4997  0.6244 -1.2800
  117OSM    C6S12276   2.905   7.208  10.002  0.5632 -0.4634 -0.0081
  117OSM    H6S12277   2.893   7.318  10.008  0.0431 -0.4016 -1.6925
  117OSM    H6T12278   2.819   7.177   9.939  1.6389 -0.0546 -1.7561
  117OSM    C7S12279   3.025   7.185   9.913 -0.0170  0.3435 -0.0642
  117OSM    H7S12280   3.051   7.078   9.896  1.2472  0.6592 -0.2531
  117OSM    H7T12281   3.105   7.237   9.969  0.9621  0.3417 -1.4147
  117OSM    C8S12282   3.007   7.247   9.776  0.5443  0.3116  0.5905
  117OSM    H8S12283   3.110   7.272   9.742  1.0552  0.2181  1.9645
  117OSM    H8T12284   2.945   7.339   9.782 -0.9621 -0.7490  2.6566
  117OSM    C9S12285   2.938   7.147   9.680 -0.1177 -0.7242  0.0531
  117OSM    H9S12286   2.857   7.088   9.728  1.0852 -1.9554  0.6718
  117OSM    H9T12287   3.018   7.070   9.668 -0.3092 -0.9392  0.1438
  117OSM   C10S12288   2.911   7.206   9.537 -0.4012  0.7451  0.5045
  117OSM   H10S12289   2.987   7.286   9.524 -0.6035  1.1972  1.8823
  117OSM   H10T12290   2.804   7.236   9.541 -0.7753 -0.5828  0.9193
  117OSM   C11S12291   2.922   7.107   9.424  0.4827  0.0918 -0.3065
  117OSM   H11S12292   2.852   7.022   9.440  0.6980  0.0770  0.5968
  117OSM   H11T12293   3.027   7.071   9.416 -0.1398 -1.5832 -1.5008
  117OSM   C12S12294   2.869   7.160   9.298 -0.6952  0.3681  0.1232
  117OSM   H12S12295   2.937   7.228   9.243  0.6279  0.6059  1.9798
  117OSM   H12T12296   2.779   7.223   9.316  0.3999  1.7417  0.9665
  117OSM   C13S12297   2.821   7.051   9.193 -0.2548 -0.5015  0.7269
  117OSM   H13S12298   2.793   6.962   9.254 -0.8982 -0.3031  0.7334
  117OSM   H13T12299   2.905   7.010   9.133  0.6450  1.3722  0.6276
  117OSM   C14S12300   2.715   7.107   9.101 -0.2594  0.3781 -0.0908
  117OSM   H14S12301   2.659   7.189   9.149 -0.5322  0.2163 -0.1341
  117OSM   H14T12302   2.642   7.029   9.070  0.7400 -1.3457  1.6613
  117OSM   C15S12303   2.765   7.164   8.965  1.3799  0.2782 -0.0465
  117OSM   H15S12304   2.867   7.206   8.976  1.4034 -0.1062  1.3993
  117OSM   H15T12305   2.689   7.236   8.930  0.2519 -0.6701  0.3614
  117OSM   C16S12306   2.753   7.050   8.854 -0.8585  0.7078  0.2469
  117OSM   H16S12307   2.648   7.014   8.845 -0.1423 -1.2741 -0.6683
  117OSM   H16T12308   2.800   6.959   8.895 -0.7544  0.1406 -1.1047
  117OSM   C17S12309   2.828   7.075   8.729  0.8745  0.5632 -0.6857
  117OSM   H17S12310   2.803   6.991   8.661 -1.9857  0.2290  0.5940
  117OSM   H17T12311   2.936   7.068   8.752  0.9546  0.3203 -1.1308
  117OSM   C18S12312   2.804   7.206   8.658  0.5440  0.7041 -0.0918
  117OSM   H18S12313   2.698   7.230   8.638 -0.0090 -1.8182 -0.4735
  117OSM   H18T12314   2.853   7.207   8.558  0.5772  2.7880 -0.1014
  117OSM   H18U12315   2.850   7.283   8.724  0.8391  0.6899 -0.2782
  117OSM    C1F12316   2.881   6.713  10.190  0.2755  0.1956 -0.1238
  117OSM     OF12317   2.775   6.656  10.212  0.1572  0.0842 -0.1420
  117OSM    C2F12318   2.995   6.631  10.145  0.2153  0.1716  0.2569
  117OSM    H2F12319   2.981   6.522  10.164 -0.5523  0.3678  0.8313
  117OSM    H2G12320   3.092   6.659  10.191  1.3313 -0.1102 -1.7910
  117OSM    C3F12321   3.017   6.647   9.992  0.3428  0.0840  0.7099
  117OSM    H3F12322   3.035   6.753   9.967 -0.9267  0.0881 -0.2736
  117OSM    H3G12323   2.925   6.608   9.943  0.9976 -1.5091  0.6721
  117OSM    C4F12324   3.125   6.559   9.928  0.3234 -0.3791  0.2789
  117OSM    H4F12325   3.089   6.455   9.913  0.4808 -0.3171 -0.5564
  117OSM    H4G12326   3.208   6.573  10.001 -1.0143  1.0879  1.5906
  117OSM    C5F12327   3.168   6.614   9.788  0.3155 -0.3734  0.7987
  117OSM    H5F12328   3.229   6.542   9.730 -1.2684  0.6064 -2.3673
  117OSM    H5G12329   3.234   6.703   9.799 -0.7384  0.5875 -0.2921
  117OSM    C6F12330   3.050   6.661   9.698 -0.4841  1.0613 -0.3707
  117OSM    H6F12331   2.985   6.726   9.761  2.4347  3.1632  0.6780
  117OSM    H6G12332   2.984   6.575   9.671 -0.6517  1.1091 -0.1189
  117OSM    C7F12333   3.093   6.745   9.567  0.0080 -0.0533 -0.3266
  117OSM    H7F12334   3.132   6.844   9.597  0.5905 -0.7291  1.2537
  117OSM    H7G12335   2.996   6.764   9.517 -0.0269 -1.4722 -0.8630
  117OSM    C8F12336   3.199   6.692   9.475  0.1766 -0.3282  0.4719
  117OSM    H8F12337   3.288   6.650   9.528 -0.9713 -3.4495  0.1460
  117OSM    H8G12338   3.230   6.779   9.414  1.5994 -0.9808  0.2090
  117OSM    C9F12339   3.138   6.575   9.388 -0.2192  0.2084  0.2820
  117OSM    H9F12340   3.141   6.473   9.429 -1.3828 -0.0715 -0.3091
  117OSM   C10F12341   3.083   6.589   9.267 -0.4848 -0.5176 -0.3744
  117OSM   H10F12342   3.043   6.499   9.219 -0.6004 -0.5436 -0.2294
  117OSM   C11F12343   3.055   6.718   9.187 -0.0216  0.4912  0.3699
  117OSM   H11F12344   3.050   6.809   9.250  1.8804 -0.0799  1.3936
  117OSM   H11G12345   2.957   6.717   9.133 -0.8090 -0.7632  1.7450
  117OSM   C12F12346   3.183   6.748   9.104 -0.0751  1.0226  0.4278
  117OSM   H12F12347   3.270   6.723   9.167 -1.5190  0.1500  2.1745
  117OSM   H12G12348   3.181   6.854   9.069  1.6480  1.4641  1.5779
  117OSM   C13F12349   3.192   6.658   8.974  0.2913  0.1370 -0.1161
  117OSM   H13F12350   3.217   6.559   9.017  0.7334  0.8991  1.4347
  117OSM   H13G12351   3.283   6.690   8.920  1.2683  2.4189  2.6449
  117OSM   C14F12352   3.068   6.662   8.884  0.2321 -0.6185 -0.4497
  117OSM   H14F12353   3.040   6.766   8.859 -0.1580 -0.5745  0.1355
  117OSM   H14G12354   2.985   6.610   8.936 -0.4289 -0.3317 -1.2122
  117OSM   C15F12355   3.107   6.590   8.748 -0.7870  0.5786 -0.2771
  117OSM   H15F12356   3.195   6.645   8.708 -0.2986  0.6764  0.8861
  117OSM   H15G12357   3.017   6.606   8.684  0.9507 -1.7897 -3.6285
  117OSM   C16F12358   3.138   6.436   8.768  0.0404 -0.6444 -0.7155
  117OSM   H16F12359   3.067   6.402   8.846  0.5434  0.2140  0.1224
  117OSM   H16G12360   3.236   6.406   8.811 -0.0155  0.6061  0.3212
  117OSM   C17F12361   3.111   6.346   8.643  1.0428 -0.6789 -0.4514
  117OSM   H17F12362   3.022   6.367   8.581  0.1460 -1.1082  0.6698
  117OSM   H17G12363   3.112   6.242   8.682  2.6076 -0.9878 -1.2128
  117OSM   C18F12364   3.225   6.351   8.552 -0.1397  0.0741 -0.4141
  117OSM   H18F12365   3.204   6.288   8.463 -2.7157  0.4340 -0.1382
  117OSM   H18G12366   3.326   6.338   8.598  0.2561 -1.0626 -1.5282
  117OSM   H18H12367   3.235   6.451   8.506 -0.6680 -0.3935 -1.5919
  118OSM      N12368   2.671   1.137  10.798 -0.0408  0.5132  0.2785
  118OSM    C1512369   2.810   1.079  10.780  0.3062  0.0094 -0.3530
  118OSM   H15A12370   2.813   0.980  10.823 -1.7028  0.7755  1.7805
  118OSM   H15B12371   2.872   1.145  10.838 -0.0294  0.4109 -0.4498
  118OSM   H15C12372   2.837   1.087  10.675 -1.3115 -0.5466 -0.8486
  118OSM    C1412373   2.585   1.060  10.698  0.1979 -0.3339  0.4158
  118OSM   H14A12374   2.594   0.954  10.718  0.4934 -0.1592  1.2558
  118OSM   H14B12375   2.618   1.076  10.597  1.7994  1.4752  1.1530
  118OSM   H14C12376   2.481   1.085  10.704  0.3695  0.2759  0.9806
  118OSM    C1312377   2.624   1.118  10.936 -0.2600  0.0537  0.2152
  118OSM   H13A12378   2.670   1.180  11.012 -1.4740 -0.0488  1.0795
  118OSM   H13B12379   2.642   1.016  10.966  0.1097 -0.6717 -2.3229
  118OSM   H13C12380   2.518   1.138  10.932 -0.7486 -2.1211  0.7353
  118OSM    C1212381   2.665   1.282  10.755  0.6236  0.3688  0.0020
  118OSM   H12A12382   2.559   1.303  10.746  0.3033 -1.5821 -1.7359
  118OSM   H12B12383   2.719   1.307  10.666 -0.1512  0.4240 -0.4670
  118OSM    C1112384   2.721   1.380  10.853  0.4241  0.1310  0.1906
  118OSM   H11A12385   2.810   1.337  10.904  0.5265 -0.7852 -0.7362
  118OSM   H11B12386   2.647   1.402  10.933  0.6027  1.2879  0.0491
  118OSM      P12387   2.664   1.602  10.733 -0.1533  0.2325  0.4279
  118OSM    O1312388   2.542   1.545  10.673  0.2940  0.2952 -0.3056
  118OSM    O1412389   2.652   1.682  10.857 -0.0315  0.1464 -0.5617
  118OSM    O1112390   2.735   1.698  10.627 -0.1587 -0.3517 -0.4167
  118OSM    O1212391   2.772   1.486  10.762  0.2281 -0.3695 -0.1725
  118OSM    C1S12392   2.827   1.647  10.532 -0.4343 -0.1566  0.0952
  118OSM    H1S12393   2.837   1.537  10.526  0.2486 -0.1601  0.9873
  118OSM    H1T12394   2.927   1.692  10.548 -0.0974 -0.7667 -0.2678
  118OSM     NF12395   2.873   1.598  10.291  0.7617  0.4355 -0.6444
  118OSM    HNF12396   2.930   1.648  10.226  2.2864  0.2184  0.4685
  118OSM    C2S12397   2.791   1.675  10.386  0.9728  0.1290 -0.4159
  118OSM    H2S12398   2.682   1.660  10.378  0.8671  0.8995 -0.4540
  118OSM    C3S12399   2.798   1.832  10.359  0.0841  0.2454  0.3854
  118OSM    H3S12400   2.908   1.842  10.360  0.3281 -1.9352 -0.2333
  118OSM     O312401   2.755   1.918  10.462  0.2116 -0.6785  0.2829
  118OSM    HO312402   2.754   1.865  10.541  3.4724  2.8529  3.1128
  118OSM    C4S12403   2.741   1.865  10.222  0.4704  0.2612 -0.0965
  118OSM    H4S12404   2.813   1.826  10.148  2.3308  1.8346  0.7851
  118OSM    C5S12405   2.623   1.919  10.187 -0.0953  0.9593 -0.0628
  118OSM    H5S12406   2.550   1.952  10.263 -0.6151  2.4821 -1.1777
  118OSM    C6S12407   2.580   1.925  10.045  0.6567 -0.4660  0.4263
  118OSM    H6S12408   2.544   2.029  10.032  0.8110 -0.6343 -1.6937
  118OSM    H6T12409   2.491   1.860  10.028 -0.3632  1.2010 -1.0162
  118OSM    C7S12410   2.698   1.928   9.942 -0.4338 -0.2114 -0.0078
  118OSM    H7S12411   2.745   1.828   9.947 -3.2811 -1.5875  1.6641
  118OSM    H7T12412   2.777   2.001   9.971  0.0066 -1.3479  1.7680
  118OSM    C8S12413   2.652   1.970   9.798  0.4008  0.1531 -0.0122
  118OSM    H8S12414   2.730   1.985   9.720 -0.3432  0.9234 -0.6258
  118OSM    H8T12415   2.596   2.066   9.796 -0.5356 -0.3866 -0.8217
  118OSM    C9S12416   2.548   1.870   9.744 -0.2053  0.3787  0.2213
  118OSM    H9S12417   2.460   1.872   9.812 -0.2145 -1.0530  0.2697
  118OSM    H9T12418   2.597   1.772   9.758  1.2736  1.3454  2.3478
  118OSM   C10S12419   2.508   1.888   9.603 -1.4018 -0.0825  0.0503
  118OSM   H10S12420   2.600   1.859   9.548 -1.4534 -1.8365  0.8236
  118OSM   H10T12421   2.479   1.995   9.596  2.3090  1.1109  0.5988
  118OSM   C11S12422   2.405   1.786   9.563 -0.8885 -0.2666  0.2856
  118OSM   H11S12423   2.326   1.781   9.642  0.0218  3.0979  1.5463
  118OSM   H11T12424   2.458   1.689   9.550 -1.4020 -0.6335  0.8716
  118OSM   C12S12425   2.329   1.820   9.432  0.0838 -0.7814  0.4382
  118OSM   H12S12426   2.267   1.911   9.443  1.8197  0.2608  2.1765
  118OSM   H12T12427   2.256   1.740   9.404 -0.4214  0.0734 -0.7354
  118OSM   C13S12428   2.416   1.845   9.311  0.5019  0.0455 -0.3574
  118OSM   H13S12429   2.414   1.752   9.250 -2.4124 -2.2359  2.8495
  118OSM   H13T12430   2.514   1.881   9.349 -0.9470 -0.5281  4.4997
  118OSM   C14S12431   2.348   1.960   9.230 -0.1361 -0.1263 -0.0797
  118OSM   H14S12432   2.375   2.055   9.280 -2.6386 -0.3705  1.9052
  118OSM   H14T12433   2.238   1.950   9.224 -0.3449  2.1799 -1.8116
  118OSM   C15S12434   2.399   1.972   9.085  0.2952 -1.1183  0.1409
  118OSM   H15S12435   2.381   1.879   9.027 -2.4993 -1.7338  1.7791
  118OSM   H15T12436   2.506   2.000   9.094  0.0539  0.5616 -1.4697
  118OSM   C16S12437   2.332   2.078   8.997  0.0124  0.2664 -0.2586
  118OSM   H16S12438   2.348   2.176   9.048 -4.2693 -0.4183  2.9091
  118OSM   H16T12439   2.222   2.063   8.993  0.0671 -0.1134 -0.3052
  118OSM   C17S12440   2.377   2.088   8.850 -0.0622 -0.2173  1.0575
  118OSM   H17S12441   2.304   2.153   8.798 -1.6436 -0.5591  2.7359
  118OSM   H17T12442   2.370   1.990   8.798  0.9104 -0.0200  0.5382
  118OSM   C18S12443   2.519   2.145   8.826  0.0312  0.2854  0.0933
  118OSM   H18S12444   2.549   2.137   8.720 -0.4744 -0.9297  0.0306
  118OSM   H18T12445   2.603   2.106   8.887  0.0055 -2.0680 -1.2817
  118OSM   H18U12446   2.510   2.253   8.853  0.8368 -0.2721  2.9189
  118OSM    C1F12447   2.875   1.466  10.283 -0.2656  0.6262 -0.2621
  118OSM     OF12448   2.786   1.396  10.333 -0.7791  0.3372  0.2946
  118OSM    C2F12449   2.981   1.404  10.195 -0.4526  0.6129 -0.4290
  118OSM    H2F12450   3.039   1.344  10.269 -2.3848  1.3753  1.8186
  118OSM    H2G12451   3.051   1.481  10.158  1.4584 -1.0734 -0.5213
  118OSM    C3F12452   2.926   1.329  10.074 -0.6501 -0.0277 -1.2793
  118OSM    H3F12453   2.855   1.250  10.105 -1.5331  1.3838  0.4649
  118OSM    H3G12454   3.000   1.275  10.011  1.1548 -0.2866  0.9510
  118OSM    C4F12455   2.854   1.420   9.975  0.0416 -0.3210 -0.3762
  118OSM    H4F12456   2.931   1.493   9.941 -1.1730  1.0088 -0.3790
  118OSM    H4G12457   2.787   1.489  10.031 -0.5559 -0.2903 -1.1099
  118OSM    C5F12458   2.778   1.363   9.861  0.0744 -0.8136 -0.2501
  118OSM    H5F12459   2.702   1.301   9.914  0.7799  0.0422  1.8724
  118OSM    H5G12460   2.841   1.296   9.798  1.7228 -0.6625  1.1400
  118OSM    C6F12461   2.724   1.468   9.766  0.0621 -0.2091 -0.3902
  118OSM    H6F12462   2.648   1.527   9.823 -0.6736 -2.5291  1.1827
  118OSM    H6G12463   2.667   1.412   9.689  1.0726 -0.5750 -0.8871
  118OSM    C7F12464   2.822   1.554   9.686 -0.3659  0.0466 -0.7865
  118OSM    H7F12465   2.924   1.512   9.675 -0.9158 -1.1845 -1.4660
  118OSM    H7G12466   2.826   1.650   9.741 -1.9607 -0.6336  0.6144
  118OSM    C8F12467   2.765   1.588   9.546  0.1892 -0.5046  0.5513
  118OSM    H8F12468   2.795   1.690   9.515 -1.1978  0.1587  1.2967
  118OSM    H8G12469   2.655   1.603   9.551  0.3855  1.0670  0.6344
  118OSM    C9F12470   2.791   1.483   9.433  0.6081 -0.1448  0.4769
  118OSM    H9F12471   2.759   1.381   9.459  1.7006 -0.1171  2.0853
  118OSM   C10F12472   2.836   1.499   9.308  0.3830 -0.3230  0.2704
  118OSM   H10F12473   2.840   1.407   9.247 -2.5921 -1.8117  2.0980
  118OSM   C11F12474   2.896   1.623   9.245 -0.2309  0.3955  0.5134
  118OSM   H11F12475   3.007   1.623   9.253 -0.3585  1.0808  3.1290
  118OSM   H11G12476   2.863   1.713   9.300  0.7601  0.4243  1.1022
  118OSM   C12F12477   2.868   1.634   9.098 -0.5252 -0.0846 -0.1118
  118OSM   H12F12478   2.899   1.542   9.045  1.5677  1.0017 -0.8476
  118OSM   H12G12479   2.920   1.723   9.057  1.6167 -1.3649 -0.2814
  118OSM   C13F12480   2.708   1.651   9.092  0.3252 -0.4196  0.2418
  118OSM   H13F12481   2.683   1.703   9.187  1.4178  0.1774  0.2107
  118OSM   H13G12482   2.648   1.557   9.094 -0.0217 -0.2444 -0.8902
  118OSM   C14F12483   2.661   1.729   8.963 -0.0707  0.0090  0.4722
  118OSM   H14F12484   2.685   1.836   8.981 -0.5319  0.1810  0.0863
  118OSM   H14G12485   2.550   1.721   8.964  0.0393 -2.2027  1.0926
  118OSM   C15F12486   2.734   1.708   8.833 -0.1678  0.1932  0.8363
  118OSM   H15F12487   2.730   1.604   8.794  1.5950  0.6996 -0.8487
  118OSM   H15G12488   2.838   1.744   8.841  0.1824 -0.0633 -1.7970
  118OSM   C16F12489   2.671   1.791   8.721  0.3889  0.5780  0.5633
  118OSM   H16F12490   2.667   1.896   8.756  1.3499  0.9630 -0.4143
  118OSM   H16G12491   2.568   1.753   8.704  0.5444 -0.5445  1.9396
  118OSM   C17F12492   2.750   1.797   8.588  1.1237  1.4173 -0.3128
  118OSM   H17F12493   2.737   1.696   8.544 -0.2143  1.2532  0.4053
  118OSM   H17G12494   2.857   1.806   8.615  1.6536 -1.5897 -1.0469
  118OSM   C18F12495   2.696   1.910   8.504  0.0933  0.5366 -0.6345
  118OSM   H18F12496   2.587   1.896   8.490  0.3249 -0.0457 -2.0182
  118OSM   H18G12497   2.747   1.910   8.406  2.7140  0.7353  0.6242
  118OSM   H18H12498   2.711   2.009   8.552  1.3968  0.9903 -1.9070
  119OSM      N12499   2.822   0.214  10.920  0.4344 -0.3121  0.4522
  119OSM    C1512500   2.922   0.217  11.034  0.1676  0.2409 -0.8160
  119OSM   H15A12501   2.986   0.132  11.017  0.7955  0.6715 -0.5984
  119OSM   H15B12502   2.854   0.212  11.118 -3.2619  0.5510 -3.3440
  119OSM   H15C12503   2.977   0.308  11.049 -1.4056  1.3419 -1.4095
  119OSM    C1412504   2.751   0.083  10.933  0.2109 -0.0826 -0.3836
  119OSM   H14A12505   2.728   0.084  11.038  0.6945  0.2668 -0.2783
  119OSM   H14B12506   2.816  -0.002  10.913 -0.8454 -0.6975 -1.3018
  119OSM   H14C12507   2.665   0.073  10.868 -0.5198 -1.0146  0.7009
  119OSM    C1312508   2.719   0.329  10.933  0.1835 -0.4414 -0.1698
  119OSM   H13A12509   2.634   0.313  10.867  0.1618  1.0835 -0.5389
  119OSM   H13B12510   2.762   0.426  10.916  3.0078 -1.4761  0.6148
  119OSM   H13C12511   2.685   0.328  11.036  1.6823 -0.9054  0.3394
  119OSM    C1212512   2.897   0.210  10.778 -0.0279  0.0438  0.0068
  119OSM   H12A12513   2.825   0.234  10.701 -0.5893 -1.5401  0.0007
  119OSM   H12B12514   2.915   0.105  10.762  1.0090  0.1343  0.4799
  119OSM    C1112515   3.014   0.298  10.752  0.1202 -0.0337  0.0555
  119OSM   H11A12516   2.999   0.401  10.791 -0.3612 -0.4388  0.9589
  119OSM   H11B12517   3.036   0.307  10.643  0.8118 -3.9818 -0.2663
  119OSM      P12518   3.198   0.116  10.767 -0.4751 -0.0945 -0.3114
  119OSM    O1312519   3.302   0.086  10.871 -0.0419 -0.9051  0.2611
  119OSM    O1412520   3.101   0.011  10.733 -0.4579 -0.8639  0.1288
  119OSM    O1112521   3.277   0.160  10.634  0.2521  0.3204 -0.6841
  119OSM    O1212522   3.128   0.247  10.813 -0.3572  0.1757 -0.4520
  119OSM    C1S12523   3.329   0.291  10.616 -0.4147  0.2685  0.0094
  119OSM    H1S12524   3.418   0.307  10.682  0.6543 -1.2730 -0.9943
  119OSM    H1T12525   3.254   0.369  10.640 -1.5734 -0.8754  0.2251
  119OSM     NF12526   3.456   0.407  10.445 -0.6661 -0.6564 -0.9185
  119OSM    HNF12527   3.425   0.485  10.391  1.7033  0.3412 -0.9667
  119OSM    C2S12528   3.370   0.298  10.467 -1.0641 -0.2357  1.1073
  119OSM    H2S12529   3.428   0.205  10.448  1.2770  1.1889  0.8781
  119OSM    C3S12530   3.249   0.297  10.360 -0.4909  0.7059  0.0869
  119OSM    H3S12531   3.185   0.388  10.362 -1.7019 -0.1121  1.3820
  119OSM     O312532   3.143   0.201  10.389  0.5134 -0.6356 -0.2136
  119OSM    HO312533   3.180   0.168  10.471 -0.5678  2.2148  1.5513
  119OSM    C4S12534   3.302   0.290  10.220 -0.5724 -0.6828 -0.0011
  119OSM    H4S12535   3.322   0.390  10.178 -0.1785  0.3166  2.3636
  119OSM    C5S12536   3.339   0.184  10.158 -0.7239 -0.0465  0.4706
  119OSM    H5S12537   3.343   0.096  10.223 -3.9376 -0.4327  0.2842
  119OSM    C6S12538   3.401   0.168  10.020 -0.2060  0.4183  0.1680
  119OSM    H6S12539   3.365   0.080   9.962 -0.5950  0.7724 -0.1266
  119OSM    H6T12540   3.509   0.148  10.038 -0.2555 -0.2247 -0.2059
  119OSM    C7S12541   3.395   0.291   9.933 -0.3807  0.6727  0.2569
  119OSM    H7S12542   3.466   0.369   9.966  0.8829  0.1395 -1.1150
  119OSM    H7T12543   3.289   0.326   9.940 -0.5166  0.1812  0.7628
  119OSM    C8S12544   3.426   0.252   9.787 -0.0413 -0.1133 -0.0553
  119OSM    H8S12545   3.372   0.160   9.756  1.4901 -1.5881  1.4325
  119OSM    H8T12546   3.536   0.237   9.793  0.1495  1.3894  0.5350
  119OSM    C9S12547   3.392   0.355   9.673  0.2254  0.8300 -1.4755
  119OSM    H9S12548   3.438   0.455   9.692 -0.4556  0.9367 -0.3121
  119OSM    H9T12549   3.284   0.378   9.688  0.3747  1.9850 -2.0238
  119OSM   C10S12550   3.424   0.312   9.528  0.1686  1.5122 -0.0584
  119OSM   H10S12551   3.378   0.214   9.502  2.4411 -0.2023  1.8812
  119OSM   H10T12552   3.534   0.309   9.514  0.0000  1.6012 -1.5311
  119OSM   C11S12553   3.365   0.398   9.415 -0.7459  0.1662 -0.1365
  119OSM   H11S12554   3.401   0.502   9.429  1.0114 -0.1297 -1.9706
  119OSM   H11T12555   3.257   0.387   9.436 -0.3642 -1.4349  1.2074
  119OSM   C12S12556   3.382   0.361   9.266 -0.1605  0.1436  0.6155
  119OSM   H12S12557   3.385   0.251   9.255  0.4664 -0.0769  2.6802
  119OSM   H12T12558   3.474   0.400   9.218 -1.2723  2.1883  0.0073
  119OSM   C13S12559   3.269   0.423   9.177  0.3715 -0.9618  0.5099
  119OSM   H13S12560   3.251   0.528   9.211 -0.0072 -0.2226 -1.7966
  119OSM   H13T12561   3.174   0.376   9.211  0.1468  1.7272  4.2574
  119OSM   C14S12562   3.289   0.430   9.017  0.3809 -0.0657  0.0441
  119OSM   H14S12563   3.304   0.325   8.985  2.5090  0.5439 -1.1539
  119OSM   H14T12564   3.379   0.494   9.002 -0.5141  1.4196  0.7282
  119OSM   C15S12565   3.173   0.503   8.939 -0.4662  0.0702 -0.3332
  119OSM   H15S12566   3.158   0.605   8.978  0.8027  0.6126 -1.1745
  119OSM   H15T12567   3.083   0.440   8.956 -0.5763  0.8603  2.3387
  119OSM   C16S12568   3.193   0.517   8.789 -0.4694 -0.4830 -0.4710
  119OSM   H16S12569   3.270   0.595   8.775  1.1800 -1.9684  0.0093
  119OSM   H16T12570   3.098   0.563   8.753 -1.1432 -1.5899 -0.1559
  119OSM   C17S12571   3.231   0.392   8.706  0.4643 -0.2669  1.0479
  119OSM   H17S12572   3.149   0.317   8.700 -1.2236  1.3868  2.2339
  119OSM   H17T12573   3.325   0.347   8.744 -0.5182 -2.2096  1.2997
  119OSM   C18S12574   3.253   0.423   8.557  0.2182 -0.7370 -0.7759
  119OSM   H18S12575   3.270   0.325   8.508 -0.9236 -2.0866  1.3486
  119OSM   H18T12576   3.344   0.486   8.543 -0.6799  0.4034 -1.6298
  119OSM   H18U12577   3.169   0.463   8.497 -0.3843 -1.9220 -0.7437
  119OSM    C1F12578   3.586   0.412  10.497 -0.4591 -0.0631  0.3077
  119OSM     OF12579   3.631   0.332  10.576 -0.0217  0.0236  0.2899
  119OSM    C2F12580   3.663   0.534  10.460  0.1805 -0.6510  0.0143
  119OSM    H2F12581   3.718   0.558  10.554 -1.3032 -2.3190  1.3549
  119OSM    H2G12582   3.604   0.624  10.434  0.3212 -0.4376  0.4131
  119OSM    C3F12583   3.772   0.520  10.349 -0.3219  0.5491 -0.1572
  119OSM    H3F12584   3.840   0.438  10.382  1.3917  1.4893 -1.2105
  119OSM    H3G12585   3.827   0.615  10.333 -0.2489  0.1467 -2.7031
  119OSM    C4F12586   3.718   0.481  10.213 -0.8547  0.6073 -0.9578
  119OSM    H4F12587   3.653   0.567  10.187 -1.9093 -0.2116 -1.1235
  119OSM    H4G12588   3.652   0.391  10.222  0.3184 -0.1794  0.1539
  119OSM    C5F12589   3.829   0.462  10.110 -0.1845 -0.4645 -0.9937
  119OSM    H5F12590   3.879   0.367  10.138  2.5952  0.9029 -1.0103
  119OSM    H5G12591   3.904   0.543  10.121 -1.0274  0.4632 -1.8643
  119OSM    C6F12592   3.770   0.482   9.976  0.9461  0.3721 -0.2477
  119OSM    H6F12593   3.719   0.581   9.969 -0.6956 -0.3896  0.3620
  119OSM    H6G12594   3.698   0.400   9.954 -1.7582  2.2240  1.0236
  119OSM    C7F12595   3.872   0.474   9.866  0.0829  0.1790 -0.5594
  119OSM    H7F12596   3.937   0.385   9.876 -2.6232 -2.1344 -2.1916
  119OSM    H7G12597   3.938   0.563   9.858  0.3411  0.2783  1.8846
  119OSM    C8F12598   3.800   0.462   9.731  0.0152 -0.3237  0.8006
  119OSM    H8F12599   3.731   0.376   9.744 -0.3953  0.2397  2.6962
  119OSM    H8G12600   3.879   0.435   9.658  0.3618 -1.5455  1.5919
  119OSM    C9F12601   3.730   0.601   9.697 -0.2952 -0.9204 -0.0511
  119OSM    H9F12602   3.639   0.622   9.755  0.0433  2.4483 -0.5251
  119OSM   C10F12603   3.771   0.688   9.603 -0.0979 -0.3653  0.1019
  119OSM   H10F12604   3.720   0.785   9.590  1.4925  0.4733 -0.0066
  119OSM   C11F12605   3.888   0.688   9.506 -0.1801  0.2246 -0.2108
  119OSM   H11F12606   3.988   0.664   9.548 -0.1338  0.2156 -0.3237
  119OSM   H11G12607   3.904   0.790   9.464  0.4788 -0.4529 -1.7087
  119OSM   C12F12608   3.875   0.598   9.384 -0.1273  0.4325  0.0345
  119OSM   H12F12609   3.890   0.492   9.413 -0.0940  0.0003 -1.4698
  119OSM   H12G12610   3.957   0.632   9.317  0.9054  2.2993  2.1283
  119OSM   C13F12611   3.738   0.619   9.307 -0.1742  0.0497 -0.3248
  119OSM   H13F12612   3.730   0.727   9.285  1.0136 -0.0512 -1.3446
  119OSM   H13G12613   3.649   0.603   9.372  0.3799 -0.2401  0.3729
  119OSM   C14F12614   3.725   0.543   9.181  0.0600 -0.9475 -0.2053
  119OSM   H14F12615   3.620   0.533   9.146  0.1843  1.4920 -1.4818
  119OSM   H14G12616   3.763   0.441   9.201  2.5873  0.2965  1.9558
  119OSM   C15F12617   3.811   0.613   9.066  0.2553 -0.2758  1.2216
  119OSM   H15F12618   3.919   0.618   9.092  0.7146 -2.2706 -0.0998
  119OSM   H15G12619   3.788   0.721   9.054  3.4530  0.2027 -2.3794
  119OSM   C16F12620   3.801   0.542   8.932 -0.2778 -0.3700  0.5892
  119OSM   H16F12621   3.700   0.539   8.885 -0.1397  0.2267  0.2404
  119OSM   H16G12622   3.830   0.437   8.954  2.3813  0.3871  1.0861
  119OSM   C17F12623   3.910   0.590   8.835  0.2908  0.3447 -0.5524
  119OSM   H17F12624   4.011   0.561   8.871 -0.9186 -2.9054  0.5766
  119OSM   H17G12625   3.910   0.701   8.831 -0.1559  0.5558  2.6275
  119OSM   C18F12626   3.876   0.526   8.701 -0.5380  1.0146 -0.3321
  119OSM   H18F12627   3.778   0.562   8.663 -1.0925  0.8753  0.9119
  119OSM   H18G12628   3.874   0.415   8.701 -1.2348  1.0072  0.9687
  119OSM   H18H12629   3.960   0.554   8.634  0.0812  0.6824  0.2921
  120OSM      N12630   3.986   3.937  11.065  0.5456 -0.0697 -0.1515
  120OSM    C1512631   4.093   3.872  11.146  0.8436 -0.1640 -0.1101
  120OSM   H15A12632   4.141   3.948  11.205 -0.5296 -1.3646  2.7704
  120OSM   H15B12633   4.152   3.815  11.076 -1.3606  0.7271 -2.8718
  120OSM   H15C12634   4.043   3.809  11.218  1.6373  0.1072  0.6953
  120OSM    C1412635   3.879   3.840  11.015 -0.0610 -0.4268 -0.9842
  120OSM   H14A12636   3.828   3.777  11.087  3.1081 -2.5127 -0.3515
  120OSM   H14B12637   3.919   3.762  10.952 -1.9588 -1.4087 -1.0452
  120OSM   H14C12638   3.795   3.888  10.967 -2.0382 -1.9774  0.7174
  120OSM    C1312639   3.913   4.039  11.144  0.0665  0.1046 -0.7959
  120OSM   H13A12640   3.840   4.095  11.088 -1.0989 -1.4036 -0.8511
  120OSM   H13B12641   3.985   4.104  11.192  1.0382 -2.0040  0.8066
  120OSM   H13C12642   3.859   3.992  11.225  1.1954 -0.2118 -0.2102
  120OSM    C1212643   4.052   4.008  10.944 -0.4013  0.7235  0.4196
  120OSM   H12A12644   3.975   4.056  10.885  0.5119 -1.4135 -2.8021
  120OSM   H12B12645   4.101   3.933  10.883 -0.7669 -0.1810  1.2185
  120OSM    C1112646   4.158   4.113  10.973  0.0680 -0.0287 -0.0655
  120OSM   H11A12647   4.205   4.146  10.878  1.5209 -1.0852  0.2536
  120OSM   H11B12648   4.246   4.073  11.027 -0.2261 -1.3634 -0.5260
  120OSM      P12649   4.059   4.363  10.973 -0.3314  0.1063 -0.2904
  120OSM    O1312650   3.956   4.434  11.054 -0.0876 -0.2538  0.0751
  120OSM    O1412651   4.183   4.442  10.943 -0.2945  0.4065  0.2578
  120OSM    O1112652   3.989   4.314  10.838  0.5995 -0.5566  0.0194
  120OSM    O1212653   4.109   4.224  11.041  0.0782  0.5333  0.4896
  120OSM    C1S12654   4.054   4.335  10.711 -0.2809  0.3641 -0.2265
  120OSM    H1S12655   4.145   4.273  10.702 -1.1446 -0.9476 -0.1751
  120OSM    H1T12656   4.087   4.441  10.704 -0.2751  0.3279 -0.7164
  120OSM     NF12657   4.030   4.306  10.467  0.5734 -0.0528  0.1042
  120OSM    HNF12658   4.023   4.393  10.419 -2.4781  1.2537  2.5745
  120OSM    C2S12659   3.959   4.309  10.593  1.0372  0.0618  0.4085
  120OSM    H2S12660   3.924   4.207  10.619  0.3249  0.4327  0.9504
  120OSM    C3S12661   3.839   4.411  10.597 -0.4785  0.3387 -0.7178
  120OSM    H3S12662   3.870   4.517  10.586  0.2172 -0.1087 -4.3307
  120OSM     O312663   3.773   4.397  10.724  0.3248  0.3618 -0.4403
  120OSM    HO312664   3.834   4.344  10.776  0.2169  1.8783  1.3476
  120OSM    C4S12665   3.736   4.385  10.487 -0.0763 -0.2413 -0.3361
  120OSM    H4S12666   3.744   4.464  10.411 -1.3593 -0.5688 -0.8483
  120OSM    C5S12667   3.621   4.309  10.481 -0.1067  0.0266  0.4125
  120OSM    H5S12668   3.598   4.241  10.564 -1.5079 -0.1566 -0.0957
  120OSM    C6S12669   3.526   4.288  10.366 -0.0342  0.6427  0.2705
  120OSM    H6S12670   3.423   4.299  10.405  1.0863  2.3028  3.0741
  120OSM    H6T12671   3.534   4.182  10.336  0.4818  1.6485 -3.8019
  120OSM    C7S12672   3.549   4.369  10.237  0.1511  0.1005 -0.3135
  120OSM    H7S12673   3.654   4.351  10.205  1.2772  2.0371  1.9993
  120OSM    H7T12674   3.530   4.478  10.248 -0.5306  0.0373 -0.8013
  120OSM    C8S12675   3.460   4.309  10.128  0.0842 -0.3562 -1.0084
  120OSM    H8S12676   3.353   4.312  10.160  0.8674  1.8481  1.8859
  120OSM    H8T12677   3.481   4.201  10.118 -0.8193 -0.7831  1.0684
  120OSM    C9S12678   3.471   4.401  10.006  0.2714 -0.3256 -0.1972
  120OSM    H9S12679   3.578   4.433  10.006 -0.0356  0.8457  2.0308
  120OSM    H9T12680   3.405   4.487  10.027  1.2764  0.7400 -1.2266
  120OSM   C10S12681   3.449   4.338   9.862 -0.1938 -0.0496 -0.2383
  120OSM   H10S12682   3.432   4.420   9.789 -1.2143 -0.9260 -1.0333
  120OSM   H10T12683   3.351   4.285   9.863 -0.4122  0.3257 -0.8537
  120OSM   C11S12684   3.571   4.258   9.819  0.0575 -0.1196 -0.7621
  120OSM   H11S12685   3.574   4.175   9.893  0.0282  1.0037  0.5323
  120OSM   H11T12686   3.656   4.324   9.845  0.3089 -0.0597 -1.7160
  120OSM   C12S12687   3.571   4.215   9.675 -0.3654 -0.3629 -0.2569
  120OSM   H12S12688   3.561   4.311   9.621 -1.9981 -0.7338 -0.6680
  120OSM   H12T12689   3.481   4.160   9.640 -0.4187  0.7216 -1.9456
  120OSM   C13S12690   3.699   4.144   9.628 -0.4136  0.2688 -0.0738
  120OSM   H13S12691   3.720   4.057   9.693  0.9767 -0.5216 -1.4935
  120OSM   H13T12692   3.792   4.205   9.626  0.8104 -1.5301 -0.0627
  120OSM   C14S12693   3.674   4.078   9.495  0.7787 -0.2077 -0.7371
  120OSM   H14S12694   3.583   4.016   9.507  0.9356 -0.4173 -0.6295
  120OSM   H14T12695   3.761   4.015   9.469  0.8386 -1.2235  1.6780
  120OSM   C15S12696   3.660   4.180   9.375  0.3883 -0.4311 -0.3002
  120OSM   H15S12697   3.729   4.267   9.367 -1.7203  1.2186 -2.0236
  120OSM   H15T12698   3.562   4.228   9.394 -0.3322 -1.8234 -0.3280
  120OSM   C16S12699   3.677   4.102   9.247  0.8903  0.3110 -0.8788
  120OSM   H16S12700   3.644   3.998   9.267  0.0486  0.6378 -0.5193
  120OSM   H16T12701   3.783   4.094   9.214  0.6075 -2.4911 -1.3682
  120OSM   C17S12702   3.586   4.153   9.136 -0.5370 -0.4012 -0.3643
  120OSM   H17S12703   3.484   4.136   9.178 -0.1097 -0.2145  0.7890
  120OSM   H17T12704   3.606   4.076   9.058 -1.1860 -2.3931  1.3328
  120OSM   C18S12705   3.616   4.301   9.103  0.2250  0.1394 -0.2987
  120OSM   H18S12706   3.725   4.296   9.081  0.5834 -1.3985  1.5102
  120OSM   H18T12707   3.597   4.376   9.182 -0.2464 -0.4061  0.1182
  120OSM   H18U12708   3.555   4.326   9.014 -0.4591  0.4082  0.2344
  120OSM    C1F12709   4.111   4.204  10.446  0.1519  0.4333 -0.2667
  120OSM     OF12710   4.071   4.092  10.483  0.0687 -0.7703 -0.1055
  120OSM    C2F12711   4.241   4.226  10.375  0.4761  0.6654 -0.1204
  120OSM    H2F12712   4.320   4.180  10.439 -0.1108 -1.6201 -0.9317
  120OSM    H2G12713   4.265   4.333  10.358 -3.0062  1.7126  0.7194
  120OSM    C3F12714   4.243   4.151  10.238  0.1374  0.5178 -0.1023
  120OSM    H3F12715   4.185   4.202  10.158 -0.5519 -1.2843 -0.7896
  120OSM    H3G12716   4.201   4.050  10.254  0.3716  0.4453  0.0638
  120OSM    C4F12717   4.391   4.134  10.195  0.0218  0.3919 -0.2306
  120OSM    H4F12718   4.444   4.060  10.260  0.7382  1.8900  0.9449
  120OSM    H4G12719   4.438   4.234  10.201 -0.2237  0.5203 -0.4551
  120OSM    C5F12720   4.409   4.079  10.054 -0.4720  0.1395  0.3191
  120OSM    H5F12721   4.326   4.127   9.997 -1.6023 -2.7708 -0.6887
  120OSM    H5G12722   4.378   3.973  10.054 -0.4544  0.0750  2.6079
  120OSM    C6F12723   4.541   4.126   9.997  0.6391 -0.0403 -0.0506
  120OSM    H6F12724   4.631   4.101  10.058 -0.3965 -0.1569  1.4607
  120OSM    H6G12725   4.526   4.235   9.985 -2.3399 -0.4743 -1.1488
  120OSM    C7F12726   4.551   4.062   9.863 -0.3144  0.5211 -0.9512
  120OSM    H7F12727   4.458   4.074   9.804 -1.5182  2.2758  1.1260
  120OSM    H7G12728   4.558   3.953   9.883  1.1481  0.6369 -0.7215
  120OSM    C8F12729   4.671   4.106   9.779 -0.0513  0.7991 -0.5225
  120OSM    H8F12730   4.760   4.103   9.846 -0.9949  0.3508  0.7425
  120OSM    H8G12731   4.640   4.213   9.772 -2.5466  0.1505 -0.2104
  120OSM    C9F12732   4.698   4.047   9.640 -0.4319 -0.4282  0.4122
  120OSM    H9F12733   4.777   3.972   9.656  3.0398  2.8824  0.3715
  120OSM   C10F12734   4.658   4.082   9.514 -0.0616  0.2203  0.6618
  120OSM   H10F12735   4.687   4.017   9.431  0.6058  3.1459 -1.5681
  120OSM   C11F12736   4.551   4.184   9.480 -0.1224 -0.6417  0.2643
  120OSM   H11F12737   4.531   4.266   9.553  0.3235  1.1499 -1.5179
  120OSM   H11G12738   4.453   4.132   9.470  0.2877 -1.0991 -2.0555
  120OSM   C12F12739   4.561   4.260   9.351 -0.3837  0.1421 -0.2535
  120OSM   H12F12740   4.663   4.300   9.333 -0.6256  1.2200  0.6875
  120OSM   H12G12741   4.509   4.356   9.369  1.7478  1.2026  0.5451
  120OSM   C13F12742   4.492   4.189   9.236  0.4013  0.4020  1.1430
  120OSM   H13F12743   4.387   4.159   9.253 -0.4345  0.8825 -2.3592
  120OSM   H13G12744   4.550   4.097   9.211  2.0880  1.6546  0.2959
  120OSM   C14F12745   4.477   4.278   9.107 -0.8846  0.1186 -0.2278
  120OSM   H14F12746   4.415   4.368   9.128 -0.4801  0.4158 -0.3042
  120OSM   H14G12747   4.429   4.218   9.026 -1.7126 -1.7089  1.5238
  120OSM   C15F12748   4.612   4.323   9.038  0.6740  0.2079  0.2978
  120OSM   H15F12749   4.677   4.238   9.006  1.7369  1.2321 -0.3398
  120OSM   H15G12750   4.670   4.383   9.112 -1.1969 -2.4918  4.3000
  120OSM   C16F12751   4.585   4.411   8.915 -0.0333 -0.3280  0.6858
  120OSM   H16F12752   4.510   4.491   8.935  0.4827  0.2672  0.2698
  120OSM   H16G12753   4.533   4.343   8.844 -0.0682  0.1684  0.2301
  120OSM   C17F12754   4.713   4.480   8.872  0.1664 -0.6205 -0.1195
  120OSM   H17F12755   4.798   4.409   8.864 -1.0362 -2.5294  2.5933
  120OSM   H17G12756   4.729   4.555   8.952  3.8342  0.0097 -1.2411
  120OSM   C18F12757   4.696   4.569   8.746 -0.3472  0.4726 -0.7438
  120OSM   H18F12758   4.615   4.645   8.761  0.3312  2.4557 -5.4616
  120OSM   H18G12759   4.669   4.502   8.662  1.5825 -1.4766  0.0930
  120OSM   H18H12760   4.787   4.625   8.717  0.4195 -0.4040 -0.1099
  121OSM      N12761   1.813   6.702  10.801 -0.2499 -0.2227  0.0662
  121OSM    C1512762   1.684   6.632  10.772  0.5326 -0.0433 -0.3870
  121OSM   H15A12763   1.694   6.530  10.735  0.1258  1.4649 -5.4559
  121OSM   H15B12764   1.629   6.684  10.695  2.1775  1.5200 -0.5642
  121OSM   H15C12765   1.628   6.619  10.864 -0.3585  1.9549 -0.5948
  121OSM    C1412766   1.903   6.628  10.898  0.4077 -0.5258 -0.5438
  121OSM   H14A12767   1.991   6.691  10.908 -0.9283  1.3612 -0.2167
  121OSM   H14B12768   1.942   6.531  10.869 -0.0940 -1.0513  0.5106
  121OSM   H14C12769   1.851   6.627  10.992  0.3390  1.8589 -0.4943
  121OSM    C1312770   1.900   6.710  10.680  0.0321  0.5888 -0.1401
  121OSM   H13A12771   1.864   6.776  10.602  2.9192  0.8392 -1.3556
  121OSM   H13B12772   1.911   6.613  10.635 -3.3279 -0.0983  0.2108
  121OSM   H13C12773   1.997   6.745  10.711  0.7554 -2.4190  1.3194
  121OSM    C1212774   1.792   6.843  10.849 -0.1417  0.1160 -0.4367
  121OSM   H12A12775   1.731   6.843  10.938 -0.6607  1.5192 -0.7639
  121OSM   H12B12776   1.732   6.895  10.775 -0.4647  1.4277  0.7156
  121OSM    C1112777   1.904   6.938  10.894  0.0607  0.2612  0.1908
  121OSM   H11A12778   1.964   6.894  10.977 -0.6539 -1.0948  0.0193
  121OSM   H11B12779   1.857   7.033  10.927 -1.3583 -0.4126  0.1697
  121OSM      P12780   2.086   7.083  10.778  0.4732  0.5537  0.2364
  121OSM    O1312781   2.026   7.188  10.865  0.4350 -0.0472 -0.2994
  121OSM    O1412782   2.221   7.042  10.801 -0.1129  0.2265 -0.4950
  121OSM    O1112783   2.082   7.129  10.628  0.3786  0.1448 -0.1853
  121OSM    O1212784   1.982   6.965  10.775 -0.0018  0.4466  0.2648
  121OSM    C1S12785   2.104   7.038  10.517  0.0244  0.0872  0.0282
  121OSM    H1S12786   2.008   6.985  10.503 -1.1680  1.1339  3.2851
  121OSM    H1T12787   2.178   6.960  10.548 -1.7946 -1.1412  1.4977
  121OSM     NF12788   2.180   6.995  10.294  0.5920  0.0452  0.4336
  121OSM    HNF12789   2.266   6.943  10.293  0.0763 -0.8327  0.1038
  121OSM    C2S12790   2.159   7.104  10.386 -0.1058  0.4469  0.2170
  121OSM    H2S12791   2.077   7.171  10.352  0.5715  1.8586  1.2836
  121OSM    C3S12792   2.283   7.191  10.408  0.5071 -0.0003 -0.2773
  121OSM    H3S12793   2.365   7.131  10.453 -0.2813 -0.4335  0.5961
  121OSM     O312794   2.265   7.301  10.493  0.0614  0.0403 -0.0354
  121OSM    HO312795   2.184   7.277  10.538 -1.3084  1.0190 -1.8444
  121OSM    C4S12796   2.335   7.235  10.269  0.0370  0.7904 -0.0322
  121OSM    H4S12797   2.424   7.178  10.240 -0.3240  0.5241 -0.6367
  121OSM    C5S12798   2.296   7.331  10.193  0.4481  0.4135 -0.2386
  121OSM    H5S12799   2.218   7.397  10.234  0.7709 -0.9541  2.8057
  121OSM    C6S12800   2.352   7.367  10.053 -0.5372  0.2269 -0.5892
  121OSM    H6S12801   2.336   7.474  10.029  1.0152  0.2051 -1.8979
  121OSM    H6T12802   2.303   7.303   9.977 -0.8571  1.1662 -1.1883
  121OSM    C7S12803   2.502   7.346  10.044  0.0773 -0.4009  0.1833
  121OSM    H7S12804   2.522   7.237  10.045  3.2972  0.1057 -0.1306
  121OSM    H7T12805   2.547   7.397  10.133 -1.2938  2.2114 -0.5217
  121OSM    C8S12806   2.574   7.402   9.922  0.2214 -0.0892 -0.1459
  121OSM    H8S12807   2.677   7.361   9.921 -0.0123 -0.8554  2.2185
  121OSM    H8T12808   2.583   7.513   9.923 -0.0473 -0.0695  0.5549
  121OSM    C9S12809   2.501   7.369   9.788  0.1653  0.7149 -0.1018
  121OSM    H9S12810   2.403   7.422   9.787 -1.2372 -1.7124 -1.1398
  121OSM    H9T12811   2.470   7.262   9.789  0.9454  0.4350 -1.8306
  121OSM   C10S12812   2.581   7.415   9.670 -0.6087 -0.3060  0.6303
  121OSM   H10S12813   2.688   7.386   9.672 -0.7072 -0.6452  2.0097
  121OSM   H10T12814   2.585   7.526   9.671  0.8776 -0.3014 -0.7957
  121OSM   C11S12815   2.509   7.384   9.539  0.4465 -0.2581  0.4718
  121OSM   H11S12816   2.413   7.438   9.556  2.7394  3.0379  5.3455
  121OSM   H11T12817   2.487   7.275   9.534 -0.3373 -0.1212  0.7696
  121OSM   C12S12818   2.579   7.429   9.411  0.3910 -0.0895 -1.0385
  121OSM   H12S12819   2.687   7.405   9.420  0.6164  1.4927  1.4069
  121OSM   H12T12820   2.582   7.540   9.407  3.1712 -0.0199  0.5716
  121OSM   C13S12821   2.503   7.373   9.283 -1.4777  0.4102 -0.6591
  121OSM   H13S12822   2.394   7.372   9.302 -1.3779 -1.9804  0.1798
  121OSM   H13T12823   2.528   7.266   9.263 -1.2670  0.1101  1.0259
  121OSM   C14S12824   2.549   7.462   9.162  0.3754  0.2253 -0.4771
  121OSM   H14S12825   2.650   7.433   9.124 -0.7524 -1.5146 -2.3870
  121OSM   H14T12826   2.546   7.569   9.189 -0.5213  0.6547 -2.1480
  121OSM   C15S12827   2.445   7.441   9.048 -0.1045 -0.6715 -0.1473
  121OSM   H15S12828   2.346   7.457   9.096  0.5544  1.0182  0.7605
  121OSM   H15T12829   2.455   7.339   9.006 -1.0251 -2.5255  3.6419
  121OSM   C16S12830   2.454   7.542   8.926 -0.0614  0.7293  0.5142
  121OSM   H16S12831   2.467   7.644   8.969 -2.1263  0.1803  2.7072
  121OSM   H16T12832   2.357   7.545   8.872  0.0076 -0.3445  0.3104
  121OSM   C17S12833   2.569   7.511   8.818  0.2455  0.4849 -0.5203
  121OSM   H17S12834   2.555   7.406   8.785 -0.1287  0.1892  0.5165
  121OSM   H17T12835   2.662   7.525   8.876 -0.4422  0.0601  0.7287
  121OSM   C18S12836   2.556   7.609   8.705 -0.2384 -0.4478 -0.0904
  121OSM   H18S12837   2.462   7.578   8.654  1.5095 -3.0543 -1.9821
  121OSM   H18T12838   2.646   7.603   8.639  0.9084  0.0817  1.3875
  121OSM   H18U12839   2.540   7.712   8.744  0.8731 -0.7786  1.3003
  121OSM    C1F12840   2.068   6.927  10.247 -0.3919 -0.3263  0.3104
  121OSM     OF12841   1.953   6.970  10.271  0.0998 -0.7400  0.6527
  121OSM    C2F12842   2.101   6.789  10.185  0.0661  0.0431 -0.0812
  121OSM    H2F12843   2.129   6.727  10.272  0.8144  0.6965  0.1573
  121OSM    H2G12844   2.187   6.810  10.118  1.9414  1.0208  2.4661
  121OSM    C3F12845   1.989   6.720  10.108 -0.2981  0.4097 -0.0560
  121OSM    H3F12846   1.940   6.786  10.033  0.5852  0.8081 -0.2969
  121OSM    H3G12847   1.905   6.710  10.180 -1.4355  0.9584 -1.2542
  121OSM    C4F12848   2.040   6.582  10.050 -0.3396  0.7507 -0.3094
  121OSM    H4F12849   1.942   6.529  10.040 -1.1337  2.2921 -1.0360
  121OSM    H4G12850   2.100   6.530  10.128  0.2135  1.0615 -0.5261
  121OSM    C5F12851   2.122   6.576   9.923 -0.6450  0.4459  0.2089
  121OSM    H5F12852   2.134   6.468   9.900  1.7582  0.8974 -1.0016
  121OSM    H5G12853   2.225   6.603   9.954 -0.1331  0.0622 -1.0967
  121OSM    C6F12854   2.065   6.654   9.803  0.7003 -0.0875 -0.5883
  121OSM    H6F12855   2.019   6.749   9.839 -0.1298 -1.2195  1.5417
  121OSM    H6G12856   1.980   6.591   9.770  2.8768 -2.4603 -2.0789
  121OSM    C7F12857   2.156   6.675   9.679 -0.5583  0.1642  1.2302
  121OSM    H7F12858   2.220   6.584   9.683  1.1315  1.3142  0.9671
  121OSM    H7G12859   2.226   6.755   9.709 -0.5028  0.1723  1.0762
  121OSM    C8F12860   2.093   6.705   9.538  0.4139  0.4207  0.2275
  121OSM    H8F12861   2.161   6.757   9.468 -0.4876  2.1220  0.5806
  121OSM    H8G12862   2.013   6.779   9.557  0.4770  0.9384 -1.4142
  121OSM    C9F12863   2.041   6.584   9.470  0.1223 -0.1531 -0.6428
  121OSM    H9F12864   1.992   6.513   9.538  1.2901  0.3885  0.8206
  121OSM   C10F12865   2.039   6.556   9.338 -0.0873 -0.0358 -0.6235
  121OSM   H10F12866   1.999   6.460   9.301  1.4990 -0.2561 -1.8489
  121OSM   C11F12867   2.091   6.642   9.220 -0.1985  0.8702 -0.9077
  121OSM   H11F12868   2.198   6.613   9.207 -0.2245 -0.2183  0.9852
  121OSM   H11G12869   2.094   6.750   9.243 -1.3429  0.7951 -0.3522
  121OSM   C12F12870   2.019   6.611   9.089  0.0010 -0.0046  0.2973
  121OSM   H12F12871   1.911   6.631   9.104 -0.3990 -1.2895 -0.6281
  121OSM   H12G12872   2.037   6.509   9.047 -0.6213 -0.1477  0.3692
  121OSM   C13F12873   2.069   6.691   8.962 -0.3053  0.3859  0.1198
  121OSM   H13F12874   2.175   6.656   8.960 -0.0536  0.3946  4.1249
  121OSM   H13G12875   2.064   6.799   8.990 -2.6161  0.7764 -1.5225
  121OSM   C14F12876   1.992   6.661   8.832 -0.6007  0.1001 -0.0705
  121OSM   H14F12877   1.884   6.685   8.842 -0.7658  0.2233 -1.8164
  121OSM   H14G12878   1.989   6.550   8.831 -1.5779  0.1089  0.5727
  121OSM   C15F12879   2.060   6.718   8.709  0.3838  0.3197 -0.4301
  121OSM   H15F12880   2.168   6.724   8.735  0.2954 -0.4890  0.1456
  121OSM   H15G12881   2.022   6.821   8.692  1.2071  0.1396 -4.3272
  121OSM   C16F12882   2.031   6.623   8.598 -0.3949 -0.0912  0.2927
  121OSM   H16F12883   1.921   6.627   8.584 -0.3263  0.9579 -0.0133
  121OSM   H16G12884   2.069   6.520   8.617 -0.7041 -0.4480 -0.9544
  121OSM   C17F12885   2.088   6.680   8.467 -0.5929  0.8027  1.3504
  121OSM   H17F12886   2.198   6.692   8.462 -0.7332  1.8855 -0.4351
  121OSM   H17G12887   2.044   6.781   8.451 -0.9778  0.3503 -0.8969
  121OSM   C18F12888   2.050   6.593   8.343  0.2357  0.0445  0.5993
  121OSM   H18F12889   2.104   6.497   8.355  1.2261  0.6863  1.4311
  121OSM   H18G12890   2.071   6.636   8.243 -0.5451  0.2688  0.5218
  121OSM   H18H12891   1.945   6.557   8.332 -0.1245  1.7589 -3.0804
  122OSM      N12892   1.835   5.234  10.781 -0.4152 -0.5283 -0.0343
  122OSM    C1512893   1.780   5.096  10.774  0.3542  0.6786 -0.4491
  122OSM   H15A12894   1.677   5.111  10.746  1.0858  2.0631 -2.7046
  122OSM   H15B12895   1.773   5.050  10.871 -2.7203  0.9833 -0.4168
  122OSM   H15C12896   1.826   5.039  10.695 -1.1779  0.5827 -1.3068
  122OSM    C1412897   1.984   5.216  10.810  0.7227 -0.2568  0.3115
  122OSM   H14A12898   1.984   5.163  10.903 -0.8980  2.1391  1.7713
  122OSM   H14B12899   2.044   5.305  10.826  0.6758 -0.4632  1.7681
  122OSM   H14C12900   2.036   5.162  10.732  0.7588  0.7527 -0.3825
  122OSM    C1312901   1.825   5.298  10.649  0.3587 -0.2834 -0.2443
  122OSM   H13A12902   1.723   5.333  10.642  0.3370 -0.4312 -0.7612
  122OSM   H13B12903   1.837   5.230  10.566  1.7006 -1.9607  1.2456
  122OSM   H13C12904   1.885   5.388  10.645  0.7371 -0.5474 -0.7012
  122OSM    C1212905   1.764   5.311  10.895 -0.1329 -1.1582  0.2196
  122OSM   H12A12906   1.797   5.414  10.889 -2.4676 -0.3759 -0.0678
  122OSM   H12B12907   1.791   5.264  10.989  0.0046 -2.5479 -0.4799
  122OSM    C1112908   1.615   5.334  10.888 -0.0200  0.1714  0.1944
  122OSM   H11A12909   1.590   5.370  10.990 -0.3823  0.1079  0.1295
  122OSM   H11B12910   1.570   5.234  10.870  0.1561 -0.0689  1.0260
  122OSM      P12911   1.538   5.577  10.822  0.4950 -0.0357 -0.0791
  122OSM    O1312912   1.415   5.578  10.903 -0.1486 -0.3164  0.4270
  122OSM    O1412913   1.665   5.626  10.883  0.2944 -0.4483  1.2133
  122OSM    O1112914   1.528   5.642  10.679 -0.4542  0.4418  0.2387
  122OSM    O1212915   1.575   5.430  10.786  0.0948 -0.4772 -0.1047
  122OSM    C1S12916   1.461   5.570  10.573  0.3968  0.4261  0.2657
  122OSM    H1S12917   1.352   5.590  10.575  0.6841  2.2641 -0.2827
  122OSM    H1T12918   1.460   5.459  10.573 -1.6177  0.3603 -2.0270
  122OSM     NF12919   1.430   5.592  10.319 -0.2372 -0.8505 -0.6888
  122OSM    HNF12920   1.471   5.525  10.259  1.3505 -0.3069 -0.2617
  122OSM    C2S12921   1.520   5.620  10.438  0.4128 -0.8744  0.8793
  122OSM    H2S12922   1.529   5.730  10.449 -1.2651 -0.5552 -0.5438
  122OSM    C3S12923   1.657   5.569  10.415 -0.0429  0.8869  0.5233
  122OSM    H3S12924   1.650   5.462  10.384  2.2430  0.8785 -0.1217
  122OSM     O312925   1.745   5.572  10.531 -0.3534  0.1779 -0.0356
  122OSM    HO312926   1.686   5.594  10.604 -1.4547  0.8487 -1.0974
  122OSM    C4S12927   1.734   5.635  10.297 -0.2621  0.1551  0.3658
  122OSM    H4S12928   1.730   5.580  10.202 -2.0642  0.1566  0.4083
  122OSM    C5S12929   1.803   5.751  10.302  0.8571 -1.1655  0.1157
  122OSM    H5S12930   1.793   5.806  10.396 -0.9767  1.8798 -1.7081
  122OSM    C6S12931   1.888   5.816  10.190  1.1470 -0.4890  0.0270
  122OSM    H6S12932   1.994   5.825  10.223  1.8112  0.6291 -2.2012
  122OSM    H6T12933   1.852   5.920  10.174 -1.3035 -1.4742 -1.4292
  122OSM    C7S12934   1.891   5.745  10.055 -0.5225  0.0022  0.0588
  122OSM    H7S12935   1.790   5.736  10.010 -0.1137 -1.1109 -0.6954
  122OSM    H7T12936   1.940   5.645  10.061 -0.5677 -0.0206  0.0395
  122OSM    C8S12937   1.976   5.829   9.957 -0.2793 -0.0954  0.3191
  122OSM    H8S12938   2.079   5.832   9.996 -0.3401 -1.3475  0.6256
  122OSM    H8T12939   1.936   5.931   9.939 -0.0473 -0.5466 -3.8594
  122OSM    C9S12940   1.991   5.764   9.821 -0.4654  0.0425  0.0833
  122OSM    H9S12941   1.890   5.770   9.776 -0.3914  0.3591 -0.0452
  122OSM    H9T12942   2.022   5.658   9.829 -2.5306 -0.6531 -0.4520
  122OSM   C10S12943   2.093   5.831   9.729 -0.7998 -0.5955 -0.6484
  122OSM   H10S12944   2.199   5.816   9.761 -0.6991 -0.2479 -0.8114
  122OSM   H10T12945   2.064   5.938   9.738 -0.4326 -0.6353  1.8621
  122OSM   C11S12946   2.076   5.775   9.595  0.0035  0.7963  1.4660
  122OSM   H11S12947   1.969   5.754   9.573  0.1784  1.6751 -0.4106
  122OSM   H11T12948   2.128   5.678   9.580  0.9914  1.5008  0.2245
  122OSM   C12S12949   2.123   5.866   9.481 -0.0016 -0.3320  0.1927
  122OSM   H12S12950   2.223   5.912   9.496  0.5188 -1.8835  1.8213
  122OSM   H12T12951   2.049   5.949   9.474 -0.4880 -0.8085 -0.4252
  122OSM   C13S12952   2.132   5.781   9.353  0.6559 -0.9343 -0.1801
  122OSM   H13S12953   2.033   5.784   9.302 -0.1442  0.2210  1.3746
  122OSM   H13T12954   2.165   5.681   9.388  1.8740 -0.3726  0.3357
  122OSM   C14S12955   2.231   5.831   9.240  0.7222  0.2051 -0.4296
  122OSM   H14S12956   2.330   5.847   9.287  0.7002 -1.6897  0.3678
  122OSM   H14T12957   2.187   5.925   9.200 -1.3708 -0.4176  0.2833
  122OSM   C15S12958   2.255   5.735   9.125 -0.7708  0.6322 -0.3875
  122OSM   H15S12959   2.158   5.698   9.084  0.1348 -2.3173 -0.0714
  122OSM   H15T12960   2.301   5.639   9.157 -0.5482  0.7748 -0.2794
  122OSM   C16S12961   2.348   5.810   9.023 -0.2466  0.3996  1.2983
  122OSM   H16S12962   2.439   5.852   9.071  1.6350 -0.3605 -1.3824
  122OSM   H16T12963   2.286   5.894   8.986  2.3780  1.4771 -1.0607
  122OSM   C17S12964   2.398   5.732   8.904  0.0490 -0.7986  0.7865
  122OSM   H17S12965   2.313   5.716   8.834  0.7173  0.8077 -0.4488
  122OSM   H17T12966   2.451   5.640   8.937 -0.3425 -0.8787  1.2049
  122OSM   C18S12967   2.498   5.829   8.825 -0.1678 -0.6226 -0.5678
  122OSM   H18S12968   2.465   5.936   8.828  1.1450 -0.1325 -2.2252
  122OSM   H18T12969   2.498   5.806   8.716  0.5975  1.6594 -1.1223
  122OSM   H18U12970   2.602   5.816   8.861 -0.8539 -0.4029  1.6274
  122OSM    C1F12971   1.315   5.653  10.301  0.7334 -1.1772 -0.5151
  122OSM     OF12972   1.277   5.752  10.367  0.4240  0.2582 -0.2162
  122OSM    C2F12973   1.230   5.597  10.196 -0.3153  0.3109 -0.7815
  122OSM    H2F12974   1.143   5.551  10.248  1.0349 -2.3594 -0.7463
  122OSM    H2G12975   1.289   5.511  10.159  3.8543  2.5420  0.0763
  122OSM    C3F12976   1.207   5.700  10.088 -0.7958  0.1693 -0.1920
  122OSM    H3F12977   1.166   5.787  10.143 -2.2975 -1.1473  0.8615
  122OSM    H3G12978   1.131   5.655  10.020  0.7872 -1.0641 -1.2339
  122OSM    C4F12979   1.321   5.728   9.986 -0.2781 -0.0224 -0.5328
  122OSM    H4F12980   1.267   5.763   9.896 -2.3268 -0.5704  0.4217
  122OSM    H4G12981   1.353   5.622   9.972 -0.2482 -0.4550  2.2395
  122OSM    C5F12982   1.431   5.826  10.030  0.6559  0.0903 -0.3408
  122OSM    H5F12983   1.478   5.784  10.121  0.3368  0.7020  0.1204
  122OSM    H5G12984   1.374   5.918  10.056  0.0915 -1.3630  4.5795
  122OSM    C6F12985   1.537   5.841   9.924 -0.1725  0.0635  0.0086
  122OSM    H6F12986   1.598   5.748   9.929  0.1302  0.2111 -0.7007
  122OSM    H6G12987   1.603   5.922   9.960 -0.5036 -0.3028  1.4854
  122OSM    C7F12988   1.488   5.860   9.779  0.1119  0.2095 -1.1453
  122OSM    H7F12989   1.443   5.961   9.774  0.2821  0.3253 -0.4714
  122OSM    H7G12990   1.406   5.789   9.753  0.5475 -0.7239 -0.0562
  122OSM    C8F12991   1.610   5.850   9.681  0.3274  0.7957  0.2601
  122OSM    H8F12992   1.669   5.756   9.691  1.1555  1.1995 -0.6987
  122OSM    H8G12993   1.687   5.927   9.700  0.0497  0.8221  1.3079
  122OSM    C9F12994   1.568   5.867   9.536 -0.1442  0.1550 -0.0847
  122OSM    H9F12995   1.515   5.960   9.510 -1.7350  0.1414  2.6780
  122OSM   C10F12996   1.578   5.774   9.440  0.0895  0.1520  0.5779
  122OSM   H10F12997   1.534   5.797   9.342 -1.9850  1.1742  1.6970
  122OSM   C11F12998   1.633   5.627   9.446  0.1512 -0.1490 -0.7400
  122OSM   H11F12999   1.555   5.557   9.483  1.0916 -1.7008 -1.6141
  122OSM   H11G13000   1.724   5.612   9.508 -0.2632  3.3040  0.9768
  122OSM   C12F13001   1.658   5.554   9.316 -0.8780 -0.3760  0.4231
  122OSM   H12F13002   1.576   5.569   9.242  0.3025 -2.1295 -1.3648
  122OSM   H12G13003   1.662   5.445   9.335 -1.2171 -0.8798 -2.0614
  122OSM   C13F13004   1.786   5.604   9.244 -0.0593  0.7361  0.0559
  122OSM   H13F13005   1.816   5.529   9.168 -0.5956 -1.6829  2.0966
  122OSM   H13G13006   1.876   5.618   9.307  1.5037  0.1637 -1.9323
  122OSM   C14F13007   1.757   5.730   9.164  0.3396 -0.5316  0.3629
  122OSM   H14F13008   1.758   5.825   9.222 -0.1102  0.5061 -1.2685
  122OSM   H14G13009   1.656   5.715   9.119  0.7130  1.5814 -1.3358
  122OSM   C15F13010   1.860   5.751   9.056 -0.0721  0.4896 -0.0592
  122OSM   H15F13011   1.864   5.664   8.987  1.3819  2.3006 -2.4137
  122OSM   H15G13012   1.961   5.747   9.104 -0.2350 -1.2851  0.2244
  122OSM   C16F13013   1.829   5.868   8.974  0.5220  0.0633  0.2405
  122OSM   H16F13014   1.810   5.954   9.041  2.6707 -0.0228  1.0379
  122OSM   H16G13015   1.737   5.833   8.922  0.9055  0.4911 -0.7611
  122OSM   C17F13016   1.949   5.911   8.880  0.2743  0.3137  0.0470
  122OSM   H17F13017   2.047   5.917   8.931  1.1970 -1.0542 -1.4527
  122OSM   H17G13018   1.930   6.007   8.828  0.9309  1.2274  1.4427
  122OSM   C18F13019   1.970   5.808   8.763  0.5613 -0.7060 -0.8852
  122OSM   H18F13020   2.059   5.825   8.699 -0.3195  0.4692 -1.8519
  122OSM   H18G13021   1.876   5.806   8.704  0.1718 -1.3031 -0.2560
  122OSM   H18H13022   1.981   5.706   8.806 -0.1811 -0.1109  0.8164
  123OSM      N13023   3.428   4.199   5.875 -0.2118 -0.2837  0.4351
  123OSM    C1513024   3.379   4.079   5.941 -0.3939  0.1345  0.2197
  123OSM   H15A13025   3.297   4.034   5.887 -0.6169  1.7186 -0.8460
  123OSM   H15B13026   3.352   4.098   6.043  4.1140  0.6334  1.5547
  123OSM   H15C13027   3.462   4.011   5.953 -0.5256 -0.1806 -0.5520
  123OSM    C1413028   3.514   4.162   5.755 -0.0344 -0.2873  0.1679
  123OSM   H14A13029   3.528   4.252   5.696 -2.3831  0.3141  0.4401
  123OSM   H14B13030   3.465   4.090   5.692  0.0559 -0.8526  0.7310
  123OSM   H14C13031   3.609   4.118   5.781  0.7489  1.3854  0.2725
  123OSM    C1313032   3.315   4.271   5.817  0.5432 -0.1160  0.5746
  123OSM   H13A13033   3.247   4.299   5.896 -0.3120  1.8118 -0.7744
  123OSM   H13B13034   3.274   4.208   5.739 -0.1957  0.6150  0.3517
  123OSM   H13C13035   3.356   4.357   5.767  1.4852 -1.1470 -0.4678
  123OSM    C1213036   3.514   4.285   5.965 -0.0114 -0.1672  0.2853
  123OSM   H12A13037   3.455   4.326   6.046  2.1314  1.0176  1.3385
  123OSM   H12B13038   3.558   4.367   5.911  0.5473  0.2700  1.3739
  123OSM    C1113039   3.641   4.217   6.039 -0.0189  0.5975 -0.0560
  123OSM   H11A13040   3.722   4.194   5.968  0.2882 -0.6679  0.6824
  123OSM   H11B13041   3.606   4.122   6.085  1.5447 -0.4733 -1.0095
  123OSM      P13042   3.740   4.454   6.088  0.0261  0.2128  0.5039
  123OSM    O1313043   3.871   4.431   6.016 -0.1755  0.3411  0.2394
  123OSM    O1413044   3.636   4.519   6.003  0.6501  0.1839  0.5212
  123OSM    O1113045   3.764   4.531   6.222  0.2276  0.4517 -0.0057
  123OSM    O1213046   3.687   4.313   6.136  0.3016 -0.4851 -0.3367
  123OSM    C1S13047   3.756   4.445   6.339 -0.4729  0.5266 -0.2477
  123OSM    H1S13048   3.840   4.373   6.331  1.1993  2.2345  0.9871
  123OSM    H1T13049   3.657   4.403   6.367 -0.1533 -0.3876 -0.4575
  123OSM     NF13050   3.800   4.451   6.581  0.3031 -0.2624  0.4402
  123OSM    HNF13051   3.727   4.476   6.643 -0.8806 -1.8764 -0.2193
  123OSM    C2S13052   3.809   4.531   6.459  0.1510 -0.3023 -0.2250
  123OSM    H2S13053   3.915   4.556   6.437 -0.0352  1.0660  0.3523
  123OSM    C3S13054   3.741   4.675   6.474 -0.3837  0.2369  0.3537
  123OSM    H3S13055   3.631   4.666   6.486 -0.2819 -1.4740  0.2432
  123OSM     O313056   3.758   4.758   6.357 -0.6702 -0.3115  0.3436
  123OSM    HO313057   3.796   4.691   6.299  0.7322  0.2494  0.5668
  123OSM    C4S13058   3.783   4.748   6.600 -0.1872 -0.2205  0.1427
  123OSM    H4S13059   3.732   4.712   6.690  1.1598 -2.1823  0.1814
  123OSM    C5S13060   3.883   4.844   6.614  0.5102  0.3787  0.2268
  123OSM    H5S13061   3.926   4.880   6.520 -1.8905  1.1355 -0.6561
  123OSM    C6S13062   3.920   4.919   6.737  0.0883 -0.5468 -0.5569
  123OSM    H6S13063   3.907   5.028   6.717  0.7221 -0.6960 -1.9234
  123OSM    H6T13064   4.027   4.904   6.762  0.2890  0.7620 -0.5624
  123OSM    C7S13065   3.826   4.875   6.856  0.1019  0.0592 -0.0551
  123OSM    H7S13066   3.852   4.769   6.873 -1.0964 -0.6320 -2.0590
  123OSM    H7T13067   3.717   4.881   6.835  0.4188  0.4027 -1.7825
  123OSM    C8S13068   3.866   4.954   6.981  0.3061 -0.3588  0.4105
  123OSM    H8S13069   3.832   5.058   6.966 -3.0400 -1.6127 -2.1034
  123OSM    H8T13070   3.971   4.944   7.015  0.1526  0.4405  1.1479
  123OSM    C9S13071   3.771   4.907   7.093 -0.4130  0.3561 -0.1200
  123OSM    H9S13072   3.810   4.811   7.133 -0.3408 -0.2836 -1.6642
  123OSM    H9T13073   3.667   4.882   7.063 -0.3693 -0.5940  0.4696
  123OSM   C10S13074   3.769   5.011   7.205  0.1395 -0.3348 -0.2698
  123OSM   H10S13075   3.732   5.110   7.170  2.2659  0.4701 -0.3613
  123OSM   H10T13076   3.876   5.015   7.233 -0.7053  0.7890  3.3448
  123OSM   C11S13077   3.682   4.956   7.328 -0.5175  0.0945  0.3868
  123OSM   H11S13078   3.581   4.933   7.288  0.2667 -3.1647  0.0726
  123OSM   H11T13079   3.683   5.043   7.398 -0.0393 -0.0527  0.5651
  123OSM   C12S13080   3.750   4.831   7.412  0.7013 -0.4006  0.1977
  123OSM   H12S13081   3.849   4.872   7.443  0.6845  0.4527 -0.7817
  123OSM   H12T13082   3.761   4.740   7.350 -0.2958 -0.5187  0.1781
  123OSM   C13S13083   3.666   4.802   7.528 -0.3132 -0.0402 -0.0922
  123OSM   H13S13084   3.567   4.764   7.494 -1.5638  1.5124  1.6484
  123OSM   H13T13085   3.630   4.894   7.578 -0.1696  0.2002 -0.4224
  123OSM   C14S13086   3.723   4.683   7.616  0.0961  0.0196 -0.8820
  123OSM   H14S13087   3.833   4.684   7.635 -0.2583  0.7941  1.4315
  123OSM   H14T13088   3.704   4.587   7.564  0.6497 -1.5443  1.6609
  123OSM   C15S13089   3.657   4.684   7.751 -0.3396  0.8577  0.4632
  123OSM   H15S13090   3.684   4.585   7.793 -2.9921 -0.6107 -0.9828
  123OSM   H15T13091   3.550   4.671   7.724  0.0585  0.8058 -1.2400
  123OSM   C16S13092   3.668   4.810   7.834  0.1709  0.7026  0.2191
  123OSM   H16S13093   3.651   4.906   7.782  1.3917  1.3644  0.9804
  123OSM   H16T13094   3.767   4.819   7.885  0.7535  0.9061 -0.9115
  123OSM   C17S13095   3.549   4.814   7.927 -0.2503  0.4867 -1.0399
  123OSM   H17S13096   3.531   4.711   7.964 -1.0503  0.3748 -1.7194
  123OSM   H17T13097   3.457   4.827   7.866 -1.0444  0.5416  0.1422
  123OSM   C18S13098   3.560   4.912   8.045  0.7131  0.7027 -0.4692
  123OSM   H18S13099   3.642   4.870   8.107 -1.4884 -1.5122  1.1353
  123OSM   H18T13100   3.471   4.913   8.111  1.2528  2.0988  0.2782
  123OSM   H18U13101   3.570   5.018   8.013  1.4394  0.4290 -1.1636
  123OSM    C1F13102   3.885   4.344   6.608 -0.4518 -0.5522 -0.5409
  123OSM     OF13103   3.968   4.310   6.528  0.6150  0.1750  0.8099
  123OSM    C2F13104   3.873   4.277   6.740  0.2829 -0.1717  0.7316
  123OSM    H2F13105   3.767   4.249   6.756 -0.4531  1.4359 -0.9740
  123OSM    H2G13106   3.892   4.364   6.807 -1.2992  2.5580 -2.1150
  123OSM    C3F13107   3.971   4.156   6.772 -0.3536  0.9585 -0.5201
  123OSM    H3F13108   4.078   4.175   6.746  0.4049 -3.1265 -1.1314
  123OSM    H3G13109   3.951   4.070   6.703  2.9419 -0.4223  0.0352
  123OSM    C4F13110   3.963   4.127   6.918  0.6665  0.1022  0.2015
  123OSM    H4F13111   3.865   4.084   6.946  0.3392 -0.2841 -1.4674
  123OSM    H4G13112   3.973   4.222   6.976 -0.9606  0.4382 -0.0371
  123OSM    C5F13113   4.084   4.033   6.954  0.5599 -0.7699 -0.1618
  123OSM    H5F13114   4.174   4.092   6.927 -1.0138  1.7108 -0.3959
  123OSM    H5G13115   4.073   3.945   6.887 -1.9995  0.0477 -0.9641
  123OSM    C6F13116   4.108   4.010   7.099 -0.1863 -0.4634  0.1522
  123OSM    H6F13117   4.196   3.942   7.104  1.2259  1.3062  0.4771
  123OSM    H6G13118   4.021   3.965   7.151 -1.5178  1.2036 -0.5181
  123OSM    C7F13119   4.162   4.134   7.174 -1.1649  1.1338 -0.6003
  123OSM    H7F13120   4.085   4.210   7.201 -1.7687  0.4425 -0.3509
  123OSM    H7G13121   4.240   4.183   7.112  0.8183  0.7638  1.4616
  123OSM    C8F13122   4.241   4.106   7.308 -0.2673 -0.5998  0.0000
  123OSM    H8F13123   4.304   4.195   7.326  1.7111 -2.1122  0.9517
  123OSM    H8G13124   4.315   4.024   7.298  0.5589 -0.5104  3.8827
  123OSM    C9F13125   4.164   4.065   7.434  0.0765 -0.2302  0.4205
  123OSM    H9F13126   4.061   4.036   7.407  0.3309  0.3575 -1.3684
  123OSM   C10F13127   4.214   4.052   7.559 -0.5582 -0.1165 -0.5268
  123OSM   H10F13128   4.144   4.019   7.637  0.4793  1.4054  1.1242
  123OSM   C11F13129   4.359   4.087   7.591  0.8030 -0.1796  0.1603
  123OSM   H11F13130   4.395   4.156   7.512 -0.1561 -0.0920 -0.2155
  123OSM   H11G13131   4.425   3.999   7.576  0.5497 -0.3413 -0.0143
  123OSM   C12F13132   4.380   4.145   7.731  0.8221 -0.1676  0.0811
  123OSM   H12F13133   4.310   4.231   7.739 -0.3737 -1.0096 -0.9245
  123OSM   H12G13134   4.487   4.168   7.748  1.5684 -1.4144 -2.3347
  123OSM   C13F13135   4.325   4.036   7.828  0.0062  0.4258  0.0523
  123OSM   H13F13136   4.378   3.941   7.806  2.8224  2.0641 -0.8030
  123OSM   H13G13137   4.215   4.023   7.836  0.1388 -1.1629 -0.3074
  123OSM   C14F13138   4.373   4.065   7.975  0.4501  0.3347  0.4837
  123OSM   H14F13139   4.328   4.158   8.015 -2.9114 -1.3753  1.0690
  123OSM   H14G13140   4.483   4.077   7.972  0.3484  1.3874  0.8473
  123OSM   C15F13141   4.325   3.950   8.072  0.3382 -0.7037 -0.3061
  123OSM   H15F13142   4.351   3.854   8.021 -2.6867 -1.7568 -0.0719
  123OSM   H15G13143   4.217   3.949   8.098  0.4764  0.8034  0.4396
  123OSM   C16F13144   4.401   3.943   8.200 -0.0582  0.3123 -0.3030
  123OSM   H16F13145   4.387   4.031   8.266  2.4047  0.2007  0.4447
  123OSM   H16G13146   4.510   3.938   8.178 -0.3902 -1.3286 -1.7586
  123OSM   C17F13147   4.362   3.820   8.281  0.1908  0.0077 -0.3698
  123OSM   H17F13148   4.373   3.729   8.218  2.1321  0.2305 -0.4155
  123OSM   H17G13149   4.257   3.839   8.313  0.0366  0.2885 -1.0221
  123OSM   C18F13150   4.451   3.788   8.397 -0.1652  0.4369 -0.2134
  123OSM   H18F13151   4.396   3.714   8.460 -1.7062  0.2787 -1.6654
  123OSM   H18G13152   4.468   3.874   8.465  2.5866  0.6350 -1.0241
  123OSM   H18H13153   4.551   3.754   8.363  0.8829  1.0976  2.0165
  124OSM      N13154   5.462   3.662   6.670  1.0840 -0.3014 -0.2591
  124OSM    C1513155   5.362   3.774   6.658  0.5001  0.1212 -0.7114
  124OSM   H15A13156   5.282   3.731   6.599  0.9101 -0.6577 -0.7222
  124OSM   H15B13157   5.400   3.864   6.611  1.3968 -0.2033 -0.6270
  124OSM   H15C13158   5.310   3.792   6.751  0.2637  0.3444 -0.8849
  124OSM    C1413159   5.497   3.616   6.531  0.0494 -0.1282 -0.1804
  124OSM   H14A13160   5.556   3.525   6.531  0.9904  0.4388  1.4329
  124OSM   H14B13161   5.551   3.693   6.477 -0.6406  0.6603  0.2373
  124OSM   H14C13162   5.411   3.595   6.470  1.1799  0.3053 -2.0100
  124OSM    C1313163   5.582   3.716   6.737  0.4108 -0.6756 -0.5037
  124OSM   H13A13164   5.633   3.792   6.679 -1.2525 -0.4411 -1.7324
  124OSM   H13B13165   5.654   3.641   6.766 -0.0922 -1.4984 -1.3035
  124OSM   H13C13166   5.555   3.751   6.835  0.4529 -0.7592 -0.4622
  124OSM    C1213167   5.398   3.550   6.747  0.6548 -0.6360 -0.7204
  124OSM   H12A13168   5.365   3.589   6.842  1.4758 -0.0426 -0.6629
  124OSM   H12B13169   5.469   3.476   6.781  0.4811 -1.1429 -1.4555
  124OSM    C1113170   5.283   3.468   6.677 -0.8909  0.5113 -0.6075
  124OSM   H11A13171   5.237   3.539   6.605  2.0267  0.7847 -2.3444
  124OSM   H11B13172   5.216   3.423   6.754 -0.9588 -0.8603 -1.4521
  124OSM      P13173   5.413   3.239   6.657 -0.2629  0.1892 -0.2877
  124OSM    O1313174   5.421   3.132   6.552 -0.3632 -0.2742 -0.6791
  124OSM    O1413175   5.543   3.283   6.718  0.2706  0.8426 -0.1718
  124OSM    O1113176   5.314   3.207   6.781  0.5609  0.5829 -0.1486
  124OSM    O1213177   5.342   3.364   6.599  0.3224 -0.6154  0.2279
  124OSM    C1S13178   5.364   3.122   6.886  0.2163 -0.2239 -0.1434
  124OSM    H1S13179   5.474   3.117   6.899 -0.0631 -2.5311  2.6555
  124OSM    H1T13180   5.351   3.015   6.858  3.0035 -0.7718  0.3366
  124OSM     NF13181   5.360   3.049   7.112  0.6933  0.1551  0.1735
  124OSM    HNF13182   5.306   2.968   7.136  2.8865 -1.8394 -1.1107
  124OSM    C2S13183   5.296   3.142   7.021  0.3558  0.4090 -0.4469
  124OSM    H2S13184   5.326   3.246   7.045  0.1001  0.8604 -1.9470
  124OSM    C3S13185   5.134   3.134   7.010  0.2116 -1.3463  0.1982
  124OSM    H3S13186   5.112   3.033   6.968 -1.3908 -0.7066 -0.5994
  124OSM     O313187   5.074   3.231   6.917  0.3763  0.0968 -0.1135
  124OSM    HO313188   5.154   3.266   6.879  1.7953  0.8594  3.2204
  124OSM    C4S13189   5.074   3.159   7.145  0.1858  0.0118 -0.1936
  124OSM    H4S13190   5.110   3.248   7.198  2.4311 -1.1397  0.3249
  124OSM    C5S13191   4.984   3.078   7.205  0.4418 -0.2025 -0.2127
  124OSM    H5S13192   4.950   2.989   7.150  1.0239  1.1938 -3.0213
  124OSM    C6S13193   4.920   3.093   7.339  0.4714  0.1225  0.3003
  124OSM    H6S13194   4.812   3.068   7.338  0.3781  0.1705  2.7743
  124OSM    H6T13195   4.923   3.195   7.381 -0.0345 -0.2560  1.2879
  124OSM    C7S13196   4.988   2.992   7.435  0.7120  0.0920  0.4580
  124OSM    H7S13197   5.093   3.028   7.434  0.7527 -0.0195  0.6547
  124OSM    H7T13198   4.992   2.887   7.399  0.6131 -0.4874  2.0390
  124OSM    C8S13199   4.929   3.004   7.585  0.2213  0.5787 -0.5526
  124OSM    H8S13200   4.818   3.000   7.585  0.2170  0.6839 -0.6171
  124OSM    H8T13201   4.951   3.108   7.617  2.3087  0.3460 -1.0628
  124OSM    C9S13202   4.996   2.907   7.685 -0.0964 -0.2435 -0.3554
  124OSM    H9S13203   5.105   2.918   7.672 -0.3785 -0.9195 -4.8691
  124OSM    H9T13204   4.969   2.803   7.657 -1.8813 -0.5337  2.0315
  124OSM   C10S13205   4.945   2.930   7.825  0.1563 -0.4501 -0.2712
  124OSM   H10S13206   4.835   2.949   7.816 -0.2546 -2.0115  1.0551
  124OSM   H10T13207   4.989   3.022   7.869 -3.4473  1.0766  0.5685
  124OSM   C11S13208   4.966   2.810   7.919  0.2629  0.6688  0.1319
  124OSM   H11S13209   5.068   2.768   7.928  0.1380  0.3669  0.1350
  124OSM   H11T13210   4.913   2.719   7.885 -0.0681 -0.5111  3.4478
  124OSM   C12S13211   4.911   2.849   8.057  0.4435 -0.0572 -0.5714
  124OSM   H12S13212   4.806   2.884   8.046  1.1141  2.4160  0.1812
  124OSM   H12T13213   4.970   2.938   8.089  1.4301 -0.4661 -1.1883
  124OSM   C13S13214   4.930   2.727   8.152  0.6433  0.6730 -0.0318
  124OSM   H13S13215   5.034   2.689   8.142 -0.3832 -2.1349 -0.8572
  124OSM   H13T13216   4.861   2.655   8.105  1.9402 -0.6114 -0.0191
  124OSM   C14S13217   4.876   2.741   8.297 -0.1423  0.7540  0.5646
  124OSM   H14S13218   4.893   2.643   8.346  1.7880  0.7114 -0.1075
  124OSM   H14T13219   4.766   2.754   8.300 -0.4635 -0.2625 -2.6900
  124OSM   C15S13220   4.950   2.839   8.389 -0.3383  0.1882  0.1193
  124OSM   H15S13221   4.920   2.945   8.380 -2.4767 -0.5260 -2.3837
  124OSM   H15T13222   5.055   2.830   8.352  0.1249 -0.7226  1.5817
  124OSM   C16S13223   4.944   2.806   8.533  0.6574 -0.1224 -0.2507
  124OSM   H16S13224   5.022   2.858   8.592  0.8280 -1.3185  0.6262
  124OSM   H16T13225   4.964   2.697   8.545  2.3277  0.2106  0.2506
  124OSM   C17S13226   4.802   2.838   8.599  0.1758 -0.8180  0.5416
  124OSM   H17S13227   4.725   2.788   8.536  0.0100  0.0492  0.0357
  124OSM   H17T13228   4.783   2.947   8.585  1.8908 -0.3249  1.7802
  124OSM   C18S13229   4.789   2.802   8.747 -0.0808  0.1285  0.5404
  124OSM   H18S13230   4.806   2.696   8.775 -0.2476 -0.1023 -0.2132
  124OSM   H18T13231   4.686   2.829   8.780  0.1644  2.5421 -0.4274
  124OSM   H18U13232   4.862   2.860   8.808  1.7517 -1.3851 -0.1418
  124OSM    C1F13233   5.487   3.073   7.155 -0.1341  0.5012 -0.4150
  124OSM     OF13234   5.559   3.161   7.104  0.7392 -0.5002  0.0303
  124OSM    C2F13235   5.543   2.980   7.259  0.5834  0.4284 -0.2176
  124OSM    H2F13236   5.653   2.969   7.247  0.4541 -1.2677 -0.0191
  124OSM    H2G13237   5.503   2.878   7.247 -0.1430  0.5875  0.7279
  124OSM    C3F13238   5.501   3.022   7.403  0.4758  0.3278  0.6298
  124OSM    H3F13239   5.399   2.987   7.430  0.1602  0.5593 -0.2391
  124OSM    H3G13240   5.500   3.133   7.406 -1.2275  0.4463 -1.6167
  124OSM    C4F13241   5.591   2.964   7.515 -0.4517 -0.2108 -0.0011
  124OSM    H4F13242   5.693   3.008   7.515  0.1543 -1.4459 -2.4212
  124OSM    H4G13243   5.609   2.855   7.500  0.5371 -0.1651  0.7596
  124OSM    C5F13244   5.535   2.971   7.664 -0.2156  0.3573  0.5416
  124OSM    H5F13245   5.452   3.045   7.666  0.0224  0.7422 -1.5705
  124OSM    H5G13246   5.604   3.008   7.743  0.2574  1.5862 -0.4228
  124OSM    C6F13247   5.483   2.835   7.709  0.1053 -0.2360 -0.9180
  124OSM    H6F13248   5.576   2.777   7.728  0.9074  1.5342  0.8856
  124OSM    H6G13249   5.432   2.784   7.625  0.9630  2.0088 -2.9116
  124OSM    C7F13250   5.387   2.824   7.826 -0.3345 -0.3725 -0.4068
  124OSM    H7F13251   5.376   2.723   7.872  1.7126 -1.0460 -1.2739
  124OSM    H7G13252   5.285   2.852   7.791 -0.0160  2.4179  0.6654
  124OSM    C8F13253   5.416   2.915   7.950 -0.2152 -0.9286  0.7475
  124OSM    H8F13254   5.465   3.012   7.927  1.2918 -1.6772  0.6246
  124OSM    H8G13255   5.506   2.872   7.999  0.6754  0.0834  0.0481
  124OSM    C9F13256   5.304   2.945   8.052  0.1254  0.2148  0.0828
  124OSM    H9F13257   5.218   2.997   8.006 -0.6204 -0.5431  0.5715
  124OSM   C10F13258   5.289   2.897   8.174  0.4899  0.4001 -0.4181
  124OSM   H10F13259   5.199   2.924   8.232  0.3474  1.9024 -1.3035
  124OSM   C11F13260   5.394   2.820   8.258  0.0729  0.5806 -0.2363
  124OSM   H11F13261   5.418   2.872   8.353  2.1962 -1.1318  0.2512
  124OSM   H11G13262   5.493   2.820   8.207  1.8752  0.7645  2.9745
  124OSM   C12F13263   5.366   2.667   8.295  0.6346 -0.6317  0.7561
  124OSM   H12F13264   5.372   2.599   8.208 -3.4253  0.3325 -0.4645
  124OSM   H12G13265   5.262   2.656   8.334  0.6603  0.6533  1.2317
  124OSM   C13F13266   5.468   2.628   8.403 -0.3963 -0.4003 -0.9281
  124OSM   H13F13267   5.464   2.686   8.498  2.8038  0.0932 -0.9854
  124OSM   H13G13268   5.570   2.655   8.368 -0.1633 -2.8297 -2.3102
  124OSM   C14F13269   5.468   2.470   8.415 -0.5549 -0.0799  0.3396
  124OSM   H14F13270   5.471   2.422   8.314 -1.7783 -1.8114  1.0758
  124OSM   H14G13271   5.371   2.442   8.461  0.9091 -2.7419  2.0720
  124OSM   C15F13272   5.586   2.418   8.496 -0.0819 -0.2199  0.0220
  124OSM   H15F13273   5.561   2.408   8.604  0.4868  0.4434  0.2196
  124OSM   H15G13274   5.672   2.487   8.492  2.5189 -3.3194 -3.0423
  124OSM   C16F13275   5.643   2.285   8.436  0.2807  1.1036  0.2122
  124OSM   H16F13276   5.738   2.258   8.487 -0.7965 -0.2942  1.5582
  124OSM   H16G13277   5.669   2.303   8.329  0.4163 -0.1745  0.0139
  124OSM   C17F13278   5.557   2.161   8.461 -0.2259 -0.0662  0.9730
  124OSM   H17F13279   5.608   2.074   8.415 -1.5972  0.5014 -1.7975
  124OSM   H17G13280   5.457   2.180   8.417 -0.5310 -1.7487  0.8806
  124OSM   C18F13281   5.552   2.122   8.603 -0.3487 -0.2180 -0.4015
  124OSM   H18F13282   5.505   2.022   8.615  1.4588 -0.8434  2.2260
  124OSM   H18G13283   5.520   2.202   8.673 -3.2966 -1.8978  0.3513
  124OSM   H18H13284   5.654   2.104   8.642 -1.0835 -3.6279  0.2739
  125OSM      N13285   5.633   4.252   5.995 -0.6144 -0.5042 -0.5324
  125OSM    C1513286   5.614   4.271   5.845 -0.2474 -0.3705 -0.4762
  125OSM   H15A13287   5.514   4.309   5.836 -0.1201  0.4208  1.1288
  125OSM   H15B13288   5.625   4.177   5.792  2.3242  0.6141 -1.8297
  125OSM   H15C13289   5.691   4.339   5.810 -0.8992  0.3375 -0.5387
  125OSM    C1413290   5.773   4.200   6.006  0.5874  0.2486  0.1461
  125OSM   H14A13291   5.792   4.117   5.939 -0.2990 -0.0901  0.3018
  125OSM   H14B13292   5.794   4.166   6.106 -0.2556  2.4485  1.1365
  125OSM   H14C13293   5.838   4.283   5.983 -0.6825  1.5229  1.0386
  125OSM    C1313294   5.638   4.387   6.067 -0.7782 -0.2954  0.6439
  125OSM   H13A13295   5.632   4.382   6.175 -1.5079  0.4188  0.6436
  125OSM   H13B13296   5.554   4.443   6.030 -1.5939 -1.9428 -0.0864
  125OSM   H13C13297   5.728   4.442   6.041 -1.3126  0.8930  1.2217
  125OSM    C1213298   5.541   4.159   6.061  0.5851 -0.0355  0.4637
  125OSM   H12A13299   5.579   4.140   6.161 -0.9386  0.6174  1.1921
  125OSM   H12B13300   5.542   4.059   6.019 -0.1400  0.2697 -0.2840
  125OSM    C1113301   5.392   4.211   6.071 -0.1029 -0.5704 -0.2587
  125OSM   H11A13302   5.351   4.211   5.968 -2.7063  0.2847  0.7078
  125OSM   H11B13303   5.398   4.315   6.109  1.0794 -0.2492 -1.2658
  125OSM      P13304   5.258   4.168   6.297 -0.2931 -0.0317 -0.0259
  125OSM    O1313305   5.153   4.266   6.281 -0.7634  0.6276 -0.0478
  125OSM    O1413306   5.217   4.042   6.361  0.0600 -0.0145  0.0688
  125OSM    O1113307   5.385   4.231   6.372  0.7506  0.2052  0.2882
  125OSM    O1213308   5.314   4.129   6.155 -1.1462  1.1085 -0.1315
  125OSM    C1S13309   5.385   4.357   6.446  0.2161  0.1818 -0.3981
  125OSM    H1S13310   5.285   4.405   6.437 -1.6151 -3.3961 -1.1054
  125OSM    H1T13311   5.457   4.424   6.396  1.2065 -2.5263 -2.9324
  125OSM     NF13312   5.412   4.459   6.680 -0.4360  0.1325  0.2514
  125OSM    HNF13313   5.502   4.487   6.713  1.2623 -2.0902 -2.1142
  125OSM    C2S13314   5.421   4.335   6.604 -0.1190 -0.1336  0.4153
  125OSM    H2S13315   5.334   4.277   6.641 -1.5404  0.7318 -1.4305
  125OSM    C3S13316   5.544   4.251   6.640 -0.5081  0.2681  0.2271
  125OSM    H3S13317   5.637   4.304   6.614 -1.3664  1.6055 -0.2027
  125OSM     O313318   5.551   4.133   6.561 -0.5196  0.3426 -0.0573
  125OSM    HO313319   5.499   4.164   6.486 -1.4363  0.5792  0.6547
  125OSM    C4S13320   5.549   4.205   6.789 -0.2281  0.2009  0.0901
  125OSM    H4S13321   5.511   4.103   6.808 -0.6923  0.3052 -0.2897
  125OSM    C5S13322   5.620   4.275   6.881 -0.7695 -0.0199  0.6960
  125OSM    H5S13323   5.672   4.367   6.849  1.3431 -0.9549  1.2518
  125OSM    C6S13324   5.640   4.235   7.022  0.6766  0.1476 -0.4245
  125OSM    H6S13325   5.627   4.326   7.084  2.0322 -0.8110  1.3515
  125OSM    H6T13326   5.740   4.193   7.043 -0.6405 -1.8432  2.4852
  125OSM    C7S13327   5.536   4.129   7.067 -0.0123  0.3336 -0.0397
  125OSM    H7S13328   5.550   4.033   7.013 -2.0643 -0.0274 -0.0004
  125OSM    H7T13329   5.433   4.157   7.036 -0.4862 -1.0293  0.2379
  125OSM    C8S13330   5.561   4.097   7.210 -0.0400  0.0218 -0.4802
  125OSM    H8S13331   5.572   4.196   7.260  0.5842 -1.0070  1.5544
  125OSM    H8T13332   5.652   4.035   7.227 -0.0703 -0.6181 -2.4669
  125OSM    C9S13333   5.440   4.033   7.278  0.2530 -0.4924  0.1341
  125OSM    H9S13334   5.423   3.939   7.222  0.4996  0.0353 -0.8670
  125OSM    H9T13335   5.354   4.103   7.274 -1.2084 -2.0596  2.1836
  125OSM   C10S13336   5.480   3.987   7.424  0.4877  0.2821 -0.3974
  125OSM   H10S13337   5.576   3.933   7.435  0.3417  0.1432  0.2488
  125OSM   H10T13338   5.397   3.918   7.451  0.2577  0.1567 -1.3719
  125OSM   C11S13339   5.486   4.102   7.533  0.3645 -0.5958 -0.1655
  125OSM   H11S13340   5.401   4.171   7.517  0.8268  0.2595  0.9193
  125OSM   H11T13341   5.580   4.157   7.513 -0.1606  0.2536 -0.3511
  125OSM   C12S13342   5.480   4.062   7.680  0.2410 -0.1235 -0.3662
  125OSM   H12S13343   5.447   4.155   7.730 -1.9717 -0.4664 -1.0910
  125OSM   H12T13344   5.574   4.025   7.727 -0.6889 -0.1996  1.5485
  125OSM   C13S13345   5.361   3.969   7.724 -0.1364  0.5377 -0.6306
  125OSM   H13S13346   5.375   3.872   7.672 -0.8617  0.4118 -0.5927
  125OSM   H13T13347   5.267   4.020   7.696 -0.6553  0.8272  1.4534
  125OSM   C14S13348   5.369   3.956   7.883  0.3167  0.2782 -0.3200
  125OSM   H14S13349   5.355   4.056   7.931  1.6010  1.1042 -1.5792
  125OSM   H14T13350   5.464   3.907   7.913 -0.5088 -0.9489  0.3932
  125OSM   C15S13351   5.257   3.873   7.962  0.4420  0.0057  0.3357
  125OSM   H15S13352   5.266   3.763   7.957 -1.1573 -0.1691  0.9355
  125OSM   H15T13353   5.164   3.895   7.906 -1.1445  0.1135  2.8713
  125OSM   C16S13354   5.244   3.917   8.106  0.8330 -0.2130 -0.4473
  125OSM   H16S13355   5.175   3.842   8.150  2.2327  0.2681  2.8366
  125OSM   H16T13356   5.205   4.021   8.105  0.5756 -0.0556  4.1354
  125OSM   C17S13357   5.361   3.901   8.199  0.3255  0.4555 -0.7868
  125OSM   H17S13358   5.406   3.800   8.189  0.4611  0.3965  0.3097
  125OSM   H17T13359   5.313   3.914   8.299 -1.4571  1.8175 -1.7621
  125OSM   C18S13360   5.476   4.007   8.185 -0.4495  0.2346 -0.7860
  125OSM   H18S13361   5.527   4.003   8.086  0.9457  0.4589 -0.1009
  125OSM   H18T13362   5.562   3.986   8.252 -0.2176 -0.4194 -1.2751
  125OSM   H18U13363   5.437   4.109   8.206  0.7511  0.4262  0.6889
  125OSM    C1F13364   5.302   4.537   6.683 -0.6035 -0.2808  0.2569
  125OSM     OF13365   5.201   4.489   6.647 -0.6569 -0.0575  0.1248
  125OSM    C2F13366   5.308   4.676   6.731 -0.5059 -0.0412 -0.6763
  125OSM    H2F13367   5.306   4.748   6.647  0.7345  0.0726 -0.6286
  125OSM    H2G13368   5.410   4.677   6.775 -0.2741 -1.6894 -1.1355
  125OSM    C3F13369   5.210   4.708   6.848  0.7006  0.3221  0.3342
  125OSM    H3F13370   5.106   4.680   6.820 -0.2033  1.8306  1.9602
  125OSM    H3G13371   5.212   4.819   6.853  0.3762  0.2951  1.4929
  125OSM    C4F13372   5.243   4.641   6.983  0.7565 -0.2818 -0.9076
  125OSM    H4F13373   5.353   4.650   6.996  0.5804  0.5210  0.2881
  125OSM    H4G13374   5.212   4.535   6.993  0.7496 -0.0884  2.1478
  125OSM    C5F13375   5.180   4.716   7.102 -0.1158  0.3940 -0.3042
  125OSM    H5F13376   5.073   4.692   7.119  0.3311 -2.1546 -0.6613
  125OSM    H5G13377   5.182   4.826   7.083  1.1015  0.5418  0.5606
  125OSM    C6F13378   5.258   4.701   7.237 -0.3109  0.6103  0.1150
  125OSM    H6F13379   5.221   4.785   7.299 -0.8256  3.0513 -3.2065
  125OSM    H6G13380   5.368   4.699   7.227 -0.2261 -2.1501  0.7783
  125OSM    C7F13381   5.205   4.572   7.309 -0.4832  0.2723  0.6061
  125OSM    H7F13382   5.188   4.494   7.232  0.0906 -1.0870  1.8022
  125OSM    H7G13383   5.108   4.600   7.356 -1.0681  1.4627 -1.2240
  125OSM    C8F13384   5.306   4.513   7.411 -0.3104  0.2594 -0.3064
  125OSM    H8F13385   5.390   4.460   7.361  1.7385  2.9127  0.1090
  125OSM    H8G13386   5.259   4.430   7.469 -0.7695  1.3787  0.9799
  125OSM    C9F13387   5.358   4.621   7.505 -0.1568  0.7850 -0.2603
  125OSM    H9F13388   5.446   4.677   7.470  0.2028 -0.9165 -2.2364
  125OSM   C10F13389   5.307   4.650   7.629 -0.0514  0.1642  0.6815
  125OSM   H10F13390   5.360   4.730   7.682  0.6035 -0.5943  1.2005
  125OSM   C11F13391   5.182   4.596   7.688 -0.5934 -0.1400 -0.0507
  125OSM   H11F13392   5.105   4.561   7.616 -3.7685  2.5989  1.7041
  125OSM   H11G13393   5.124   4.672   7.745 -0.7770 -0.7210  0.5439
  125OSM   C12F13394   5.212   4.491   7.791 -0.4887  0.4303  0.3003
  125OSM   H12F13395   5.266   4.397   7.766 -1.0029  0.6835 -1.9420
  125OSM   H12G13396   5.117   4.455   7.834 -0.4757  0.9661  0.7903
  125OSM   C13F13397   5.276   4.549   7.920  0.7218  0.2683  0.1241
  125OSM   H13F13398   5.377   4.593   7.903  2.0330 -2.4619  0.3265
  125OSM   H13G13399   5.311   4.466   7.985  1.7655  2.5636  2.6782
  125OSM   C14F13400   5.178   4.646   7.996 -0.6428 -0.0773 -0.3744
  125OSM   H14F13401   5.088   4.588   8.026  0.9232 -1.3800  2.1178
  125OSM   H14G13402   5.144   4.733   7.935  0.1631  1.2718  1.0320
  125OSM   C15F13403   5.257   4.709   8.118  0.3575 -0.9438 -0.3187
  125OSM   H15F13404   5.351   4.755   8.082 -0.0716  1.6110  1.5741
  125OSM   H15G13405   5.288   4.629   8.189  1.2926  1.0158  1.5836
  125OSM   C16F13406   5.167   4.802   8.204  0.5228  0.0097 -0.1214
  125OSM   H16F13407   5.113   4.729   8.268  2.6591 -0.5756  1.0925
  125OSM   H16G13408   5.093   4.850   8.135  0.2250 -0.7694 -0.3515
  125OSM   C17F13409   5.247   4.897   8.280  0.2432 -0.2944 -0.1633
  125OSM   H17F13410   5.335   4.923   8.217 -0.3913 -0.7284 -1.2374
  125OSM   H17G13411   5.280   4.850   8.376  1.1329 -0.0173 -0.3197
  125OSM   C18F13412   5.180   5.020   8.324  0.3873 -0.3516  0.2225
  125OSM   H18F13413   5.108   5.012   8.408 -0.1048  2.3687  0.1722
  125OSM   H18G13414   5.128   5.060   8.234  0.9603  0.4287  0.2253
  125OSM   H18H13415   5.249   5.102   8.353 -0.2793  0.7515 -1.1950
  126OSM      N13416   3.315   3.434   6.209 -0.5338 -0.2931  0.5313
  126OSM    C1513417   3.197   3.426   6.120  0.3240  0.4002  0.3511
  126OSM   H15A13418   3.187   3.335   6.063  0.2173  1.2640 -1.0592
  126OSM   H15B13419   3.192   3.505   6.047  0.8692  1.0807  1.0203
  126OSM   H15C13420   3.114   3.446   6.186  0.2818 -0.2586  0.5027
  126OSM    C1413421   3.448   3.414   6.132 -0.5998 -0.1522  0.1873
  126OSM   H14A13422   3.462   3.312   6.100 -0.1416 -0.3492  1.0021
  126OSM   H14B13423   3.532   3.441   6.194 -1.5533 -0.7325  1.7987
  126OSM   H14C13424   3.458   3.475   6.044 -1.2685  0.6322  0.6370
  126OSM    C1313425   3.310   3.571   6.271 -0.9133  0.6782  0.3800
  126OSM   H13A13426   3.400   3.614   6.313 -1.4132  0.6864  1.4877
  126OSM   H13B13427   3.236   3.591   6.347 -1.1805 -0.4805  0.4326
  126OSM   H13C13428   3.292   3.640   6.189 -4.1447 -1.3536 -0.8047
  126OSM    C1213429   3.315   3.335   6.320  0.5086 -0.4503  0.0330
  126OSM   H12A13430   3.413   3.317   6.360  0.3705 -1.2901  0.0149
  126OSM   H12B13431   3.275   3.245   6.275 -1.0974  0.4499 -0.4487
  126OSM    C1113432   3.228   3.374   6.445 -0.2225 -0.0898 -0.3569
  126OSM   H11A13433   3.267   3.470   6.486  2.0355 -0.7992 -0.6801
  126OSM   H11B13434   3.240   3.298   6.525  1.3496  0.2402 -0.2349
  126OSM      P13435   2.989   3.490   6.425  0.0673  0.4588 -0.3673
  126OSM    O1313436   3.051   3.620   6.472 -0.6172  0.4117 -0.6033
  126OSM    O1413437   2.902   3.488   6.304 -0.8423 -0.2744  0.3165
  126OSM    O1113438   2.889   3.438   6.538 -0.9553  0.0597  0.2218
  126OSM    O1213439   3.086   3.365   6.427 -0.0154  0.0835 -0.1719
  126OSM    C1S13440   2.948   3.432   6.677  0.6172  0.0393  0.4319
  126OSM    H1S13441   2.979   3.529   6.722 -0.1225 -0.2007  1.4882
  126OSM    H1T13442   3.036   3.365   6.678  1.6108  1.2534 -0.7978
  126OSM     NF13443   2.905   3.395   6.922 -0.7171 -0.3226 -0.2509
  126OSM    HNF13444   2.978   3.336   6.956 -0.4662  0.3217  0.3663
  126OSM    C2S13445   2.851   3.369   6.786  0.3178  0.0226 -0.0277
  126OSM    H2S13446   2.754   3.422   6.777  0.1700 -0.2566 -0.0901
  126OSM    C3S13447   2.828   3.221   6.751 -0.4199 -0.5539  1.4267
  126OSM    H3S13448   2.927   3.172   6.731 -1.0123 -0.9832 -0.7746
  126OSM     O313449   2.774   3.202   6.621  0.1195 -0.0456 -0.5634
  126OSM    HO313450   2.801   3.282   6.575  0.4861 -0.2420 -0.6864
  126OSM    C4S13451   2.750   3.154   6.862 -0.2324 -0.2145 -0.3065
  126OSM    H4S13452   2.817   3.096   6.927 -0.9965  1.0427  1.7005
  126OSM    C5S13453   2.619   3.163   6.888  0.1138 -0.0517  0.1236
  126OSM    H5S13454   2.563   3.223   6.815 -1.3006  0.1199  1.2856
  126OSM    C6S13455   2.550   3.095   7.002 -0.5644 -0.3233 -0.9914
  126OSM    H6S13456   2.606   3.010   7.047  0.8035  1.7571  1.5006
  126OSM    H6T13457   2.461   3.047   6.955 -1.4632  0.1234  0.1882
  126OSM    C7S13458   2.526   3.199   7.113 -0.5912 -0.1349 -0.3424
  126OSM    H7S13459   2.454   3.149   7.182  1.1856 -1.6319  0.5189
  126OSM    H7T13460   2.468   3.282   7.069  0.7235  0.6282 -0.6861
  126OSM    C8S13461   2.656   3.240   7.194  0.4108 -0.1360  0.2337
  126OSM    H8S13462   2.711   3.303   7.121  0.8344 -0.2821  0.4277
  126OSM    H8T13463   2.720   3.153   7.219 -0.4176 -0.3523  1.7129
  126OSM    C9S13464   2.619   3.327   7.311 -0.2456  0.1791 -0.1940
  126OSM    H9S13465   2.526   3.304   7.369 -0.5085  1.3999 -0.1121
  126OSM    H9T13466   2.598   3.425   7.263 -0.5300 -0.5947 -1.7041
  126OSM   C10S13467   2.731   3.339   7.415  0.3305  0.4730  0.2651
  126OSM   H10S13468   2.831   3.340   7.368  0.3285 -1.9584  0.0822
  126OSM   H10T13469   2.731   3.248   7.479 -0.6856 -0.7457 -1.3830
  126OSM   C11S13470   2.711   3.464   7.505  0.5604 -0.4062  0.1137
  126OSM   H11S13471   2.613   3.441   7.551 -0.1336  0.4006 -0.8852
  126OSM   H11T13472   2.691   3.545   7.431  2.1207 -0.7060 -0.6976
  126OSM   C12S13473   2.814   3.484   7.610  0.0299 -0.6618 -1.1478
  126OSM   H12S13474   2.909   3.508   7.556  0.0882 -0.9892 -1.1892
  126OSM   H12T13475   2.826   3.398   7.678  1.1293 -1.7411 -2.6248
  126OSM   C13S13476   2.765   3.608   7.683  0.1639  0.1851 -0.5662
  126OSM   H13S13477   2.658   3.593   7.709 -0.2470  2.0400 -1.0724
  126OSM   H13T13478   2.753   3.698   7.619 -1.6862 -1.8860 -3.3490
  126OSM   C14S13479   2.835   3.666   7.806  0.4095  0.2960 -0.2920
  126OSM   H14S13480   2.770   3.750   7.839  0.0180 -0.3601  0.6313
  126OSM   H14T13481   2.929   3.705   7.762 -0.3048  1.5213 -0.7937
  126OSM   C15S13482   2.854   3.570   7.921  0.0736 -0.8212  0.3591
  126OSM   H15S13483   2.902   3.480   7.875  1.9257  0.1396  0.2996
  126OSM   H15T13484   2.760   3.547   7.974  0.3643 -4.3557 -0.3994
  126OSM   C16S13485   2.961   3.625   8.016 -0.0270  0.1749 -0.3254
  126OSM   H16S13486   3.052   3.617   7.953  0.2806 -2.0888  0.3305
  126OSM   H16T13487   2.973   3.550   8.096 -1.2176 -0.6828 -0.9080
  126OSM   C17S13488   2.948   3.766   8.072  0.1220  0.4123 -0.3871
  126OSM   H17S13489   2.855   3.754   8.132 -0.0049 -0.1741 -0.6928
  126OSM   H17T13490   2.948   3.848   7.997  0.2150 -0.8275 -1.7826
  126OSM   C18S13491   3.061   3.779   8.180  0.1430  0.5774  0.9300
  126OSM   H18S13492   3.164   3.784   8.140  0.2117  1.7178  1.2142
  126OSM   H18T13493   3.064   3.685   8.240 -2.8283 -0.0403  0.3072
  126OSM   H18U13494   3.037   3.863   8.248 -1.6404  2.8099 -2.1940
  126OSM    C1F13495   2.872   3.508   6.977 -0.6470  0.3612 -0.8615
  126OSM     OF13496   2.812   3.598   6.919 -0.0343  0.3728 -0.9659
  126OSM    C2F13497   2.913   3.520   7.115  0.0639 -0.3218 -0.3170
  126OSM    H2F13498   2.993   3.444   7.132 -0.7330 -1.6808 -2.2122
  126OSM    H2G13499   2.820   3.498   7.173  0.2638 -1.7680 -0.5043
  126OSM    C3F13500   2.972   3.658   7.152  0.0958 -0.1414 -0.6024
  126OSM    H3F13501   2.890   3.733   7.153 -0.1800 -0.4379 -0.1124
  126OSM    H3G13502   3.054   3.697   7.089  0.0033 -0.5414 -0.9809
  126OSM    C4F13503   3.021   3.644   7.300 -0.2504 -0.9317 -0.0524
  126OSM    H4F13504   3.110   3.578   7.312 -0.4627 -0.8087  2.5575
  126OSM    H4G13505   2.931   3.609   7.354 -1.9298  1.7675 -0.9025
  126OSM    C5F13506   3.061   3.786   7.339 -0.4370  0.2826 -0.1655
  126OSM    H5F13507   2.969   3.847   7.340 -0.1783  0.7218 -1.3652
  126OSM    H5G13508   3.128   3.836   7.265  2.0229 -0.6653  1.2960
  126OSM    C6F13509   3.103   3.786   7.490 -1.0861 -0.7121  0.4388
  126OSM    H6F13510   3.035   3.713   7.540  0.0157 -3.8147 -2.2453
  126OSM    H6G13511   3.089   3.891   7.525 -0.1668 -1.1811  2.3528
  126OSM    C7F13512   3.250   3.747   7.533  0.5977  0.3929 -0.2597
  126OSM    H7F13513   3.327   3.816   7.491 -0.4132  1.6521 -0.0940
  126OSM    H7G13514   3.273   3.650   7.484  2.4392  0.8813 -0.4400
  126OSM    C8F13515   3.269   3.737   7.686  0.1216  0.2878  0.2437
  126OSM    H8F13516   3.181   3.679   7.722 -1.5566  0.7980 -2.6784
  126OSM    H8G13517   3.270   3.838   7.732 -1.8871 -0.0386  1.1340
  126OSM    C9F13518   3.397   3.659   7.723  0.4434 -0.4737 -0.1261
  126OSM    H9F13519   3.450   3.620   7.635 -0.0851 -1.2758 -0.0935
  126OSM   C10F13520   3.442   3.634   7.845  0.3298  0.6037  0.4210
  126OSM   H10F13521   3.535   3.577   7.859  0.5608  0.8099 -0.2642
  126OSM   C11F13522   3.365   3.671   7.969  0.8562 -0.7189 -0.4871
  126OSM   H11F13523   3.346   3.583   8.033  0.5109 -1.4460 -1.5586
  126OSM   H11G13524   3.260   3.688   7.936  0.8041 -0.0592  0.0113
  126OSM   C12F13525   3.422   3.784   8.051 -0.3142 -0.2530 -0.5361
  126OSM   H12F13526   3.527   3.772   8.086  0.5160  0.6868 -2.5319
  126OSM   H12G13527   3.371   3.794   8.149  2.3290  0.9064  0.8267
  126OSM   C13F13528   3.431   3.923   7.981  0.1234  0.5732  0.4088
  126OSM   H13F13529   3.328   3.941   7.942 -0.0396 -0.9579  0.0764
  126OSM   H13G13530   3.503   3.907   7.898  0.3745 -0.9685  0.8879
  126OSM   C14F13531   3.486   4.027   8.073 -0.2954 -0.3068  0.2984
  126OSM   H14F13532   3.489   4.124   8.018  1.0620 -0.1361  0.6408
  126OSM   H14G13533   3.591   4.015   8.106  1.1749  0.9903 -3.3559
  126OSM   C15F13534   3.404   4.051   8.196  0.3239 -0.2547  0.3176
  126OSM   H15F13535   3.409   3.960   8.259  2.3150  1.4511  2.8360
  126OSM   H15G13536   3.299   4.080   8.174 -0.3434 -2.2324  0.7209
  126OSM   C16F13537   3.446   4.170   8.290  0.0651 -0.5671 -0.1622
  126OSM   H16F13538   3.541   4.139   8.337  2.7604  0.5330 -4.3541
  126OSM   H16G13539   3.371   4.180   8.371  0.4160  0.0633  0.0942
  126OSM   C17F13540   3.478   4.305   8.209  0.7509  0.9211  0.3473
  126OSM   H17F13541   3.395   4.323   8.137  1.9934 -1.3315 -1.7938
  126OSM   H17G13542   3.572   4.297   8.150  0.6792  0.3763  0.3085
  126OSM   C18F13543   3.497   4.425   8.301 -0.5281 -0.2270 -0.1431
  126OSM   H18F13544   3.412   4.435   8.373 -0.3462  3.3468 -0.2524
  126OSM   H18G13545   3.494   4.524   8.251  1.5300  0.1345  0.3667
  126OSM   H18H13546   3.597   4.416   8.347 -1.3235  2.3687  2.4353
  127OSM      N13547   2.416   0.173   5.728 -0.0583 -0.0994 -0.1205
  127OSM    C1513548   2.387   0.316   5.757  0.2684 -0.1474  0.2983
  127OSM   H15A13549   2.293   0.333   5.707  0.8220 -0.3714 -0.8357
  127OSM   H15B13550   2.458   0.383   5.711  0.6138 -1.0805 -0.5628
  127OSM   H15C13551   2.373   0.333   5.863  0.1213 -0.7522  0.3766
  127OSM    C1413552   2.441   0.161   5.582  0.2719 -0.1792  0.3846
  127OSM   H14A13553   2.364   0.198   5.516  1.8680  2.1278 -0.2968
  127OSM   H14B13554   2.471   0.060   5.557 -1.0329 -0.6785  0.7756
  127OSM   H14C13555   2.522   0.229   5.561  1.1876 -1.1864  0.5335
  127OSM    C1313556   2.539   0.147   5.810  0.5389 -0.7299 -0.1516
  127OSM   H13A13557   2.511   0.173   5.911 -1.1447 -4.6668  0.5788
  127OSM   H13B13558   2.628   0.201   5.780 -0.4322  0.5196 -0.8580
  127OSM   H13C13559   2.568   0.044   5.800  3.1988 -0.0623 -0.0250
  127OSM    C1213560   2.301   0.084   5.772  0.4838  0.1365  0.4917
  127OSM   H12A13561   2.284   0.096   5.878 -0.4614 -0.8993  0.4666
  127OSM   H12B13562   2.330  -0.020   5.773  1.4098  0.3753  0.1573
  127OSM    C1113563   2.166   0.104   5.699 -0.1993  0.1837 -0.0864
  127OSM   H11A13564   2.106   0.019   5.740 -0.0942  1.4534  2.9435
  127OSM   H11B13565   2.176   0.093   5.589 -1.0295 -0.0222 -0.1492
  127OSM      P13566   2.021   0.241   5.860 -0.0228 -0.2730 -0.2584
  127OSM    O1313567   1.992   0.385   5.877 -0.2758 -0.2148  0.1963
  127OSM    O1413568   1.907   0.144   5.857 -0.4452  0.2399  0.1361
  127OSM    O1113569   2.124   0.201   5.972  0.0580  0.3539 -0.5851
  127OSM    O1213570   2.111   0.228   5.738 -0.0950  0.2642  0.1423
  127OSM    C1S13571   2.091   0.230   6.106 -0.0071  0.0841 -0.3400
  127OSM    H1S13572   2.003   0.164   6.125 -0.9824  1.3477 -0.3736
  127OSM    H1T13573   2.056   0.335   6.116 -0.5295  0.0737 -1.8482
  127OSM     NF13574   2.148   0.194   6.345  0.3681  0.3326  0.4961
  127OSM    HNF13575   2.175   0.268   6.406 -2.1117  0.5183  1.4834
  127OSM    C2S13576   2.198   0.182   6.207  0.1614  0.2753 -0.9367
  127OSM    H2S13577   2.209   0.074   6.180  0.1226  0.3122 -1.1018
  127OSM    C3S13578   2.336   0.257   6.171 -0.4872 -0.3901 -0.0657
  127OSM    H3S13579   2.319   0.367   6.171 -0.2014 -0.3218 -1.6398
  127OSM     O313580   2.386   0.231   6.044  0.1367  0.5802 -0.2508
  127OSM    HO313581   2.303   0.217   5.999 -1.2883 -0.4095  2.4310
  127OSM    C4S13582   2.440   0.226   6.269  0.3428  0.3259 -0.3677
  127OSM    H4S13583   2.446   0.307   6.344  3.3971  0.7592 -0.9592
  127OSM    C5S13584   2.526   0.118   6.268  0.5619  0.5700  0.1061
  127OSM    H5S13585   2.535   0.050   6.182 -0.6191 -1.5537  1.5455
  127OSM    C6S13586   2.640   0.088   6.361  0.5465  0.2911 -0.1105
  127OSM    H6S13587   2.734   0.063   6.307  0.5969 -0.5608  0.3485
  127OSM    H6T13588   2.619  -0.003   6.421 -0.2513 -0.4370 -1.4583
  127OSM    C7S13589   2.670   0.196   6.463  0.6673 -0.1672 -0.7594
  127OSM    H7S13590   2.668   0.295   6.414  1.1063 -0.7404 -1.9604
  127OSM    H7T13591   2.773   0.189   6.504  0.3411 -0.3119  0.0593
  127OSM    C8S13592   2.573   0.203   6.585  0.5174  0.7380 -0.5526
  127OSM    H8S13593   2.534   0.101   6.604  1.7619  0.3108 -0.1623
  127OSM    H8T13594   2.490   0.271   6.558  1.1855  1.1547 -1.5830
  127OSM    C9S13595   2.643   0.242   6.710 -0.3552  0.1968  0.0437
  127OSM    H9S13596   2.672   0.349   6.706 -1.8228  0.5956 -0.5976
  127OSM    H9T13597   2.738   0.188   6.729  0.0533  0.2321 -1.7051
  127OSM   C10S13598   2.565   0.210   6.839  0.5438  0.3004 -0.3618
  127OSM   H10S13599   2.549   0.100   6.841  2.5380 -0.1365 -3.1276
  127OSM   H10T13600   2.467   0.260   6.850  0.7403  0.7582 -0.6562
  127OSM   C11S13601   2.655   0.235   6.966 -0.2274 -0.5562 -0.3581
  127OSM   H11S13602   2.670   0.344   6.981  0.7475 -0.2819 -2.9155
  127OSM   H11T13603   2.759   0.200   6.952 -0.4746 -1.9314  1.0180
  127OSM   C12S13604   2.594   0.179   7.097  0.1281 -0.4003  0.4088
  127OSM   H12S13605   2.603   0.069   7.102  2.9568 -0.1871  1.4419
  127OSM   H12T13606   2.490   0.212   7.119  0.6687  1.4844  0.2891
  127OSM   C13S13607   2.666   0.227   7.221  0.2504 -0.5173 -0.3804
  127OSM   H13S13608   2.655   0.337   7.224  1.1998 -0.3953  3.2028
  127OSM   H13T13609   2.773   0.195   7.224 -0.4711 -3.1455  0.0049
  127OSM   C14S13610   2.598   0.183   7.351 -0.0068  0.1683 -0.4399
  127OSM   H14S13611   2.571   0.076   7.358 -0.8825  0.4538  1.0698
  127OSM   H14T13612   2.500   0.234   7.342  0.1374  0.1282 -2.8541
  127OSM   C15S13613   2.672   0.234   7.477  0.9790  0.6259 -0.5596
  127OSM   H15S13614   2.644   0.339   7.499  1.9135  0.5557  1.0847
  127OSM   H15T13615   2.782   0.224   7.463  1.2250  0.3382  1.3075
  127OSM   C16S13616   2.655   0.148   7.605  0.4387  0.4508  0.7291
  127OSM   H16S13617   2.709   0.051   7.597  1.1826  0.8227  1.1407
  127OSM   H16T13618   2.546   0.138   7.622 -0.0430 -0.4037 -2.2663
  127OSM   C17S13619   2.706   0.226   7.726  0.0242 -0.0993 -0.4731
  127OSM   H17S13620   2.675   0.331   7.745  3.7295  1.1614 -0.4718
  127OSM   H17T13621   2.816   0.229   7.710  0.2842 -1.1144  0.8982
  127OSM   C18S13622   2.659   0.153   7.850 -0.4749 -0.9664  0.0554
  127OSM   H18S13623   2.702   0.200   7.942  1.4936 -0.8469 -0.8799
  127OSM   H18T13624   2.686   0.046   7.852  0.9399 -0.6349  1.4622
  127OSM   H18U13625   2.549   0.166   7.851 -0.3057  0.8448 -0.8680
  127OSM    C1F13626   2.045   0.112   6.380  0.0394 -0.4178  0.7704
  127OSM     OF13627   2.004   0.023   6.308  0.1201 -0.6975  0.1739
  127OSM    C2F13628   1.985   0.150   6.508 -0.0741 -0.6620  0.3629
  127OSM    H2F13629   2.055   0.137   6.594  0.6545 -0.6656 -0.2259
  127OSM    H2G13630   1.896   0.086   6.522 -0.1345 -0.6929 -0.1506
  127OSM    C3F13631   1.935   0.298   6.512  0.4598  0.2251 -0.1615
  127OSM    H3F13632   1.860   0.309   6.430 -0.3768 -0.1087  0.5448
  127OSM    H3G13633   2.009   0.378   6.491 -1.5122  1.7179 -1.9380
  127OSM    C4F13634   1.872   0.339   6.646 -0.6440  0.1574  0.1421
  127OSM    H4F13635   1.837   0.444   6.643  1.6807  1.0681  1.9215
  127OSM    H4G13636   1.955   0.329   6.719  0.5204  0.6403 -1.0768
  127OSM    C5F13637   1.753   0.252   6.692  0.0589  0.1614  0.1367
  127OSM    H5F13638   1.782   0.145   6.691 -1.2501 -0.2218 -1.9298
  127OSM    H5G13639   1.680   0.264   6.609  1.6255 -1.2198 -1.5242
  127OSM    C6F13640   1.690   0.291   6.824 -0.3964  0.1247  0.0634
  127OSM    H6F13641   1.585   0.254   6.822 -1.3677  2.7353 -0.8190
  127OSM    H6G13642   1.692   0.401   6.839 -1.4145  0.2107 -0.3348
  127OSM    C7F13643   1.762   0.236   6.945  0.4254 -0.0240 -0.0691
  127OSM    H7F13644   1.869   0.265   6.938  1.1657 -2.1320  1.4803
  127OSM    H7G13645   1.760   0.125   6.955 -0.3209  0.0928  1.2420
  127OSM    C8F13646   1.704   0.294   7.077  0.2111 -0.7282  0.3155
  127OSM    H8F13647   1.594   0.288   7.089 -0.1784  2.2319 -1.0069
  127OSM    H8G13648   1.708   0.405   7.083 -0.9882 -0.6409 -0.1189
  127OSM    C9F13649   1.772   0.230   7.198 -0.2841  0.5375  0.2935
  127OSM    H9F13650   1.861   0.167   7.179 -0.7948 -0.2797  0.5730
  127OSM   C10F13651   1.723   0.221   7.322 -0.0405 -0.0633  0.4170
  127OSM   H10F13652   1.775   0.157   7.395 -1.1207 -2.2623 -0.6570
  127OSM   C11F13653   1.592   0.278   7.373  0.0655 -0.2544  0.3676
  127OSM   H11F13654   1.512   0.256   7.299  0.8230 -1.8746 -0.0120
  127OSM   H11G13655   1.597   0.389   7.383  1.6969 -0.3635  1.0429
  127OSM   C12F13656   1.564   0.211   7.509 -0.1942 -0.5522 -0.2047
  127OSM   H12F13657   1.638   0.252   7.581  0.8454  1.5001 -2.3274
  127OSM   H12G13658   1.576   0.101   7.496 -0.2602 -0.6444  0.4709
  127OSM   C13F13659   1.422   0.251   7.540 -0.8476 -0.7693  1.2966
  127OSM   H13F13660   1.352   0.189   7.480 -0.6566  1.1428 -1.0642
  127OSM   H13G13661   1.399   0.350   7.495  1.9507 -0.4700  0.3349
  127OSM   C14F13662   1.390   0.266   7.685 -0.0437 -0.4151  0.4690
  127OSM   H14F13663   1.454   0.341   7.737  0.6449  0.5585 -1.6709
  127OSM   H14G13664   1.407   0.165   7.729 -0.3662  0.1668  2.0121
  127OSM   C15F13665   1.243   0.300   7.721 -0.7082 -0.6550  0.7288
  127OSM   H15F13666   1.235   0.277   7.829  0.5245 -1.4434  0.6775
  127OSM   H15G13667   1.158   0.250   7.669 -0.8104  0.2404  0.0174
  127OSM   C16F13668   1.226   0.453   7.698 -0.3812  0.6496 -0.1747
  127OSM   H16F13669   1.181   0.484   7.601 -2.3352  0.6577  0.6963
  127OSM   H16G13670   1.326   0.503   7.697  0.2264 -0.3943 -3.5356
  127OSM   C17F13671   1.144   0.522   7.812  0.4515 -0.1978 -0.0797
  127OSM   H17F13672   1.211   0.505   7.900  2.2130 -0.7625 -1.4638
  127OSM   H17G13673   1.053   0.458   7.817 -0.4377  0.9224 -1.5016
  127OSM   C18F13674   1.110   0.666   7.789 -0.1352 -0.0326 -0.0409
  127OSM   H18F13675   1.036   0.668   7.706  1.6618  1.2583 -1.6755
  127OSM   H18G13676   1.199   0.725   7.759  0.4812 -0.6263  0.5807
  127OSM   H18H13677   1.069   0.719   7.878 -0.5271 -0.2335 -0.0973
  128OSM      N13678   6.491   5.303   6.286 -0.4839 -0.7027  0.1739
  128OSM    C1513679   6.403   5.394   6.369 -0.3937 -0.7174  0.3643
  128OSM   H15A13680   6.318   5.423   6.309 -0.2718 -2.2686 -0.6120
  128OSM   H15B13681   6.442   5.489   6.402 -3.5083  1.1211 -0.8662
  128OSM   H15C13682   6.357   5.346   6.454 -1.4371  2.5004  1.7721
  128OSM    C1413683   6.414   5.177   6.270  0.5705  0.7395 -0.1472
  128OSM   H14A13684   6.483   5.105   6.227  2.7348  1.7384  1.4432
  128OSM   H14B13685   6.322   5.181   6.215 -0.1172  0.3989  0.9424
  128OSM   H14C13686   6.379   5.158   6.370  1.3613  0.9528  0.1743
  128OSM    C1313687   6.512   5.360   6.144 -0.2676 -0.1315  0.3187
  128OSM   H13A13688   6.571   5.286   6.091  0.2190  0.0480  0.5981
  128OSM   H13B13689   6.557   5.458   6.152 -0.1305 -0.0888 -0.8909
  128OSM   H13C13690   6.420   5.376   6.090  0.3728 -1.6471 -1.3125
  128OSM    C1213691   6.619   5.280   6.366  0.2184  0.7962 -0.4253
  128OSM   H12A13692   6.596   5.236   6.462  1.9358  1.5398  0.3875
  128OSM   H12B13693   6.660   5.375   6.399  1.7469  0.4670 -1.2535
  128OSM    C1113694   6.734   5.206   6.297  0.8332  0.1489 -0.7200
  128OSM   H11A13695   6.819   5.220   6.367 -1.3498  4.6747  1.4654
  128OSM   H11B13696   6.750   5.260   6.202 -0.3598 -0.1320 -1.0922
  128OSM      P13697   6.714   4.964   6.376  0.0867 -0.2799  0.0230
  128OSM    O1313698   6.631   4.855   6.334 -0.4372  0.7782  0.1634
  128OSM    O1413699   6.854   4.948   6.409  0.0181  1.2582  0.0921
  128OSM    O1113700   6.633   5.018   6.491 -0.6039 -0.3463 -0.1726
  128OSM    O1213701   6.691   5.074   6.282  0.2377 -0.4085  0.1362
  128OSM    C1S13702   6.654   4.965   6.625 -0.5861 -0.2719 -0.7201
  128OSM    H1S13703   6.762   4.960   6.652 -0.0486 -0.0476 -2.6058
  128OSM    H1T13704   6.594   4.873   6.638 -1.7582  0.5966  0.2918
  128OSM     NF13705   6.638   5.025   6.870  0.0150  0.0045 -0.2941
  128OSM    HNF13706   6.574   4.973   6.926  0.6146  1.7421  2.2098
  128OSM    C2S13707   6.595   5.066   6.735  0.1593 -0.1675 -0.2546
  128OSM    H2S13708   6.643   5.162   6.705 -0.1295 -0.6684 -2.5566
  128OSM    C3S13709   6.438   5.086   6.719 -0.0629 -0.2967 -0.7103
  128OSM    H3S13710   6.378   4.996   6.741 -0.4241  0.3531  1.2006
  128OSM     O313711   6.396   5.119   6.591 -0.0098 -0.2036  0.2241
  128OSM    HO313712   6.475   5.092   6.544  1.0033 -0.4090  1.9478
  128OSM    C4S13713   6.398   5.182   6.828  0.1614  0.3854  0.0433
  128OSM    H4S13714   6.484   5.250   6.839 -0.1625  0.8325 -0.1499
  128OSM    C5S13715   6.288   5.185   6.903 -0.4744 -0.2422 -0.6705
  128OSM    H5S13716   6.206   5.111   6.896  1.2910 -2.2882 -0.6460
  128OSM    C6S13717   6.278   5.291   7.010 -0.2727  1.1213 -0.1932
  128OSM    H6S13718   6.181   5.342   6.994 -2.1283 -2.6227 -2.0980
  128OSM    H6T13719   6.360   5.363   6.993 -1.0432  2.3548  1.1528
  128OSM    C7S13720   6.285   5.235   7.156 -0.5346  0.6485  0.8083
  128OSM    H7S13721   6.383   5.185   7.172 -1.2728 -0.6319  1.4534
  128OSM    H7T13722   6.208   5.157   7.173  1.3416 -1.6037 -0.5095
  128OSM    C8S13723   6.267   5.344   7.262  0.6679 -0.7536 -0.2195
  128OSM    H8S13724   6.173   5.397   7.234 -0.1292 -1.1845  1.4758
  128OSM    H8T13725   6.352   5.415   7.248 -1.5034  1.9040 -0.9957
  128OSM    C9S13726   6.265   5.304   7.412  0.2621 -0.0020  0.2923
  128OSM    H9S13727   6.193   5.220   7.426 -0.3124  0.3247 -0.5921
  128OSM    H9T13728   6.220   5.384   7.474 -1.2675 -1.5411  1.2739
  128OSM   C10S13729   6.404   5.258   7.455 -0.1616  0.2277 -0.1193
  128OSM   H10S13730   6.465   5.341   7.413 -1.7994  1.0678 -0.9232
  128OSM   H10T13731   6.431   5.164   7.403 -3.5485 -0.7271 -0.3691
  128OSM   C11S13732   6.424   5.247   7.604 -0.2734 -0.6004 -0.3602
  128OSM   H11S13733   6.385   5.334   7.662  0.1058 -0.7388  0.1131
  128OSM   H11T13734   6.532   5.231   7.627 -0.3748  1.3003  1.8207
  128OSM   C12S13735   6.357   5.130   7.679  0.5904  0.2402 -0.4332
  128OSM   H12S13736   6.370   5.041   7.613 -1.3818  0.9987 -1.9634
  128OSM   H12T13737   6.246   5.135   7.678  0.5190 -0.1726 -3.3279
  128OSM   C13S13738   6.400   5.124   7.828  0.1989 -0.4399  0.2460
  128OSM   H13S13739   6.508   5.148   7.838 -0.2096  0.5760  3.0332
  128OSM   H13T13740   6.413   5.019   7.862  0.0993 -0.7263 -0.5704
  128OSM   C14S13741   6.320   5.212   7.930 -0.3686 -0.0993  0.2177
  128OSM   H14S13742   6.211   5.195   7.918 -0.3952 -0.8206  1.3255
  128OSM   H14T13743   6.339   5.316   7.895  0.8685 -0.7603 -1.1444
  128OSM   C15S13744   6.373   5.200   8.075  0.2032 -0.6183 -0.0845
  128OSM   H15S13745   6.397   5.304   8.104  0.6634 -0.4651 -0.9776
  128OSM   H15T13746   6.463   5.138   8.095 -0.2702 -1.4177 -0.3758
  128OSM   C16S13747   6.250   5.157   8.160 -0.0098  0.3276 -0.3906
  128OSM   H16S13748   6.243   5.047   8.142  0.5451  0.4222 -1.2166
  128OSM   H16T13749   6.163   5.214   8.121 -2.2716 -1.5271  1.6414
  128OSM   C17S13750   6.259   5.202   8.299 -0.1078 -0.2030  0.0776
  128OSM   H17S13751   6.287   5.310   8.299 -0.0029 -0.2296 -0.1529
  128OSM   H17T13752   6.334   5.148   8.361  1.6759  2.2289  0.1934
  128OSM   C18S13753   6.130   5.189   8.377 -0.0231  0.1891  0.4967
  128OSM   H18S13754   6.052   5.243   8.319  2.2302  1.2168 -1.8071
  128OSM   H18T13755   6.148   5.221   8.482  0.6335 -0.4033  0.5684
  128OSM   H18U13756   6.104   5.082   8.371 -1.0874  0.5197 -2.9188
  128OSM    C1F13757   6.761   5.037   6.914  0.0041  0.8530  0.3566
  128OSM     OF13758   6.852   5.066   6.838 -0.3906  0.1696 -0.1192
  128OSM    C2F13759   6.792   4.996   7.057  0.5595 -0.1734  0.7720
  128OSM    H2F13760   6.891   4.947   7.072 -0.7366 -2.7373  1.5378
  128OSM    H2G13761   6.712   4.926   7.088 -1.7459  2.0437  0.2224
  128OSM    C3F13762   6.772   5.124   7.146 -0.1830 -0.5274 -0.2979
  128OSM    H3F13763   6.665   5.154   7.139 -0.7393 -2.2268  0.4559
  128OSM    H3G13764   6.852   5.191   7.106  1.5974 -2.1191  0.4642
  128OSM    C4F13765   6.799   5.110   7.295 -0.1438 -0.4509  0.4991
  128OSM    H4F13766   6.906   5.085   7.309 -0.0124 -1.0258 -1.2778
  128OSM    H4G13767   6.732   5.033   7.340 -1.8798  0.8668  0.2767
  128OSM    C5F13768   6.780   5.243   7.377 -0.1055 -0.0194 -0.0439
  128OSM    H5F13769   6.672   5.267   7.385  0.4049  2.0886  1.5120
  128OSM    H5G13770   6.817   5.337   7.330  0.5470 -1.0607 -1.6853
  128OSM    C6F13771   6.845   5.234   7.514  0.1482  0.0392 -0.0748
  128OSM    H6F13772   6.825   5.332   7.562  2.4418  1.0653 -1.0562
  128OSM    H6G13773   6.955   5.228   7.521 -0.0684 -4.0489  2.9197
  128OSM    C7F13774   6.807   5.107   7.587  0.1691  0.5385 -0.0691
  128OSM    H7F13775   6.844   5.018   7.532  0.1203  1.2654 -1.2978
  128OSM    H7G13776   6.700   5.100   7.615 -0.0346  0.3199 -0.8791
  128OSM    C8F13777   6.890   5.104   7.723  1.1599 -0.0858 -0.0823
  128OSM    H8F13778   6.877   5.193   7.788  1.3593 -0.9420  1.1566
  128OSM    H8G13779   6.999   5.112   7.702  1.3844 -3.5770 -0.8176
  128OSM    C9F13780   6.863   4.974   7.800 -0.7269  0.6748 -0.6366
  128OSM    H9F13781   6.853   4.882   7.742 -1.9329  1.0151 -1.0092
  128OSM   C10F13782   6.841   4.953   7.934  0.0547 -0.1610  0.4681
  128OSM   H10F13783   6.827   4.849   7.968  1.2024 -0.5410 -0.1627
  128OSM   C11F13784   6.834   5.048   8.048 -0.9814  0.3846 -0.1064
  128OSM   H11F13785   6.747   5.022   8.111  0.0459 -0.3541  1.0624
  128OSM   H11G13786   6.819   5.150   8.007 -1.6483 -0.1708 -1.2835
  128OSM   C12F13787   6.959   5.022   8.139 -0.1185  0.0703  0.2703
  128OSM   H12F13788   6.987   4.917   8.161  2.5667  0.3573 -1.3580
  128OSM   H12G13789   6.929   5.063   8.238 -0.2681  0.0106  0.2508
  128OSM   C13F13790   7.086   5.089   8.087 -0.1543  0.0435 -0.3949
  128OSM   H13F13791   7.056   5.195   8.071 -0.0623  0.0424 -0.5812
  128OSM   H13G13792   7.114   5.042   7.990  1.8708  1.6730 -0.6604
  128OSM   C14F13793   7.203   5.087   8.187  0.2466  0.5514 -0.9194
  128OSM   H14F13794   7.286   5.135   8.130  1.8016  1.2945  1.7680
  128OSM   H14G13795   7.238   4.983   8.201 -0.7429  0.2159 -0.9020
  128OSM   C15F13796   7.166   5.154   8.322 -0.2846  0.1761  0.0377
  128OSM   H15F13797   7.115   5.070   8.375 -0.2219  0.1767  0.0989
  128OSM   H15G13798   7.106   5.246   8.304  1.0504  1.4398  1.6983
  128OSM   C16F13799   7.290   5.187   8.406 -0.2068 -0.0933  0.0995
  128OSM   H16F13800   7.266   5.214   8.511 -1.5042  2.6750 -0.7965
  128OSM   H16G13801   7.350   5.261   8.348 -2.7342  0.8424 -1.4874
  128OSM   C17F13802   7.394   5.073   8.428 -0.4647  0.3311  0.3411
  128OSM   H17F13803   7.443   5.051   8.330 -0.3239 -0.1884  0.5299
  128OSM   H17G13804   7.339   4.982   8.457 -0.6757 -0.4521 -2.2121
  128OSM   C18F13805   7.499   5.125   8.523 -1.0602  0.2963 -0.8518
  128OSM   H18F13806   7.555   5.038   8.561  2.9735  3.1764  0.4707
  128OSM   H18G13807   7.464   5.182   8.612 -2.0513 -0.9147 -0.4414
  128OSM   H18H13808   7.589   5.172   8.479  0.5948 -1.5270  0.4163
  129OSM      N13809   1.617   1.747   6.244  0.2876  0.1406  0.5047
  129OSM    C1513810   1.759   1.781   6.279 -0.4058 -0.9468 -0.1555
  129OSM   H15A13811   1.802   1.704   6.341  0.2601  1.0025  1.9313
  129OSM   H15B13812   1.758   1.875   6.333 -0.2218 -1.4753  0.7933
  129OSM   H15C13813   1.831   1.794   6.200 -0.0100  0.6041  0.4270
  129OSM    C1413814   1.534   1.745   6.370  0.1892  0.3124  0.8807
  129OSM   H14A13815   1.569   1.671   6.441 -0.5117 -0.1889  0.7218
  129OSM   H14B13816   1.433   1.710   6.354  1.3127 -3.2480  0.4887
  129OSM   H14C13817   1.546   1.842   6.415 -0.2141  0.9194 -0.2840
  129OSM    C1313818   1.559   1.855   6.160 -0.4021 -0.3961 -0.2607
  129OSM   H13A13819   1.623   1.870   6.074 -0.3748 -2.4787 -0.6540
  129OSM   H13B13820   1.561   1.947   6.218  0.6652  0.7022 -1.9430
  129OSM   H13C13821   1.459   1.834   6.126 -0.2370 -0.3887 -0.7536
  129OSM    C1213822   1.618   1.610   6.174 -0.2910 -0.3500 -0.1437
  129OSM   H12A13823   1.673   1.623   6.082 -2.3059  0.1266 -1.3439
  129OSM   H12B13824   1.516   1.585   6.150 -1.1449  1.6306  1.1535
  129OSM    C1113825   1.680   1.492   6.250  0.5325 -0.1017 -0.0527
  129OSM   H11A13826   1.630   1.397   6.218 -1.0271  0.8241 -0.4813
  129OSM   H11B13827   1.657   1.509   6.357 -0.8824  2.0272 -0.6339
  129OSM      P13828   1.901   1.350   6.234 -0.1242  0.1125 -0.1231
  129OSM    O1313829   1.827   1.260   6.143  0.2789 -0.3984 -0.7454
  129OSM    O1413830   2.040   1.384   6.196 -0.4572 -0.1567 -0.1848
  129OSM    O1113831   1.882   1.311   6.386  0.1684 -0.3392  0.3744
  129OSM    O1213832   1.826   1.487   6.234 -0.6682  0.1490  0.2127
  129OSM    C1S13833   1.961   1.193   6.428 -0.2534  0.4466  0.2582
  129OSM    H1S13834   2.071   1.201   6.418 -0.3025 -0.4531 -1.3187
  129OSM    H1T13835   1.924   1.107   6.368  0.9434 -1.3304  1.9535
  129OSM     NF13836   2.029   1.067   6.615  0.0788  0.2734 -0.0182
  129OSM    HNF13837   1.998   0.973   6.623 -0.8969  0.4102 -1.6764
  129OSM    C2S13838   1.932   1.166   6.577  0.4387  0.4076  0.5166
  129OSM    H2S13839   1.959   1.258   6.633 -2.1556 -0.7511  4.0403
  129OSM    C3S13840   1.775   1.139   6.605  0.9315 -0.3106 -0.2594
  129OSM    H3S13841   1.744   1.054   6.541  0.0204 -0.8886  0.9060
  129OSM     O313842   1.694   1.252   6.577  0.2561 -0.1184  0.1332
  129OSM    HO313843   1.733   1.283   6.495  0.6469 -2.7260 -0.7476
  129OSM    C4S13844   1.755   1.102   6.753 -0.1908 -0.0180  0.3844
  129OSM    H4S13845   1.704   1.008   6.780  1.5849 -1.2429 -0.2953
  129OSM    C5S13846   1.794   1.178   6.863 -0.0102  0.7198  0.6058
  129OSM    H5S13847   1.832   1.280   6.848 -0.0997  0.6676 -0.0162
  129OSM    C6S13848   1.776   1.131   7.005  0.2852  0.1848  0.1834
  129OSM    H6S13849   1.700   1.051   7.014 -0.8745  1.4281  2.1882
  129OSM    H6T13850   1.736   1.218   7.061  1.1032 -0.5220  1.9511
  129OSM    C7S13851   1.912   1.092   7.062 -0.8065 -0.1067  0.5357
  129OSM    H7S13852   1.993   1.167   7.048 -0.7418 -0.4558 -1.2307
  129OSM    H7T13853   1.949   1.001   7.010 -1.0364 -1.2698  2.3341
  129OSM    C8S13854   1.905   1.059   7.208 -0.0097 -1.0676  0.0487
  129OSM    H8S13855   1.843   0.968   7.221 -0.7688 -0.6089 -0.2986
  129OSM    H8T13856   1.852   1.143   7.258  1.7715  0.5146 -0.6080
  129OSM    C9S13857   2.040   1.034   7.276 -0.0910 -0.3202 -0.1973
  129OSM    H9S13858   2.105   1.112   7.230 -0.1773 -0.3418 -0.3579
  129OSM    H9T13859   2.080   0.940   7.232  0.3714  0.9688 -2.7377
  129OSM   C10S13860   2.035   1.044   7.428 -0.4533 -0.4584  0.0537
  129OSM   H10S13861   1.972   0.964   7.472  1.7169 -1.6157  1.2191
  129OSM   H10T13862   2.001   1.144   7.460 -0.4666 -0.8536  1.3152
  129OSM   C11S13863   2.173   1.032   7.499 -0.5570 -0.4379  0.6794
  129OSM   H11S13864   2.237   1.120   7.480  1.4508 -1.9755 -0.0629
  129OSM   H11T13865   2.216   0.939   7.454 -2.0905 -1.0310  0.3722
  129OSM   C12S13866   2.148   1.001   7.647 -0.4738 -0.0802 -0.9930
  129OSM   H12S13867   2.077   0.917   7.663  1.2822 -1.3907  0.4935
  129OSM   H12T13868   2.097   1.094   7.679 -1.3188 -0.2830 -1.7120
  129OSM   C13S13869   2.284   0.965   7.717  0.2962 -0.0807  0.0935
  129OSM   H13S13870   2.366   1.038   7.698 -1.2362  2.6650  2.9748
  129OSM   H13T13871   2.317   0.869   7.672  0.2966  0.5614 -1.3310
  129OSM   C14S13872   2.263   0.935   7.860  0.3348  0.0853 -0.0425
  129OSM   H14S13873   2.344   0.875   7.907  0.7977  0.8698  0.1718
  129OSM   H14T13874   2.172   0.873   7.871  0.9662 -0.9645 -0.5421
  129OSM   C15S13875   2.247   1.064   7.940  0.4233 -0.1580 -0.5649
  129OSM   H15S13876   2.162   1.123   7.900  1.3280  1.4599 -0.1723
  129OSM   H15T13877   2.336   1.130   7.936 -0.5576  1.1535 -1.6436
  129OSM   C16S13878   2.228   1.030   8.083 -0.1455 -0.0700 -0.7208
  129OSM   H16S13879   2.321   0.985   8.124 -1.0264  0.3588  1.9200
  129OSM   H16T13880   2.141   0.961   8.088 -0.6761  0.5688 -1.0159
  129OSM   C17S13881   2.187   1.162   8.151 -0.1689 -0.0545  0.0950
  129OSM   H17S13882   2.128   1.226   8.082 -1.1451 -0.4034  0.5977
  129OSM   H17T13883   2.279   1.224   8.162 -0.2363  0.3060 -1.2449
  129OSM   C18S13884   2.110   1.144   8.286  0.4121 -0.3447  0.8910
  129OSM   H18S13885   2.185   1.122   8.365 -0.3544 -1.0538  1.4305
  129OSM   H18T13886   2.035   1.063   8.285 -0.5675  0.4710  2.8211
  129OSM   H18U13887   2.061   1.241   8.311 -1.5633 -0.7670 -1.0134
  129OSM    C1F13888   2.162   1.095   6.637 -0.5024  0.1451  0.4154
  129OSM     OF13889   2.218   1.203   6.617  0.0282 -0.5862 -0.0239
  129OSM    C2F13890   2.238   0.972   6.669 -0.5008 -0.1971  0.2363
  129OSM    H2F13891   2.332   0.981   6.609 -0.9130  2.7168 -0.1174
  129OSM    H2G13892   2.181   0.886   6.629 -1.7181  1.3183 -1.4399
  129OSM    C3F13893   2.287   0.965   6.818  0.3757 -0.4886 -0.3453
  129OSM    H3F13894   2.317   0.861   6.842 -1.8723 -0.9551  0.7251
  129OSM    H3G13895   2.200   0.984   6.885 -0.5748 -2.6891 -0.8747
  129OSM    C4F13896   2.410   1.059   6.843  0.5050  0.8935  0.3884
  129OSM    H4F13897   2.377   1.162   6.819 -3.0942  0.4157  2.5664
  129OSM    H4G13898   2.493   1.025   6.777  0.2406  1.5316 -0.2867
  129OSM    C5F13899   2.458   1.052   6.993  0.7312  0.2361  0.6329
  129OSM    H5F13900   2.569   1.045   6.993  0.8142 -1.6368 -3.6737
  129OSM    H5G13901   2.428   0.954   7.035  1.0941  0.0684  0.5096
  129OSM    C6F13902   2.403   1.162   7.081 -0.3332 -0.1487 -0.3277
  129OSM    H6F13903   2.303   1.133   7.119  0.0688 -1.6900 -0.4041
  129OSM    H6G13904   2.387   1.255   7.022 -2.2093 -0.0160  0.3365
  129OSM    C7F13905   2.510   1.199   7.190 -0.6508  0.3946 -0.1053
  129OSM    H7F13906   2.600   1.246   7.144 -0.4418  1.5867  1.4226
  129OSM    H7G13907   2.541   1.105   7.240 -1.0900  0.4469  0.2760
  129OSM    C8F13908   2.457   1.308   7.289 -0.1586 -0.1329 -0.1774
  129OSM    H8F13909   2.374   1.266   7.348 -0.3102  2.5274  1.6827
  129OSM    H8G13910   2.416   1.383   7.218  0.8890 -0.6726 -1.4153
  129OSM    C9F13911   2.566   1.369   7.377 -0.2134  0.4075 -0.0418
  129OSM    H9F13912   2.628   1.443   7.323  0.8316 -0.3581  0.0720
  129OSM   C10F13913   2.611   1.327   7.500 -0.0257 -0.2663  0.3537
  129OSM   H10F13914   2.697   1.375   7.549 -0.6220  1.8311 -0.5623
  129OSM   C11F13915   2.535   1.241   7.591  0.2378  0.3971 -0.5042
  129OSM   H11F13916   2.547   1.133   7.571 -1.3992 -0.1875  1.3961
  129OSM   H11G13917   2.427   1.263   7.576  0.0672 -0.3794 -0.4540
  129OSM   C12F13918   2.579   1.273   7.737 -0.4866 -0.2173 -0.8044
  129OSM   H12F13919   2.689   1.260   7.732 -0.2937 -0.1892  1.8695
  129OSM   H12G13920   2.545   1.192   7.805 -0.1677  0.7014  0.4629
  129OSM   C13F13921   2.539   1.410   7.786 -0.2608 -0.1267  0.0548
  129OSM   H13F13922   2.430   1.415   7.808 -0.5065  0.7063 -1.2138
  129OSM   H13G13923   2.560   1.494   7.717 -0.3065  0.3997  0.6720
  129OSM   C14F13924   2.605   1.464   7.913 -0.2151 -0.6444  0.5273
  129OSM   H14F13925   2.707   1.499   7.883 -0.0367  0.0814  1.9099
  129OSM   H14G13926   2.613   1.379   7.984  0.4711  0.2244  1.5274
  129OSM   C15F13927   2.535   1.582   7.983  0.4705  0.5085  0.0943
  129OSM   H15F13928   2.436   1.543   8.013  0.6329  0.6824  0.8913
  129OSM   H15G13929   2.506   1.662   7.911 -0.6247  0.0085 -0.0420
  129OSM   C16F13930   2.597   1.609   8.122 -0.1084  0.2358  0.2757
  129OSM   H16F13931   2.705   1.583   8.118 -0.5928 -2.4353  1.9956
  129OSM   H16G13932   2.560   1.526   8.186  2.1417 -0.8290  0.3025
  129OSM   C17F13933   2.565   1.747   8.180 -0.1574  0.6403  0.3537
  129OSM   H17F13934   2.591   1.748   8.288 -1.2057 -0.7337  0.6477
  129OSM   H17G13935   2.455   1.756   8.165 -0.1146  1.2454  0.3732
  129OSM   C18F13936   2.643   1.855   8.112  0.5150 -0.4634  0.1356
  129OSM   H18F13937   2.752   1.855   8.130  0.0874 -1.1398  3.3405
  129OSM   H18G13938   2.609   1.957   8.139  0.9161 -0.0414 -0.9244
  129OSM   H18H13939   2.623   1.852   8.003 -1.0632 -1.4080  0.4155
  130OSM      N13940   0.355   3.762   6.254 -0.4496  0.5455 -0.2421
  130OSM    C1513941   0.380   3.885   6.326  0.4726 -0.9027  0.3585
  130OSM   H15A13942   0.463   3.938   6.280 -0.0146 -0.2464  0.2214
  130OSM   H15B13943   0.405   3.868   6.429 -0.8049  2.2355  1.2805
  130OSM   H15C13944   0.297   3.954   6.320  0.7820 -0.1616  3.3083
  130OSM    C1413945   0.474   3.678   6.283 -0.0712  0.4765  0.0835
  130OSM   H14A13946   0.490   3.599   6.211  1.7293 -0.0391  0.9982
  130OSM   H14B13947   0.481   3.644   6.385  1.2553 -2.7437 -0.9559
  130OSM   H14C13948   0.557   3.745   6.272 -0.8470  1.4371 -0.0719
  130OSM    C1313949   0.246   3.684   6.312  0.5804 -0.2477 -0.1484
  130OSM   H13A13950   0.237   3.593   6.254  1.5266 -1.1353  1.0181
  130OSM   H13B13951   0.156   3.743   6.313  2.1123  2.2884  2.2140
  130OSM   H13C13952   0.260   3.640   6.410 -0.7270 -1.0550 -0.2946
  130OSM    C1213953   0.336   3.794   6.107  0.4504  0.5886  0.0734
  130OSM   H12A13954   0.372   3.709   6.051 -0.3410  1.1292 -1.3103
  130OSM   H12B13955   0.410   3.871   6.086  0.2904  1.0919  1.2858
  130OSM    C1113956   0.193   3.844   6.056 -0.2563  0.0605  0.2712
  130OSM   H11A13957   0.121   3.765   6.085  1.3321 -1.8145 -0.6379
  130OSM   H11B13958   0.193   3.857   5.946  1.5140  0.2616  0.2655
  130OSM      P13959   0.032   4.017   6.186 -0.3833 -0.1169  0.5953
  130OSM    O1313960  -0.013   4.146   6.127  0.6682  0.2395 -0.1960
  130OSM    O1413961  -0.068   3.910   6.204  0.3042  0.2357  0.3337
  130OSM    O1113962   0.104   4.045   6.326  0.2487  0.4418 -0.8261
  130OSM    O1213963   0.158   3.967   6.107 -0.0550 -0.5688 -0.0185
  130OSM    C1S13964   0.162   4.175   6.350 -0.4280 -0.1291  0.1826
  130OSM    H1S13965   0.140   4.255   6.277  2.1903 -0.9716 -1.6864
  130OSM    H1T13966   0.273   4.167   6.350 -0.3132  1.1311  0.8683
  130OSM     NF13967   0.185   4.354   6.512  0.6248  0.2266  0.0994
  130OSM    HNF13968   0.278   4.361   6.547  0.5801  0.6134  0.1407
  130OSM    C2S13969   0.114   4.217   6.496 -0.5778 -0.1150 -0.1775
  130OSM    H2S13970   0.003   4.223   6.498 -0.6311 -0.6750  2.4049
  130OSM    C3S13971   0.158   4.111   6.600 -0.0972  0.0727  0.5235
  130OSM    H3S13972   0.256   4.068   6.568 -0.9028 -1.3292 -0.1491
  130OSM     O313973   0.068   4.005   6.614  0.1476  0.3571 -0.4597
  130OSM    HO313974   0.046   3.988   6.522 -0.8416 -1.4323  0.0548
  130OSM    C4S13975   0.167   4.182   6.729 -0.0365 -0.0098  0.9682
  130OSM    H4S13976   0.070   4.189   6.781 -1.6510 -0.5440 -1.7512
  130OSM    C5S13977   0.282   4.211   6.786 -0.0303 -0.1594  0.5222
  130OSM    H5S13978   0.377   4.202   6.731  0.6390  0.6110  1.5067
  130OSM    C6S13979   0.294   4.259   6.924 -0.0968 -0.6666 -0.3702
  130OSM    H6S13980   0.197   4.281   6.974  0.1690  1.7844 -0.8158
  130OSM    H6T13981   0.341   4.359   6.930 -0.1432 -0.7261  1.8634
  130OSM    C7S13982   0.347   4.147   7.013 -0.4176  0.7573 -0.5836
  130OSM    H7S13983   0.437   4.097   6.971  1.2140  0.2402  3.1254
  130OSM    H7T13984   0.275   4.064   7.026 -1.3720  1.5032 -0.9834
  130OSM    C8S13985   0.376   4.195   7.160 -0.2169  0.5314 -0.4070
  130OSM    H8S13986   0.305   4.274   7.192  0.5360  1.2675 -0.5137
  130OSM    H8T13987   0.473   4.248   7.154  2.9370 -3.9698  3.2839
  130OSM    C9S13988   0.383   4.088   7.273  0.6341  0.6073  0.0587
  130OSM    H9S13989   0.454   4.005   7.256  0.2683 -0.2058  2.2117
  130OSM    H9T13990   0.285   4.037   7.277  1.1524 -0.5319 -1.1016
  130OSM   C10S13991   0.411   4.152   7.407  0.2338  0.1599 -0.3797
  130OSM   H10S13992   0.338   4.231   7.433  2.1054  1.8231  0.0690
  130OSM   H10T13993   0.514   4.192   7.404  0.3676 -0.1791 -0.3875
  130OSM   C11S13994   0.415   4.042   7.512  0.4771 -0.5609 -0.2215
  130OSM   H11S13995   0.481   3.960   7.476  1.8882  1.4015 -2.4381
  130OSM   H11T13996   0.306   4.020   7.514  0.2925  0.1531 -1.4399
  130OSM   C12S13997   0.469   4.102   7.649 -0.3831 -0.0437 -0.1796
  130OSM   H12S13998   0.420   4.201   7.659 -0.0160  0.0141  1.1563
  130OSM   H12T13999   0.579   4.116   7.639 -0.3615  1.1467  1.3973
  130OSM   C13S14000   0.432   4.013   7.768  0.8426  0.0133  0.8584
  130OSM   H13S14001   0.499   3.926   7.778 -0.0434 -0.7222  0.5623
  130OSM   H13T14002   0.331   3.969   7.752  1.7364 -1.3344 -1.4767
  130OSM   C14S14003   0.424   4.078   7.909  0.1592 -0.3936  0.0869
  130OSM   H14S14004   0.332   4.138   7.922  0.5263  0.0404  0.7406
  130OSM   H14T14005   0.507   4.151   7.911  1.1937 -1.2337 -3.7755
  130OSM   C15S14006   0.418   3.976   8.025 -0.3513  0.0864  0.2343
  130OSM   H15S14007   0.492   3.896   8.002  1.2175  2.3326 -3.3209
  130OSM   H15T14008   0.330   3.909   8.036 -0.0549  0.0600  3.3705
  130OSM   C16S14009   0.458   4.034   8.170 -0.4039  0.3295  0.1000
  130OSM   H16S14010   0.458   3.957   8.250 -2.2872 -1.1845 -1.2238
  130OSM   H16T14011   0.390   4.113   8.208 -3.0785 -2.7740  2.4040
  130OSM   C17S14012   0.606   4.087   8.173  0.5591  0.5786 -0.2903
  130OSM   H17S14013   0.629   4.161   8.093  1.4411 -0.8399 -1.3902
  130OSM   H17T14014   0.666   3.997   8.152 -0.3899  0.3612 -2.2445
  130OSM   C18S14015   0.652   4.148   8.306  0.0077 -0.1106  0.0266
  130OSM   H18S14016   0.581   4.226   8.339  1.7413  1.2700  0.6546
  130OSM   H18T14017   0.748   4.202   8.292  0.3927 -0.6227  0.6339
  130OSM   H18U14018   0.665   4.067   8.382  0.1196  1.0572  1.2858
  130OSM    C1F14019   0.132   4.461   6.453 -0.1640 -0.0668 -0.3313
  130OSM     OF14020   0.041   4.450   6.379 -0.1993 -0.1800 -0.1630
  130OSM    C2F14021   0.186   4.606   6.493  0.6017  0.4076  0.3039
  130OSM    H2F14022   0.097   4.671   6.512 -0.3085 -0.7485  0.0535
  130OSM    H2G14023   0.239   4.639   6.401  0.2616 -1.1924 -0.4897
  130OSM    C3F14024   0.285   4.623   6.618  0.3037 -0.7228 -0.3314
  130OSM    H3F14025   0.325   4.726   6.608 -0.3555 -0.1671  2.0929
  130OSM    H3G14026   0.378   4.563   6.624  0.6448 -0.0466  2.1282
  130OSM    C4F14027   0.212   4.608   6.756  0.0950  0.2456  0.3734
  130OSM    H4F14028   0.191   4.503   6.785 -0.6438  0.7705  1.8162
  130OSM    H4G14029   0.113   4.659   6.748 -0.3352 -0.1993  2.4134
  130OSM    C5F14030   0.288   4.669   6.869 -0.4547 -0.1768  0.3002
  130OSM    H5F14031   0.305   4.776   6.845  2.2269 -0.7031 -0.5215
  130OSM    H5G14032   0.387   4.619   6.866 -0.1124  0.5167 -0.5861
  130OSM    C6F14033   0.230   4.644   7.008 -0.5097 -0.3386 -0.3763
  130OSM    H6F14034   0.222   4.535   7.030 -0.4174 -0.0824  1.0379
  130OSM    H6G14035   0.126   4.679   7.024 -1.1130 -2.5403  0.9668
  130OSM    C7F14036   0.328   4.701   7.109 -0.3831 -0.1897  0.0769
  130OSM    H7F14037   0.363   4.797   7.064 -1.0425 -0.5671 -1.2923
  130OSM    H7G14038   0.419   4.638   7.113 -1.0753 -1.1736  2.7668
  130OSM    C8F14039   0.269   4.726   7.248 -0.1880 -0.9586  0.3475
  130OSM    H8F14040   0.196   4.809   7.233  2.1873  1.6689  2.2352
  130OSM    H8G14041   0.358   4.769   7.299  0.0659  2.4769 -2.5456
  130OSM    C9F14042   0.209   4.598   7.303  0.7314  0.7645 -0.4000
  130OSM    H9F14043   0.125   4.555   7.245  1.8780 -1.1539 -0.7205
  130OSM   C10F14044   0.249   4.529   7.410 -0.2300  0.2570 -0.7738
  130OSM   H10F14045   0.198   4.438   7.443 -0.6276  0.2454 -1.4139
  130OSM   C11F14046   0.375   4.568   7.494  0.9327  0.6570  0.0665
  130OSM   H11F14047   0.449   4.634   7.445  1.8719 -1.0076 -0.8506
  130OSM   H11G14048   0.434   4.476   7.516 -0.1331 -0.0160  0.1800
  130OSM   C12F14049   0.335   4.626   7.639  0.1657 -0.3782  0.1707
  130OSM   H12F14050   0.284   4.724   7.625 -0.3736 -0.8102 -1.0344
  130OSM   H12G14051   0.434   4.624   7.690  0.0685 -0.7166  0.3463
  130OSM   C13F14052   0.249   4.531   7.716  0.2711  0.3604  0.2474
  130OSM   H13F14053   0.299   4.432   7.711  1.2449  0.7745  1.2966
  130OSM   H13G14054   0.148   4.528   7.670  0.2854  0.4375  0.2105
  130OSM   C14F14055   0.229   4.567   7.863  0.1178  0.7404 -0.4397
  130OSM   H14F14056   0.156   4.650   7.869 -1.6429 -0.7569 -0.1620
  130OSM   H14G14057   0.323   4.592   7.916 -0.5372  2.4402 -0.0200
  130OSM   C15F14058   0.159   4.447   7.946  0.6261 -1.0340 -0.2987
  130OSM   H15F14059   0.222   4.355   7.942  3.1630  0.5443  1.1355
  130OSM   H15G14060   0.060   4.421   7.900  0.6929 -0.5424 -0.7252
  130OSM   C16F14061   0.122   4.505   8.086 -0.1206  1.0178 -0.6461
  130OSM   H16F14062   0.083   4.607   8.065  0.2977  1.5400  1.0109
  130OSM   H16G14063   0.205   4.513   8.159 -1.3063 -1.2067  1.0420
  130OSM   C17F14064   0.005   4.432   8.161 -0.4248 -0.3558 -0.0300
  130OSM   H17F14065  -0.080   4.442   8.090  0.7229  0.7074 -1.3150
  130OSM   H17G14066  -0.022   4.484   8.255 -0.1032  1.2189 -0.7762
  130OSM   C18F14067   0.021   4.279   8.204 -0.1394 -0.4926 -0.0680
  130OSM   H18F14068   0.028   4.206   8.121 -1.1912 -1.7856  0.9260
  130OSM   H18G14069  -0.072   4.252   8.259 -1.1206  1.0603 -0.9204
  130OSM   H18H14070   0.101   4.271   8.281  0.5212  2.0404 -0.4263
  131OSM      N14071   2.263   1.181   6.037  0.5637 -0.5754 -0.2068
  131OSM    C1514072   2.353   1.302   6.067 -0.0220 -0.0254  0.2536
  131OSM   H15A14073   2.434   1.257   6.123  0.3249  0.0325 -0.2021
  131OSM   H15B14074   2.306   1.372   6.134  0.0060  1.4227 -1.2021
  131OSM   H15C14075   2.390   1.346   5.976  2.3013 -2.5702 -0.1816
  131OSM    C1414076   2.161   1.222   5.945  0.5861 -0.6550  0.0640
  131OSM   H14A14077   2.093   1.140   5.929  2.0581 -1.4571 -2.8468
  131OSM   H14B14078   2.209   1.244   5.851 -2.7720 -0.5257 -1.8010
  131OSM   H14C14079   2.112   1.314   5.974  2.5209  0.2229  0.6977
  131OSM    C1314080   2.335   1.080   5.966  0.1518  0.1115  0.0480
  131OSM   H13A14081   2.276   0.997   5.929  0.7419 -0.2938 -0.0014
  131OSM   H13B14082   2.415   1.042   6.028  0.6886 -0.7176 -1.1113
  131OSM   H13C14083   2.383   1.117   5.876  1.0803  3.0026  1.6142
  131OSM    C1214084   2.203   1.137   6.166  0.4695 -0.0251 -0.7474
  131OSM   H12A14085   2.142   1.053   6.137  0.9402  0.0670 -2.0740
  131OSM   H12B14086   2.132   1.209   6.202 -0.1501 -1.1263  0.2952
  131OSM    C1114087   2.305   1.098   6.283 -0.0892 -0.5676 -0.5413
  131OSM   H11A14088   2.250   1.082   6.379  1.3270 -0.1694  0.3692
  131OSM   H11B14089   2.369   1.187   6.300 -1.6192  0.1287  2.3633
  131OSM      P14090   2.324   0.838   6.256 -0.0587 -0.0823 -0.2327
  131OSM    O1314091   2.211   0.847   6.353 -0.1264 -0.2897  0.3942
  131OSM    O1414092   2.291   0.809   6.113  0.0544 -0.3762 -0.1693
  131OSM    O1114093   2.442   0.734   6.317  0.6313 -0.1725  0.3343
  131OSM    O1214094   2.394   0.983   6.262  0.7296 -0.1522 -0.4598
  131OSM    C1S14095   2.493   0.765   6.443  0.4982  0.5564  0.2160
  131OSM    H1S14096   2.417   0.780   6.523 -1.4749 -0.8984 -1.2870
  131OSM    H1T14097   2.567   0.847   6.445  1.2204 -0.0719 -0.2858
  131OSM     NF14098   2.618   0.665   6.632 -0.7449  0.8162 -0.2425
  131OSM    HNF14099   2.705   0.711   6.648  0.6264 -1.3231 -1.1954
  131OSM    C2S14100   2.576   0.640   6.495  0.7269 -0.2953  0.1058
  131OSM    H2S14101   2.530   0.539   6.487  2.3560 -1.1131  0.7442
  131OSM    C3S14102   2.693   0.613   6.396  0.4311 -0.1247 -0.4676
  131OSM    H3S14103   2.739   0.711   6.375 -0.2201  0.1835 -0.4879
  131OSM     O314104   2.662   0.573   6.265 -0.0620 -0.1416  0.2154
  131OSM    HO314105   2.578   0.617   6.247  0.1672  0.1680 -0.1053
  131OSM    C4S14106   2.791   0.519   6.459 -0.6366 -0.0230  0.0563
  131OSM    H4S14107   2.745   0.447   6.527  1.2259 -1.4097 -0.0620
  131OSM    C5S14108   2.925   0.535   6.471 -0.4602 -0.3262 -0.1854
  131OSM    H5S14109   2.969   0.632   6.447 -0.5703 -0.9804 -3.4633
  131OSM    C6S14110   3.014   0.449   6.559 -0.9130  0.4154  0.8023
  131OSM    H6S14111   3.106   0.423   6.501 -1.3482 -0.7996  0.6195
  131OSM    H6T14112   2.959   0.353   6.572 -1.4614  0.3423 -1.5628
  131OSM    C7S14113   3.046   0.497   6.695  0.5882 -0.4239 -0.6078
  131OSM    H7S14114   3.087   0.600   6.704 -0.6537  0.0667 -0.2815
  131OSM    H7T14115   3.118   0.431   6.747  0.3606  1.6845  2.6624
  131OSM    C8S14116   2.931   0.508   6.798 -0.1408  0.3979 -0.4147
  131OSM    H8S14117   2.886   0.412   6.830  0.0840  0.6499  0.7002
  131OSM    H8T14118   2.848   0.570   6.759  1.0577  0.1392 -3.6283
  131OSM    C9S14119   2.996   0.576   6.918  0.0215  0.2512 -0.0318
  131OSM    H9S14120   2.966   0.683   6.915  0.9105  0.4939 -2.0684
  131OSM    H9T14121   3.107   0.570   6.908 -0.0976 -0.4040 -1.1259
  131OSM   C10S14122   2.950   0.506   7.051  0.2870  0.5136  0.2785
  131OSM   H10S14123   2.993   0.404   7.054  0.7355  0.6996  0.2693
  131OSM   H10T14124   2.840   0.486   7.049  0.7394 -2.4039 -2.4258
  131OSM   C11S14125   3.002   0.569   7.188 -0.1591 -0.8174  0.1734
  131OSM   H11S14126   2.979   0.677   7.193 -0.7535 -0.9576  0.5249
  131OSM   H11T14127   3.112   0.559   7.194 -0.0847  0.1519  0.5448
  131OSM   C12S14128   2.937   0.497   7.310  0.1746  0.5642  0.1980
  131OSM   H12S14129   2.983   0.396   7.314  2.5712  1.5709 -0.2123
  131OSM   H12T14130   2.827   0.479   7.300  0.4762 -1.0819 -0.5956
  131OSM   C13S14131   2.982   0.553   7.448  0.4813  0.2193  0.2367
  131OSM   H13S14132   2.914   0.636   7.476 -4.7715 -3.8464  1.3031
  131OSM   H13T14133   3.089   0.580   7.438  0.3664  0.6512  0.1608
  131OSM   C14S14134   2.970   0.446   7.561  0.0985 -0.0902  0.0781
  131OSM   H14S14135   3.020   0.350   7.540 -1.0315 -1.3005  2.5087
  131OSM   H14T14136   2.861   0.422   7.563 -0.0861  0.7085  0.2398
  131OSM   C15S14137   3.026   0.498   7.697 -0.2995 -0.1370  0.0398
  131OSM   H15S14138   2.975   0.589   7.737  0.1620  0.5077 -0.7939
  131OSM   H15T14139   3.132   0.526   7.679 -0.3819  0.5032  0.4936
  131OSM   C16S14140   3.030   0.402   7.823 -0.4571  0.2152 -0.2509
  131OSM   H16S14141   3.071   0.309   7.780 -1.7841 -1.2343  1.4494
  131OSM   H16T14142   2.923   0.396   7.852 -0.7527 -0.4354 -1.4217
  131OSM   C17S14143   3.123   0.453   7.939  0.2565  0.2843 -0.5968
  131OSM   H17S14144   3.076   0.534   7.998 -0.0528  0.6377 -1.3040
  131OSM   H17T14145   3.214   0.500   7.894 -0.5453 -0.6103 -3.3740
  131OSM   C18S14146   3.168   0.350   8.040 -0.3585 -0.1258 -0.0700
  131OSM   H18S14147   3.252   0.284   8.010  2.4281  2.9843  0.2437
  131OSM   H18T14148   3.086   0.278   8.063 -0.4642  0.3187  1.0410
  131OSM   H18U14149   3.205   0.414   8.124 -1.0775  1.5887 -1.0120
  131OSM    C1F14150   2.529   0.655   6.730 -0.1721  0.7566 -0.6041
  131OSM     OF14151   2.414   0.630   6.712  0.3313  0.0665  0.4555
  131OSM    C2F14152   2.577   0.688   6.866  0.3314  1.0607  0.6024
  131OSM    H2F14153   2.593   0.797   6.875  0.1738  1.1121  0.2666
  131OSM    H2G14154   2.679   0.644   6.877 -0.5771 -1.2902  0.1696
  131OSM    C3F14155   2.493   0.620   6.983 -0.1151  0.5221 -0.4051
  131OSM    H3F14156   2.490   0.511   6.960  1.8920 -0.4352  3.0694
  131OSM    H3G14157   2.390   0.661   6.978 -0.0257  0.6651 -1.2712
  131OSM    C4F14158   2.559   0.648   7.119  0.1082  0.6613  0.2502
  131OSM    H4F14159   2.588   0.755   7.127 -0.0353  0.5508  2.8552
  131OSM    H4G14160   2.654   0.590   7.121 -0.9434 -1.0995  0.3231
  131OSM    C5F14161   2.473   0.592   7.221 -0.1163  0.7206  0.2687
  131OSM    H5F14162   2.436   0.489   7.201  0.9232  0.5962 -1.1787
  131OSM    H5G14163   2.378   0.649   7.212 -1.4683 -1.3677  0.6529
  131OSM    C6F14164   2.530   0.620   7.358  0.0906  0.1373 -0.1587
  131OSM    H6F14165   2.539   0.731   7.360 -0.0387  0.1763 -1.2508
  131OSM    H6G14166   2.631   0.576   7.372  0.3890  0.9324  0.3056
  131OSM    C7F14167   2.434   0.580   7.473  0.6877  0.2078 -0.1114
  131OSM    H7F14168   2.413   0.473   7.453  0.6067 -0.3453  2.6273
  131OSM    H7G14169   2.338   0.633   7.455  1.0122  0.9492  0.2946
  131OSM    C8F14170   2.487   0.591   7.614  0.7257 -0.2477 -0.1059
  131OSM    H8F14171   2.519   0.697   7.624 -2.9223  1.2025 -1.9011
  131OSM    H8G14172   2.582   0.533   7.624  0.8172 -0.2139 -0.7726
  131OSM    C9F14173   2.389   0.546   7.724  0.0598 -0.5874  0.4274
  131OSM    H9F14174   2.288   0.516   7.693  0.6113 -0.7054 -1.3567
  131OSM   C10F14175   2.419   0.547   7.856  0.8449 -1.3011  0.0238
  131OSM   H10F14176   2.345   0.503   7.923  0.6599  0.0787  0.7690
  131OSM   C11F14177   2.528   0.598   7.940 -0.4796  0.3103  0.2659
  131OSM   H11F14178   2.501   0.686   8.003  2.9510  1.0228  0.9131
  131OSM   H11G14179   2.611   0.634   7.877 -1.2364 -0.3012 -1.1213
  131OSM   C12F14180   2.589   0.502   8.048  0.8580  0.1156  0.1189
  131OSM   H12F14181   2.602   0.399   8.007  1.0102  0.4633 -0.7129
  131OSM   H12G14182   2.505   0.507   8.121  0.3734  2.9518 -0.5345
  131OSM   C13F14183   2.709   0.568   8.119  0.0307  0.3605  0.8854
  131OSM   H13F14184   2.687   0.676   8.119 -4.7030 -0.3679  0.7395
  131OSM   H13G14185   2.792   0.550   8.048  1.2624  0.6797  2.1950
  131OSM   C14F14186   2.764   0.506   8.245  0.1379  0.6288 -0.5008
  131OSM   H14F14187   2.688   0.499   8.326  0.0843  1.2753 -0.4959
  131OSM   H14G14188   2.844   0.573   8.282 -1.3219  1.5274  1.2147
  131OSM   C15F14189   2.809   0.362   8.222 -0.7907 -0.0367  0.3452
  131OSM   H15F14190   2.893   0.365   8.149  1.2183 -1.8350  2.4233
  131OSM   H15G14191   2.726   0.303   8.177 -1.2827  0.4301  0.6307
  131OSM   C16F14192   2.871   0.298   8.353  0.1402 -0.0915  0.1712
  131OSM   H16F14193   2.790   0.294   8.429  1.4633 -1.3017  1.5943
  131OSM   H16G14194   2.956   0.353   8.397  1.3661 -1.0622 -0.8908
  131OSM   C17F14195   2.918   0.155   8.336 -0.7340  0.8457  1.2221
  131OSM   H17F14196   2.990   0.149   8.251 -1.5843  1.0941  0.4587
  131OSM   H17G14197   2.832   0.094   8.301  0.3909  0.8742 -1.9038
  131OSM   C18F14198   2.985   0.089   8.460  0.1798 -0.1688 -0.6727
  131OSM   H18F14199   2.907   0.065   8.536 -0.5589  0.8117 -1.0937
  131OSM   H18G14200   3.061   0.156   8.506  2.7068 -2.2381 -1.5967
  131OSM   H18H14201   3.038  -0.002   8.426 -0.2656  0.2321 -2.5401
  132OSM      N14202   4.697   1.593   6.173  0.9494 -0.0344  0.4440
  132OSM    C1514203   4.645   1.501   6.272 -0.0762 -0.1802  0.4354
  132OSM   H15A14204   4.606   1.565   6.349  1.7619  0.9357  0.4998
  132OSM   H15B14205   4.719   1.439   6.320  1.0373  0.6264 -0.1824
  132OSM   H15C14206   4.565   1.438   6.236 -0.9429 -0.3398  2.5042
  132OSM    C1414207   4.748   1.509   6.061 -0.1619  0.0930 -0.2127
  132OSM   H14A14208   4.680   1.440   6.015  0.7331  1.0901 -3.2679
  132OSM   H14B14209   4.822   1.439   6.098 -0.2679 -0.3755 -0.8827
  132OSM   H14C14210   4.805   1.566   5.989  0.0757 -1.7213 -1.5101
  132OSM    C1314211   4.593   1.689   6.121  0.1431 -0.8232 -0.4664
  132OSM   H13A14212   4.633   1.748   6.040  0.6152  0.3032  0.5707
  132OSM   H13B14213   4.546   1.749   6.197  1.8181 -0.6732  0.5054
  132OSM   H13C14214   4.504   1.634   6.092 -2.0539  1.6520  1.1446
  132OSM    C1214215   4.815   1.666   6.238 -0.1675  0.9346 -0.5283
  132OSM   H12A14216   4.865   1.738   6.175  3.3098 -0.4991  0.3689
  132OSM   H12B14217   4.887   1.587   6.252 -1.8957 -1.2063 -2.6122
  132OSM    C1114218   4.791   1.751   6.363  0.0819  0.0939 -0.1667
  132OSM   H11A14219   4.890   1.774   6.406 -0.0598  0.3808  0.0117
  132OSM   H11B14220   4.731   1.697   6.440 -1.2499  3.2118  1.1437
  132OSM      P14221   4.797   1.996   6.264 -0.2294  0.2475  0.2185
  132OSM    O1314222   4.887   1.939   6.163 -0.0400 -0.0583 -0.1894
  132OSM    O1414223   4.704   2.100   6.215  0.1785 -0.2074  0.2874
  132OSM    O1114224   4.881   2.046   6.387  0.2598  0.1412 -0.4351
  132OSM    O1214225   4.712   1.869   6.329 -0.5531 -0.1312 -0.4668
  132OSM    C1S14226   4.833   2.105   6.509  0.5007 -0.1803  0.2399
  132OSM    H1S14227   4.724   2.086   6.518  0.3081  0.9085  0.2826
  132OSM    H1T14228   4.858   2.213   6.502 -0.5687  0.0040 -1.0648
  132OSM     NF14229   4.835   2.100   6.759 -0.0048  0.2783  0.6900
  132OSM    HNF14230   4.877   2.182   6.796  1.8243 -0.1708 -0.2664
  132OSM    C2S14231   4.900   2.035   6.636 -0.4299 -0.5471 -0.0264
  132OSM    H2S14232   4.876   1.927   6.634  1.3717 -0.9682 -0.0360
  132OSM    C3S14233   5.053   2.047   6.637  0.1055 -0.1003  0.7265
  132OSM    H3S14234   5.078   2.155   6.634 -2.0783  0.4448 -2.0473
  132OSM     O314235   5.112   1.997   6.515  0.5599 -0.3939  0.4985
  132OSM    HO314236   5.041   2.011   6.452  1.1679 -0.9702 -0.3275
  132OSM    C4S14237   5.121   1.990   6.760 -0.4081  0.4427  0.2496
  132OSM    H4S14238   5.130   2.065   6.840  1.4539 -0.4478  0.9307
  132OSM    C5S14239   5.180   1.867   6.777  0.4635 -0.0831 -0.8690
  132OSM    H5S14240   5.189   1.801   6.690  1.3735 -3.1423  1.3838
  132OSM    C6S14241   5.251   1.806   6.899 -0.2651 -0.4830  0.0164
  132OSM    H6S14242   5.361   1.798   6.884 -0.2413  1.0642 -0.8145
  132OSM    H6T14243   5.211   1.703   6.910  2.6667 -2.1231 -2.8135
  132OSM    C7S14244   5.229   1.881   7.028  0.2198  0.2834  0.0575
  132OSM    H7S14245   5.120   1.898   7.033 -0.1923 -2.0706  0.1889
  132OSM    H7T14246   5.267   1.985   7.033  1.0173 -0.0578  2.7098
  132OSM    C8S14247   5.280   1.812   7.157 -0.1308 -0.4468 -0.6803
  132OSM    H8S14248   5.391   1.809   7.147  0.0538  2.1896 -0.1634
  132OSM    H8T14249   5.246   1.707   7.166  1.2926 -0.9505 -0.9059
  132OSM    C9S14250   5.247   1.901   7.282  0.2093  0.2808  0.8680
  132OSM    H9S14251   5.137   1.918   7.287  0.1197 -0.2038  0.6847
  132OSM    H9T14252   5.285   2.003   7.262 -1.1181  0.3388 -1.7835
  132OSM   C10S14253   5.289   1.833   7.411  1.2901  0.1642 -0.5590
  132OSM   H10S14254   5.398   1.817   7.422  1.2993  0.4600 -0.1892
  132OSM   H10T14255   5.244   1.733   7.425  1.1200  0.0723 -1.7074
  132OSM   C11S14256   5.266   1.922   7.539  0.2707 -0.1521  0.0470
  132OSM   H11S14257   5.157   1.941   7.534 -0.0850 -2.2418 -1.7138
  132OSM   H11T14258   5.329   2.012   7.527  0.2580  0.0733  1.4872
  132OSM   C12S14259   5.305   1.852   7.669 -0.3583  0.1718  0.2844
  132OSM   H12S14260   5.415   1.841   7.663 -0.3910  0.6025 -1.7985
  132OSM   H12T14261   5.249   1.757   7.683 -1.8894  0.9467 -0.3300
  132OSM   C13S14262   5.273   1.945   7.787  0.5552  0.6893 -0.4078
  132OSM   H13S14263   5.169   1.982   7.771  0.0209 -0.1349  0.9257
  132OSM   H13T14264   5.341   2.032   7.778  1.0546  0.2154 -1.3655
  132OSM   C14S14265   5.283   1.882   7.922  0.2973  0.9115 -0.0185
  132OSM   H14S14266   5.385   1.838   7.927  0.7767  1.8964 -0.7431
  132OSM   H14T14267   5.205   1.806   7.937  2.3296 -1.1761  0.5822
  132OSM   C15S14268   5.281   1.990   8.029 -1.1501 -0.7834  0.3949
  132OSM   H15S14269   5.175   2.023   8.036 -1.1376 -0.4445 -0.7383
  132OSM   H15T14270   5.333   2.078   7.985  0.0796 -2.2807 -1.3288
  132OSM   C16S14271   5.340   1.950   8.161 -0.2971  0.1738  0.5973
  132OSM   H16S14272   5.341   2.042   8.223 -0.5366  1.3101 -1.0367
  132OSM   H16T14273   5.439   1.906   8.139 -0.4137 -0.4069  1.1784
  132OSM   C17S14274   5.271   1.839   8.236  0.0391 -0.7282 -0.4327
  132OSM   H17S14275   5.229   1.760   8.170  1.6417 -2.2803  0.3176
  132OSM   H17T14276   5.186   1.878   8.295  0.2117  0.5375 -0.9926
  132OSM   C18S14277   5.370   1.751   8.319 -0.9014  0.3923  0.3133
  132OSM   H18S14278   5.438   1.810   8.383 -0.5231  0.1613  0.1303
  132OSM   H18T14279   5.429   1.685   8.251 -1.6809 -0.9296  0.8848
  132OSM   H18U14280   5.313   1.681   8.383  0.2344 -1.9692 -1.1104
  132OSM    C1F14281   4.699   2.084   6.785  0.0984 -0.5979  0.8574
  132OSM     OF14282   4.628   2.006   6.724 -0.5604 -0.5766 -0.1334
  132OSM    C2F14283   4.647   2.180   6.883  0.1014 -0.0987  0.1938
  132OSM    H2F14284   4.591   2.263   6.836  0.8337  1.0759  1.3365
  132OSM    H2G14285   4.724   2.239   6.937 -1.8821  2.9404 -0.0821
  132OSM    C3F14286   4.551   2.101   6.981  0.2244 -0.2259 -0.1875
  132OSM    H3F14287   4.615   2.043   7.050  0.2361 -1.1966 -0.9907
  132OSM    H3G14288   4.474   2.038   6.931  2.2643 -3.0006 -0.0129
  132OSM    C4F14289   4.478   2.204   7.072  0.2712  0.3411 -0.6039
  132OSM    H4F14290   4.425   2.259   6.991  0.2604  0.3320 -0.6030
  132OSM    H4G14291   4.547   2.270   7.128  1.5128 -1.8908  0.6645
  132OSM    C5F14292   4.378   2.143   7.166  0.5753 -0.2728 -0.2577
  132OSM    H5F14293   4.323   2.062   7.115  1.1327  0.5361 -2.2435
  132OSM    H5G14294   4.308   2.224   7.199  0.9156 -0.7017  1.6383
  132OSM    C6F14295   4.450   2.087   7.291 -0.6756  0.0918  0.1151
  132OSM    H6F14296   4.508   2.171   7.333  0.6678 -0.4874 -0.5109
  132OSM    H6G14297   4.511   2.005   7.247 -1.3108 -0.1458 -0.3450
  132OSM    C7F14298   4.350   2.034   7.393 -0.1543 -0.1423 -0.1669
  132OSM    H7F14299   4.281   1.958   7.350 -1.8153  2.1193 -1.7344
  132OSM    H7G14300   4.281   2.121   7.404  0.1530 -0.0570  1.2557
  132OSM    C8F14301   4.396   1.994   7.535 -0.9392  0.6600  0.2808
  132OSM    H8F14302   4.314   1.953   7.597 -1.8963  0.3110 -1.1745
  132OSM    H8G14303   4.439   2.085   7.583  0.9430 -0.6783  1.2763
  132OSM    C9F14304   4.516   1.900   7.533 -0.9427  0.1042  0.5480
  132OSM    H9F14305   4.596   1.931   7.465 -2.0995  2.6035  0.2058
  132OSM   C10F14306   4.530   1.794   7.607  0.6194  0.8398  0.1014
  132OSM   H10F14307   4.621   1.735   7.592  0.4854  0.6826 -0.1059
  132OSM   C11F14308   4.417   1.729   7.694  0.2765 -0.3018  0.3484
  132OSM   H11F14309   4.399   1.629   7.651 -0.8352 -0.2408  0.6504
  132OSM   H11G14310   4.320   1.783   7.688 -0.3075 -1.4312 -0.9503
  132OSM   C12F14311   4.460   1.713   7.844  0.5797  0.0672  0.2052
  132OSM   H12F14312   4.549   1.648   7.837 -0.0886 -0.8127 -0.4380
  132OSM   H12G14313   4.379   1.664   7.903  1.5970  0.2601  1.7989
  132OSM   C13F14314   4.504   1.835   7.922 -0.2062 -0.0404 -0.5379
  132OSM   H13F14315   4.586   1.871   7.857  0.4459 -3.6563 -1.9624
  132OSM   H13G14316   4.542   1.809   8.023  0.6352 -0.2964 -0.9114
  132OSM   C14F14317   4.400   1.936   7.937  0.1223  0.0228 -0.0213
  132OSM   H14F14318   4.353   1.941   7.836 -0.8850  0.3815  0.4577
  132OSM   H14G14319   4.437   2.040   7.954  0.4072  0.4735 -2.8607
  132OSM   C15F14320   4.283   1.900   8.042  0.2604 -0.2170  0.2596
  132OSM   H15F14321   4.261   1.791   8.031 -1.9206  0.2375 -0.4910
  132OSM   H15G14322   4.195   1.965   8.022  0.0122 -1.0554 -1.6247
  132OSM   C16F14323   4.319   1.921   8.192 -0.0695 -0.1952  0.0464
  132OSM   H16F14324   4.347   2.028   8.202  0.7601 -0.3360 -0.6452
  132OSM   H16G14325   4.403   1.855   8.222 -0.0699 -1.7182 -2.9156
  132OSM   C17F14326   4.205   1.898   8.288  0.6585 -0.2584 -0.2428
  132OSM   H17F14327   4.172   1.792   8.281  0.7848 -0.2982 -0.2380
  132OSM   H17G14328   4.119   1.967   8.276 -1.0050 -1.7557  2.1018
  132OSM   C18F14329   4.256   1.926   8.425 -0.6352 -0.0368 -0.9429
  132OSM   H18F14330   4.177   1.937   8.502  0.8375 -0.9503  0.7878
  132OSM   H18G14331   4.309   2.024   8.426 -0.6319 -0.0376 -1.0080
  132OSM   H18H14332   4.320   1.845   8.467 -2.1273 -0.4810  0.5414
  133OSM      N14333   5.222   1.156   6.677 -0.4601 -0.0194  0.1705
  133OSM    C1514334   5.097   1.083   6.637 -0.1981  0.3301  0.1549
  133OSM   H15A14335   5.126   0.995   6.583 -0.5469  1.7322 -2.4740
  133OSM   H15B14336   5.046   1.143   6.563 -2.0256  1.5919  2.3096
  133OSM   H15C14337   5.028   1.060   6.717  0.0486 -0.2626  0.2007
  133OSM    C1414338   5.175   1.277   6.757 -0.2655 -0.2040  0.0461
  133OSM   H14A14339   5.113   1.247   6.839 -0.5629 -0.4296 -0.2594
  133OSM   H14B14340   5.120   1.337   6.686 -0.5989 -2.7333 -1.9869
  133OSM   H14C14341   5.262   1.337   6.781 -0.6920  1.0730 -1.4329
  133OSM    C1314342   5.311   1.072   6.761 -0.1213  0.3528  0.6569
  133OSM   H13A14343   5.260   1.042   6.852  1.4767 -0.0544  1.4481
  133OSM   H13B14344   5.411   1.109   6.779 -0.3187  1.6229 -0.7053
  133OSM   H13C14345   5.336   0.983   6.706  1.0084  1.1160 -0.0886
  133OSM    C1214346   5.300   1.203   6.564 -0.3511 -1.1548 -0.5168
  133OSM   H12A14347   5.326   1.130   6.488  0.8128 -0.6369 -0.6471
  133OSM   H12B14348   5.396   1.233   6.605 -1.5996  2.2679  0.2047
  133OSM    C1114349   5.239   1.314   6.479  0.7356 -0.3450  0.2871
  133OSM   H11A14350   5.312   1.335   6.399  1.2183 -0.7005  0.6263
  133OSM   H11B14351   5.239   1.410   6.534 -0.1045  0.1035 -0.4655
  133OSM      P14352   5.001   1.379   6.384 -0.4150 -0.0260 -0.2050
  133OSM    O1314353   5.061   1.500   6.328 -1.0788  0.7028 -0.5398
  133OSM    O1414354   4.904   1.305   6.295 -0.2374  0.0196 -0.4736
  133OSM    O1114355   4.943   1.426   6.522  0.2997 -0.1200 -0.1942
  133OSM    O1214356   5.107   1.282   6.423  0.6275  0.0543  0.2978
  133OSM    C1S14357   4.850   1.340   6.590 -0.6766  0.3833  0.1259
  133OSM    H1S14358   4.890   1.236   6.593  3.9145  1.9252  2.1868
  133OSM    H1T14359   4.746   1.330   6.551 -0.8475  0.8570  0.4378
  133OSM     NF14360   4.722   1.315   6.792  0.0842  0.0436 -0.1988
  133OSM    HNF14361   4.650   1.381   6.812  2.5836  3.0069 -0.3676
  133OSM    C2S14362   4.835   1.377   6.741 -0.8703 -0.7949  0.7716
  133OSM    H2S14363   4.924   1.336   6.792  1.8543  0.1096 -2.8378
  133OSM    C3S14364   4.842   1.529   6.764  0.1810 -0.2309 -0.6216
  133OSM    H3S14365   4.755   1.578   6.716 -0.9712  3.4476  4.3804
  133OSM     O314366   4.959   1.595   6.716 -0.4077 -0.0163  0.3225
  133OSM    HO314367   4.976   1.552   6.631 -0.0635  1.7884 -0.5692
  133OSM    C4S14368   4.835   1.565   6.912 -0.4945  0.3713  0.2950
  133OSM    H4S14369   4.920   1.526   6.969  1.0239  2.1164 -0.6738
  133OSM    C5S14370   4.755   1.651   6.965  0.3321 -0.1699 -0.0984
  133OSM    H5S14371   4.685   1.696   6.893  0.7540 -0.0413 -0.4294
  133OSM    C6S14372   4.745   1.694   7.105  0.4262 -0.4257 -0.0849
  133OSM    H6S14373   4.659   1.656   7.163  0.4271 -2.9215 -1.5691
  133OSM    H6T14374   4.739   1.805   7.096  0.5275 -0.5488 -2.0822
  133OSM    C7S14375   4.869   1.669   7.192 -0.6035 -0.2673 -0.4916
  133OSM    H7S14376   4.965   1.694   7.141  0.2345  0.6816  1.4447
  133OSM    H7T14377   4.875   1.559   7.194  1.8546 -0.1750 -0.2687
  133OSM    C8S14378   4.872   1.720   7.335 -0.3881  0.3668 -0.1988
  133OSM    H8S14379   4.771   1.738   7.379 -0.8137  0.6110 -1.2220
  133OSM    H8T14380   4.925   1.817   7.327 -0.8709  0.6068 -0.6481
  133OSM    C9S14381   4.947   1.634   7.441 -0.0298  0.2032 -0.6749
  133OSM    H9S14382   5.056   1.643   7.420  0.1260  1.0199  0.4127
  133OSM    H9T14383   4.910   1.531   7.424  0.3753 -0.0516 -0.0222
  133OSM   C10S14384   4.916   1.682   7.586 -0.1968  0.0827 -0.1571
  133OSM   H10S14385   4.809   1.664   7.610 -0.0087  0.0875  0.7170
  133OSM   H10T14386   4.943   1.788   7.601  0.9349 -0.5128  2.5761
  133OSM   C11S14387   4.988   1.598   7.690 -0.0103  0.0594  0.2016
  133OSM   H11S14388   5.097   1.607   7.671 -0.3030  1.7524 -0.9097
  133OSM   H11T14389   4.965   1.490   7.680  2.4771 -0.4916 -0.2126
  133OSM   C12S14390   4.960   1.651   7.835  0.1651  0.2609 -0.0221
  133OSM   H12S14391   4.849   1.652   7.844  0.1319 -0.6888 -0.2044
  133OSM   H12T14392   5.000   1.754   7.827  0.9015 -0.0252 -0.0482
  133OSM   C13S14393   5.031   1.568   7.934 -0.3721 -1.1213 -1.2770
  133OSM   H13S14394   5.139   1.591   7.944 -0.4316 -1.5431  0.6378
  133OSM   H13T14395   5.026   1.465   7.893  0.3910 -1.1655 -1.2778
  133OSM   C14S14396   4.973   1.577   8.074  0.4407  0.1865 -0.5422
  133OSM   H14S14397   4.865   1.555   8.061  0.1608  1.5405 -0.6138
  133OSM   H14T14398   4.978   1.682   8.111 -0.7322  0.1289 -0.1776
  133OSM   C15S14399   5.032   1.466   8.169  0.1426 -0.0810 -0.6575
  133OSM   H15S14400   5.140   1.463   8.145 -0.2420 -3.5877 -2.5493
  133OSM   H15T14401   4.994   1.365   8.143  0.6980 -1.2716  2.7028
  133OSM   C16S14402   4.996   1.495   8.315  0.1343 -0.0547 -0.4882
  133OSM   H16S14403   4.899   1.456   8.351 -0.6393  1.4025 -0.9403
  133OSM   H16T14404   4.988   1.604   8.334 -0.2327  0.0208 -1.0831
  133OSM   C17S14405   5.105   1.433   8.402 -0.2956  0.1665 -0.0111
  133OSM   H17S14406   5.204   1.457   8.358 -0.7795 -0.1248 -1.3383
  133OSM   H17T14407   5.098   1.322   8.395 -4.1315  0.0404  2.6135
  133OSM   C18S14408   5.098   1.476   8.548  0.2561 -0.2079  0.2543
  133OSM   H18S14409   5.118   1.584   8.561  0.3725 -0.2008  0.0291
  133OSM   H18T14410   5.170   1.415   8.608 -0.9748 -1.0129  0.9513
  133OSM   H18U14411   5.000   1.449   8.591 -0.4074 -0.2801 -1.2608
  133OSM    C1F14412   4.705   1.181   6.801 -0.5342 -0.5304 -0.1894
  133OSM     OF14413   4.802   1.112   6.783  0.6284  0.2731  0.3038
  133OSM    C2F14414   4.567   1.128   6.846  0.1679  0.6181 -0.5218
  133OSM    H2F14415   4.529   1.080   6.753 -0.1454 -1.1061  0.4595
  133OSM    H2G14416   4.492   1.201   6.883 -1.9089 -0.9434 -1.4099
  133OSM    C3F14417   4.571   1.004   6.945 -0.7284  0.2096 -0.4830
  133OSM    H3F14418   4.610   0.918   6.886 -0.1045 -1.1994  1.8649
  133OSM    H3G14419   4.469   0.978   6.980  0.4851 -3.4104  0.8433
  133OSM    C4F14420   4.671   1.026   7.060  0.7013  0.7646 -0.0470
  133OSM    H4F14421   4.780   1.025   7.040  0.8587  0.0735  0.7929
  133OSM    H4G14422   4.662   0.946   7.136 -1.1036 -0.3140 -1.3041
  133OSM    C5F14423   4.627   1.157   7.131  0.4245  0.5646 -0.4678
  133OSM    H5F14424   4.525   1.135   7.169  1.0546 -1.6847  0.0913
  133OSM    H5G14425   4.610   1.247   7.068 -0.5032  0.2095 -0.7517
  133OSM    C6F14426   4.712   1.202   7.253  0.1914 -0.2710  0.1924
  133OSM    H6F14427   4.815   1.203   7.211  0.4687  1.6737  0.8214
  133OSM    H6G14428   4.703   1.129   7.336 -0.0568  1.9854  2.2994
  133OSM    C7F14429   4.676   1.338   7.319  0.0649  0.2537 -0.2259
  133OSM    H7F14430   4.686   1.404   7.231 -1.3310  1.8685  0.7563
  133OSM    H7G14431   4.759   1.354   7.391  0.9148 -1.3205 -0.7974
  133OSM    C8F14432   4.540   1.338   7.392 -0.5550  0.4987 -0.0676
  133OSM    H8F14433   4.450   1.325   7.327 -0.2683  3.5462 -1.2687
  133OSM    H8G14434   4.528   1.435   7.445 -1.4712  0.2485  0.2000
  133OSM    C9F14435   4.537   1.241   7.507 -0.1891 -1.1671  0.5678
  133OSM    H9F14436   4.520   1.135   7.487 -0.3151 -0.8104 -1.4596
  133OSM   C10F14437   4.580   1.269   7.632 -0.4740 -0.4130  0.4022
  133OSM   H10F14438   4.589   1.179   7.694  2.0618 -1.6671 -1.5534
  133OSM   C11F14439   4.640   1.391   7.695  0.1446 -0.4406 -0.4578
  133OSM   H11F14440   4.565   1.463   7.736  1.0602  1.0285 -1.2618
  133OSM   H11G14441   4.686   1.453   7.615  2.4176 -0.7827  0.5262
  133OSM   C12F14442   4.756   1.351   7.790 -0.0505 -0.9728  0.3822
  133OSM   H12F14443   4.811   1.443   7.818 -2.4736  1.1303 -1.3764
  133OSM   H12G14444   4.831   1.290   7.735  0.4407  1.5246 -1.9318
  133OSM   C13F14445   4.722   1.283   7.922  0.4047  0.4416 -0.3919
  133OSM   H13F14446   4.806   1.288   7.994 -0.4941 -2.4498  1.0172
  133OSM   H13G14447   4.689   1.181   7.891 -0.4814  1.1908 -2.0685
  133OSM   C14F14448   4.601   1.347   7.992 -0.2156 -0.2429 -0.4375
  133OSM   H14F14449   4.506   1.325   7.939  0.4369  0.5912 -2.0264
  133OSM   H14G14450   4.613   1.458   7.992 -0.5947 -0.1970  0.3670
  133OSM   C15F14451   4.592   1.310   8.142  0.0056  1.0164  0.6635
  133OSM   H15F14452   4.662   1.227   8.169  0.2838  1.0365  0.0114
  133OSM   H15G14453   4.488   1.274   8.157  0.0830 -0.1176 -1.1874
  133OSM   C16F14454   4.620   1.428   8.237  0.2572  0.5483  0.1307
  133OSM   H16F14455   4.566   1.519   8.203  1.1206  0.1667 -2.5095
  133OSM   H16G14456   4.729   1.446   8.225  0.4441  0.7227  1.8146
  133OSM   C17F14457   4.564   1.411   8.378  0.2153  0.0245  0.0510
  133OSM   H17F14458   4.457   1.383   8.372  0.1975 -0.1336  0.9873
  133OSM   H17G14459   4.577   1.512   8.424 -0.6062 -0.1162  0.6042
  133OSM   C18F14460   4.628   1.299   8.464 -0.0315  0.1496  0.5955
  133OSM   H18F14461   4.570   1.280   8.557 -2.0035  1.2299 -0.3297
  133OSM   H18G14462   4.735   1.325   8.474  0.1978  0.5217 -2.0140
  133OSM   H18H14463   4.622   1.206   8.404 -1.1966  0.7272 -0.2486
  134OSM      N14464   0.951   3.749   5.859  0.1710 -0.5693 -0.3727
  134OSM    C1514465   1.034   3.871   5.830  0.4333 -0.4659  0.0131
  134OSM   H15A14466   1.110   3.881   5.906  1.8104 -1.1717 -1.2288
  134OSM   H15B14467   0.966   3.955   5.839  0.4175 -0.5909  1.2983
  134OSM   H15C14468   1.082   3.865   5.734 -0.0602 -1.1497 -0.1964
  134OSM    C1414469   0.850   3.728   5.744  0.3072  0.5070  0.1860
  134OSM   H14A14470   0.798   3.821   5.724  2.3371  1.1407 -2.9342
  134OSM   H14B14471   0.779   3.650   5.764 -2.0142  1.7727 -2.4919
  134OSM   H14C14472   0.906   3.720   5.652  2.9658  2.8811  1.4313
  134OSM    C1314473   1.045   3.637   5.860 -0.1318 -0.0593 -0.3305
  134OSM   H13A14474   0.996   3.541   5.861 -0.5179  0.1258  0.9771
  134OSM   H13B14475   1.111   3.643   5.946 -0.5497  0.6053 -0.0535
  134OSM   H13C14476   1.109   3.635   5.773 -0.3439  1.8426 -0.5654
  134OSM    C1214477   0.885   3.767   5.993  0.5393 -0.3167 -0.3866
  134OSM   H12A14478   0.832   3.674   6.011  0.6656 -0.9433 -2.9086
  134OSM   H12B14479   0.805   3.839   5.987 -0.0557 -0.8785  0.4763
  134OSM    C1114480   0.973   3.802   6.110  0.2808 -0.1271 -0.1909
  134OSM   H11A14481   1.060   3.733   6.122 -0.4932 -0.7681  2.4633
  134OSM   H11B14482   0.938   3.782   6.214  2.1691 -0.7593  0.3684
  134OSM      P14483   0.922   4.058   6.135  0.0537 -0.6275 -0.1332
  134OSM    O1314484   1.000   4.182   6.130  0.1428 -0.4634 -0.4192
  134OSM    O1414485   0.813   4.049   6.032  0.4808 -0.0864 -0.1522
  134OSM    O1114486   0.871   4.036   6.278 -0.1060 -0.1034 -0.6707
  134OSM    O1214487   1.014   3.938   6.116 -0.0309 -0.5238 -0.3473
  134OSM    C1S14488   0.945   4.001   6.391 -0.7062  0.3558  0.2193
  134OSM    H1S14489   1.010   4.090   6.404 -0.2644  0.1053 -0.2165
  134OSM    H1T14490   1.009   3.910   6.386  0.7225  1.2920  0.9419
  134OSM     NF14491   0.934   3.972   6.638 -0.4659 -0.7226 -0.3941
  134OSM    HNF14492   0.992   3.891   6.647 -1.0602 -1.0488  0.7238
  134OSM    C2S14493   0.854   3.974   6.515 -0.2390  0.8604 -0.4184
  134OSM    H2S14494   0.771   4.046   6.534  0.1524  1.1794  0.1413
  134OSM    C3S14495   0.780   3.835   6.491 -0.1141 -0.5179 -0.4095
  134OSM    H3S14496   0.856   3.754   6.482 -1.1381 -1.8597  2.0603
  134OSM     O314497   0.703   3.849   6.372 -0.0164  0.1233  0.7469
  134OSM    HO314498   0.745   3.922   6.326  0.4989 -0.5543  0.1207
  134OSM    C4S14499   0.701   3.801   6.613 -0.1267  0.2924  0.2430
  134OSM    H4S14500   0.751   3.736   6.686 -3.2004  0.2445  2.4692
  134OSM    C5S14501   0.570   3.823   6.643 -0.0984 -0.0980 -0.2214
  134OSM    H5S14502   0.521   3.887   6.569 -0.7701  0.4242  0.6625
  134OSM    C6S14503   0.495   3.782   6.769  0.3600  0.0094 -0.0923
  134OSM    H6S14504   0.409   3.722   6.733  0.4369  0.1018 -0.4306
  134OSM    H6T14505   0.448   3.869   6.821  0.0780  0.2024 -0.6618
  134OSM    C7S14506   0.559   3.701   6.882 -0.1341  0.0567  0.0255
  134OSM    H7S14507   0.653   3.748   6.917 -1.0112  2.4780 -0.6587
  134OSM    H7T14508   0.581   3.601   6.840 -0.2265  0.4292 -0.9478
  134OSM    C8S14509   0.472   3.699   7.014 -0.1446 -0.1360 -0.4207
  134OSM    H8S14510   0.378   3.643   6.995  1.0350 -2.4639  0.2008
  134OSM    H8T14511   0.442   3.802   7.042  0.9623  0.5107 -1.5322
  134OSM    C9S14512   0.538   3.637   7.145  0.6487 -0.7666  0.3425
  134OSM    H9S14513   0.641   3.680   7.149  1.7479 -2.8502 -2.4458
  134OSM    H9T14514   0.563   3.531   7.125 -0.5173 -1.5490  2.6645
  134OSM   C10S14515   0.460   3.649   7.274 -0.0683  0.2905 -0.6829
  134OSM   H10S14516   0.364   3.603   7.242  0.7188 -0.4897 -2.0339
  134OSM   H10T14517   0.441   3.756   7.294  0.6781 -0.0623  2.5119
  134OSM   C11S14518   0.523   3.583   7.396  0.7022  0.0139 -0.9962
  134OSM   H11S14519   0.623   3.627   7.416  0.4877  0.4849 -0.9583
  134OSM   H11T14520   0.531   3.472   7.388 -1.6473 -0.6756  3.2239
  134OSM   C12S14521   0.444   3.596   7.525  0.2122 -0.1618  0.0626
  134OSM   H12S14522   0.370   3.514   7.540  1.7424 -1.3761  1.3579
  134OSM   H12T14523   0.387   3.691   7.514  0.1672 -0.3602 -1.7057
  134OSM   C13S14524   0.530   3.623   7.655 -0.8134 -0.1931 -0.4177
  134OSM   H13S14525   0.590   3.716   7.652 -1.9141  0.5986  0.9594
  134OSM   H13T14526   0.591   3.530   7.664  0.0558  0.4518  0.6606
  134OSM   C14S14527   0.441   3.638   7.778 -0.4895 -0.1306  0.2939
  134OSM   H14S14528   0.360   3.563   7.765 -2.3444  1.7029  0.7886
  134OSM   H14T14529   0.404   3.742   7.767  1.6662  0.5438 -1.4956
  134OSM   C15S14530   0.520   3.619   7.905 -0.3724  0.1028  0.5449
  134OSM   H15S14531   0.581   3.709   7.927 -0.2589  0.1396  0.0890
  134OSM   H15T14532   0.603   3.548   7.884  1.0991  1.8557  0.2479
  134OSM   C16S14533   0.429   3.584   8.018 -0.3137  0.0932 -0.7757
  134OSM   H16S14534   0.378   3.492   7.981  1.0358 -0.2311 -1.8860
  134OSM   H16T14535   0.353   3.664   8.023 -0.2377  0.1487 -0.4623
  134OSM   C17S14536   0.499   3.581   8.155 -0.2997  0.4570  0.0722
  134OSM   H17S14537   0.567   3.668   8.162 -0.2874  0.5165 -0.6888
  134OSM   H17T14538   0.564   3.492   8.170  0.5456  0.9964 -0.3564
  134OSM   C18S14539   0.402   3.572   8.274 -0.1449 -0.1722 -0.3954
  134OSM   H18S14540   0.375   3.468   8.304  0.1525  0.2107  1.3358
  134OSM   H18T14541   0.308   3.626   8.252  0.6964  2.4386  1.8595
  134OSM   H18U14542   0.447   3.614   8.367 -1.4081  0.5948 -0.1007
  134OSM    C1F14543   0.984   4.082   6.701  0.6181  0.1040 -0.6049
  134OSM     OF14544   0.961   4.189   6.648 -0.0980 -0.3548 -0.3991
  134OSM    C2F14545   1.062   4.061   6.828  0.4530  0.4607 -0.0714
  134OSM    H2F14546   1.138   4.140   6.840  1.5897 -0.3767 -1.4702
  134OSM    H2G14547   1.113   3.963   6.839 -1.8278 -0.6056  1.9625
  134OSM    C3F14548   0.957   4.062   6.948 -0.3389 -0.2059  0.6393
  134OSM    H3F14549   0.891   3.973   6.935 -0.2079 -0.1702 -0.4093
  134OSM    H3G14550   0.884   4.145   6.958 -1.5525 -1.4412  2.7158
  134OSM    C4F14551   1.025   4.045   7.086 -0.4681 -0.1447  0.2437
  134OSM    H4F14552   1.057   4.146   7.118 -0.0750 -0.9868  2.7146
  134OSM    H4G14553   1.105   3.969   7.086 -1.3318 -1.0808  0.1159
  134OSM    C5F14554   0.915   3.996   7.187 -0.2686  0.2322  0.9734
  134OSM    H5F14555   0.883   3.891   7.167  0.9351 -0.0563  0.4232
  134OSM    H5G14556   0.822   4.054   7.169  0.3462  0.8330 -0.4245
  134OSM    C6F14557   0.964   4.000   7.330  0.1489 -0.0892 -0.1937
  134OSM    H6F14558   1.013   4.098   7.347 -3.7052  1.7336  1.7645
  134OSM    H6G14559   1.018   3.907   7.357  1.3182  0.1590 -1.5481
  134OSM    C7F14560   0.853   4.006   7.441  0.2308 -0.2559 -0.2035
  134OSM    H7F14561   0.791   3.914   7.437 -0.3233  0.1022  0.0692
  134OSM    H7G14562   0.795   4.096   7.408 -0.3567 -0.0675  1.2603
  134OSM    C8F14563   0.918   4.015   7.580 -0.4201  0.3112 -0.1044
  134OSM    H8F14564   0.986   4.101   7.598 -0.3032  0.1721  0.1236
  134OSM    H8G14565   0.982   3.924   7.586 -0.0740  0.4380 -1.5321
  134OSM    C9F14566   0.818   4.003   7.693 -0.0132 -0.2280  0.5485
  134OSM    H9F14567   0.731   3.938   7.675 -0.0396 -0.2985  0.9226
  134OSM   C10F14568   0.817   4.073   7.807 -0.2249  0.5494  0.0580
  134OSM   H10F14569   0.735   4.058   7.879 -0.2135  1.0049  0.1725
  134OSM   C11F14570   0.931   4.153   7.864  0.4044 -0.2378 -0.4185
  134OSM   H11F14571   0.905   4.261   7.866 -0.2370  0.0478 -6.0916
  134OSM   H11G14572   1.022   4.154   7.800  0.8343 -1.1646  0.1720
  134OSM   C12F14573   0.971   4.099   8.003  0.2968 -0.5154  0.0894
  134OSM   H12F14574   1.029   4.006   7.987  1.5388  0.3196 -0.4773
  134OSM   H12G14575   0.885   4.078   8.070  1.7089 -1.9560  1.5184
  134OSM   C13F14576   1.061   4.207   8.062 -0.0630  0.5663 -1.0817
  134OSM   H13F14577   1.002   4.298   8.087  0.9545  1.6404 -2.4023
  134OSM   H13G14578   1.124   4.253   7.983 -0.1520  3.4080  0.3726
  134OSM   C14F14579   1.137   4.153   8.189  0.9408 -0.1259 -0.1615
  134OSM   H14F14580   1.216   4.230   8.208  1.2287 -0.6946  1.0028
  134OSM   H14G14581   1.182   4.053   8.175 -0.9992 -1.0695  0.1277
  134OSM   C15F14582   1.045   4.139   8.315  0.2719  0.4349  0.5392
  134OSM   H15F14583   0.952   4.080   8.305  1.3545 -1.3154  0.3994
  134OSM   H15G14584   1.012   4.242   8.341  1.6713  0.7910  1.0335
  134OSM   C16F14585   1.123   4.082   8.432  0.0963 -0.3719  0.6021
  134OSM   H16F14586   1.163   3.981   8.410 -1.2546 -0.7783 -0.1560
  134OSM   H16G14587   1.055   4.071   8.519 -1.0456 -0.8454 -0.3123
  134OSM   C17F14588   1.237   4.170   8.474 -0.2077 -0.1686 -0.8003
  134OSM   H17F14589   1.190   4.271   8.476 -1.4953 -0.6852 -2.2746
  134OSM   H17G14590   1.313   4.179   8.393 -0.7743  0.4398 -1.2809
  134OSM   C18F14591   1.285   4.123   8.613  0.0019  0.8058  0.0068
  134OSM   H18F14592   1.197   4.098   8.676 -0.1431  0.3160 -0.3807
  134OSM   H18G14593   1.348   4.206   8.650 -1.9722  2.8825 -1.0529
  134OSM   H18H14594   1.347   4.031   8.602 -1.2002 -0.3853  2.2718
  135OSM      N14595   0.280   4.687   5.893  0.4320  0.3754  0.1767
  135OSM    C1514596   0.125   4.679   5.885 -0.8686  0.4533  0.6321
  135OSM   H15A14597   0.089   4.697   5.785 -0.0638  0.7514  0.3868
  135OSM   H15B14598   0.078   4.758   5.941 -2.0136  0.3307 -0.1199
  135OSM   H15C14599   0.093   4.584   5.926  3.0071 -1.0094  0.7417
  135OSM    C1414600   0.331   4.557   5.830  0.8298 -0.8479  0.4617
  135OSM   H14A14601   0.274   4.472   5.865  2.1570 -1.9299  0.0916
  135OSM   H14B14602   0.430   4.531   5.863  0.5974 -1.8081  0.4369
  135OSM   H14C14603   0.330   4.567   5.722  0.2767 -2.6651  0.2585
  135OSM    C1314604   0.332   4.808   5.829 -0.5643  0.0998 -0.1821
  135OSM   H13A14605   0.300   4.820   5.727  1.4314  1.9691 -0.6706
  135OSM   H13B14606   0.440   4.800   5.825 -0.6294 -0.7120 -0.4924
  135OSM   H13C14607   0.312   4.893   5.892 -0.6614 -1.2426  1.6708
  135OSM    C1214608   0.313   4.671   6.044 -0.1214  0.2433 -0.3955
  135OSM   H12A14609   0.260   4.586   6.084 -0.4880  0.4617 -0.4139
  135OSM   H12B14610   0.272   4.750   6.105  1.7992 -0.4047  1.8814
  135OSM    C1114611   0.465   4.630   6.070 -0.4287 -0.0464 -0.3760
  135OSM   H11A14612   0.484   4.649   6.178  2.3180 -1.9914 -0.3973
  135OSM   H11B14613   0.533   4.703   6.021  0.3929 -0.4071  0.2154
  135OSM      P14614   0.453   4.383   6.140 -0.0350  0.4150  0.1639
  135OSM    O1314615   0.311   4.408   6.157 -0.2391  0.6120  0.0544
  135OSM    O1414616   0.509   4.258   6.091 -0.5708  0.4835  0.2836
  135OSM    O1114617   0.519   4.407   6.281  0.2814  0.4552  0.2763
  135OSM    O1214618   0.514   4.497   6.044  0.5983 -0.2995 -0.2530
  135OSM    C1S14619   0.651   4.357   6.305  0.1955  0.4350 -0.5427
  135OSM    H1S14620   0.729   4.375   6.227  1.9787 -0.9011  0.8290
  135OSM    H1T14621   0.643   4.247   6.316 -1.0051  0.4827 -0.8586
  135OSM     NF14622   0.856   4.397   6.452  0.3527  0.5855 -0.1006
  135OSM    HNF14623   0.890   4.320   6.506 -2.4518  1.1506  2.7778
  135OSM    C2S14624   0.703   4.402   6.444  0.1326 -0.3933  0.0268
  135OSM    H2S14625   0.675   4.509   6.459 -0.9331 -0.8736  1.8483
  135OSM    C3S14626   0.617   4.332   6.555  0.4568  0.1295  0.2029
  135OSM    H3S14627   0.631   4.222   6.546  3.4050  0.5742 -2.4551
  135OSM     O314628   0.477   4.356   6.543 -0.0941  0.0314 -0.4197
  135OSM    HO314629   0.464   4.382   6.451  0.9948 -2.0667 -1.2227
  135OSM    C4S14630   0.667   4.361   6.703 -0.2772  0.5636  0.8030
  135OSM    H4S14631   0.773   4.340   6.724 -0.1990 -3.5102 -2.2514
  135OSM    C5S14632   0.590   4.414   6.797  0.3615 -0.6508 -0.4449
  135OSM    H5S14633   0.484   4.429   6.773  0.2920 -1.6343 -0.8033
  135OSM    C6S14634   0.620   4.446   6.944  0.4537 -0.4250  0.2883
  135OSM    H6S14635   0.538   4.425   7.016  1.1287 -0.7753  0.9712
  135OSM    H6T14636   0.640   4.555   6.940  1.5004 -0.5949  0.6140
  135OSM    C7S14637   0.742   4.378   7.012  0.1400  0.2743  0.2641
  135OSM    H7S14638   0.832   4.387   6.948 -0.1372  3.4619  0.1649
  135OSM    H7T14639   0.709   4.272   7.024  1.7317 -0.3968 -0.9416
  135OSM    C8S14640   0.760   4.436   7.157  0.3153 -0.0605 -0.9535
  135OSM    H8S14641   0.666   4.457   7.213  0.9327 -2.6732  1.3012
  135OSM    H8T14642   0.815   4.532   7.162  0.6202 -0.2919  0.6013
  135OSM    C9S14643   0.843   4.339   7.242 -0.6341  0.4041  0.0535
  135OSM    H9S14644   0.933   4.298   7.192 -2.9985 -2.6381 -2.0725
  135OSM    H9T14645   0.788   4.246   7.270 -1.0810  0.6865  0.1250
  135OSM   C10S14646   0.876   4.393   7.386 -0.0253  0.2583 -0.1108
  135OSM   H10S14647   0.889   4.503   7.391 -0.1088  0.2186  2.6334
  135OSM   H10T14648   0.969   4.337   7.408  0.4167  0.7102 -0.8358
  135OSM   C11S14649   0.767   4.376   7.491  0.0557  0.7888  0.1149
  135OSM   H11S14650   0.753   4.272   7.528 -0.4584  0.8114 -0.0098
  135OSM   H11T14651   0.667   4.411   7.458  0.4743  1.9324  0.0238
  135OSM   C12S14652   0.805   4.443   7.627  0.0045 -0.2114 -0.4009
  135OSM   H12S14653   0.841   4.542   7.592 -1.1248  0.5910  0.5993
  135OSM   H12T14654   0.892   4.390   7.670 -0.1360  2.5092  3.8668
  135OSM   C13S14655   0.694   4.447   7.728 -0.1061  0.4022 -0.4632
  135OSM   H13S14656   0.674   4.345   7.767  0.0996  0.3957 -0.3745
  135OSM   H13T14657   0.603   4.492   7.683 -0.3732 -1.5540 -2.0367
  135OSM   C14S14658   0.734   4.528   7.854  0.0123 -0.0253  0.0862
  135OSM   H14S14659   0.721   4.636   7.834  2.2576 -0.0570 -1.9963
  135OSM   H14T14660   0.841   4.530   7.883  0.1725  3.1703 -0.4063
  135OSM   C15S14661   0.641   4.487   7.963  0.7066  0.3608 -0.5045
  135OSM   H15S14662   0.660   4.378   7.973  0.9305  0.1755 -2.5200
  135OSM   H15T14663   0.537   4.497   7.927  1.1729  2.0251 -1.4849
  135OSM   C16S14664   0.662   4.573   8.086  0.2706 -0.7374 -0.5751
  135OSM   H16S14665   0.663   4.678   8.049 -0.9784 -0.6470 -0.4017
  135OSM   H16T14666   0.762   4.564   8.133 -0.1134 -0.8543  0.2477
  135OSM   C17S14667   0.553   4.572   8.197  0.1456 -0.2866 -0.2239
  135OSM   H17S14668   0.565   4.472   8.244  0.9144  0.6654  1.7336
  135OSM   H17T14669   0.454   4.575   8.147 -0.1752  0.2989  0.4199
  135OSM   C18S14670   0.576   4.676   8.309 -0.0069 -0.0266 -0.4374
  135OSM   H18S14671   0.562   4.771   8.254 -0.9391 -0.0685 -0.2934
  135OSM   H18T14672   0.675   4.673   8.358 -1.0676  1.6546  1.9744
  135OSM   H18U14673   0.490   4.658   8.377 -0.3622  3.6046  0.2574
  135OSM    C1F14674   0.942   4.470   6.381 -0.4272  0.1586  0.1006
  135OSM     OF14675   0.904   4.565   6.313  0.6668  0.4168  0.1156
  135OSM    C2F14676   1.084   4.429   6.399  0.6774  0.9760  0.5770
  135OSM    H2F14677   1.119   4.377   6.307  1.8744  1.6045  0.6677
  135OSM    H2G14678   1.073   4.349   6.476 -4.3123 -2.1475 -2.7478
  135OSM    C3F14679   1.172   4.552   6.421  0.9938 -0.8556 -0.0862
  135OSM    H3F14680   1.160   4.618   6.333  0.4015 -0.8590 -0.0155
  135OSM    H3G14681   1.279   4.527   6.431  1.0709 -0.3405  0.4542
  135OSM    C4F14682   1.132   4.631   6.545  0.5219  0.2164 -1.1246
  135OSM    H4F14683   1.028   4.664   6.527 -0.2197 -0.6084  1.3043
  135OSM    H4G14684   1.194   4.723   6.547 -0.4629  0.9063  1.0523
  135OSM    C5F14685   1.120   4.547   6.674 -0.1912  0.1530 -0.3269
  135OSM    H5F14686   1.206   4.477   6.682 -0.7197 -0.4521  0.3071
  135OSM    H5G14687   1.028   4.483   6.671  0.0688 -0.2404 -3.7242
  135OSM    C6F14688   1.115   4.636   6.799  0.6086 -0.1267  0.4038
  135OSM    H6F14689   1.023   4.698   6.801 -0.1524 -1.2177  1.2525
  135OSM    H6G14690   1.206   4.699   6.789  0.4204 -0.1148 -1.6184
  135OSM    C7F14691   1.128   4.553   6.921  0.1684  0.1688  0.3262
  135OSM    H7F14692   1.227   4.504   6.910  0.7428  1.3133  0.2110
  135OSM    H7G14693   1.048   4.477   6.929  0.1323  0.2085  0.3468
  135OSM    C8F14694   1.125   4.642   7.042 -0.2427  0.2633  0.0614
  135OSM    H8F14695   1.020   4.677   7.054  0.4157  2.7742 -0.7884
  135OSM    H8G14696   1.192   4.730   7.028 -1.2308  1.5022  2.5304
  135OSM    C9F14697   1.174   4.570   7.164  0.9084  0.3984  0.3581
  135OSM    H9F14698   1.219   4.473   7.141  1.2055  0.3711  1.0256
  135OSM   C10F14699   1.158   4.624   7.290 -0.8617 -0.5532  0.4491
  135OSM   H10F14700   1.202   4.582   7.381  0.6728  0.6540  0.3049
  135OSM   C11F14701   1.098   4.764   7.310 -0.2488 -0.5159 -0.4200
  135OSM   H11F14702   0.988   4.754   7.305 -0.8147  3.1002  1.6220
  135OSM   H11G14703   1.106   4.841   7.231 -1.4181  3.9378  3.3792
  135OSM   C12F14704   1.142   4.826   7.447  0.7299  0.1252 -0.4242
  135OSM   H12F14705   1.111   4.933   7.437  2.0503  0.6071  0.3886
  135OSM   H12G14706   1.251   4.825   7.467  0.8457 -0.7887 -1.0359
  135OSM   C13F14707   1.067   4.762   7.565 -0.1780  0.2717  0.4466
  135OSM   H13F14708   0.962   4.742   7.536 -0.2155  2.1660 -0.9233
  135OSM   H13G14709   1.058   4.832   7.650 -3.1789 -0.8511  1.2010
  135OSM   C14F14710   1.134   4.632   7.622 -0.3374  0.0848  0.2427
  135OSM   H14F14711   1.244   4.631   7.613 -0.4914 -1.6938 -3.5206
  135OSM   H14G14712   1.091   4.540   7.577 -2.5624  1.1286  0.0472
  135OSM   C15F14713   1.095   4.630   7.774  0.5082 -0.0644  0.7057
  135OSM   H15F14714   0.985   4.638   7.789  0.6660  1.7091  1.2106
  135OSM   H15G14715   1.127   4.724   7.825 -0.3540 -0.3179  1.7461
  135OSM   C16F14716   1.152   4.506   7.846  0.4342 -0.4745 -0.4308
  135OSM   H16F14717   1.181   4.432   7.769  0.5096  0.3576 -1.2136
  135OSM   H16G14718   1.081   4.452   7.913  0.4427 -1.6186 -1.3213
  135OSM   C17F14719   1.267   4.535   7.940 -0.2666  0.1747  0.4058
  135OSM   H17F14720   1.343   4.583   7.875 -3.0442  1.3520 -2.2079
  135OSM   H17G14721   1.310   4.436   7.964  0.4845 -0.0250 -1.5325
  135OSM   C18F14722   1.234   4.613   8.070  0.1585 -0.0470 -0.2006
  135OSM   H18F14723   1.320   4.653   8.129  0.7010 -2.1478  0.5307
  135OSM   H18G14724   1.165   4.553   8.131 -1.0743  2.4868  1.0570
  135OSM   H18H14725   1.175   4.700   8.034  0.5848  0.8627  1.2245
  136OSM      N14726   4.319   6.485   5.570 -0.3783  0.2500  0.3975
  136OSM    C1514727   4.373   6.492   5.430  0.5889  0.4439  0.2727
  136OSM   H15A14728   4.481   6.491   5.430  0.6264 -1.5532 -0.9433
  136OSM   H15B14729   4.328   6.571   5.372 -1.2820 -0.4987  0.3661
  136OSM   H15C14730   4.344   6.400   5.382 -0.6754  0.5920  0.7165
  136OSM    C1414731   4.334   6.617   5.643  0.0769  0.1790 -0.6427
  136OSM   H14A14732   4.438   6.644   5.627  0.1820  0.4342  0.4559
  136OSM   H14B14733   4.298   6.612   5.744 -1.5282  0.3144 -1.1811
  136OSM   H14C14734   4.257   6.686   5.613 -1.4327  0.0348  2.5510
  136OSM    C1314735   4.172   6.460   5.560 -0.4340  0.0955  0.2000
  136OSM   H13A14736   4.149   6.363   5.518 -0.4076  0.7584 -1.4195
  136OSM   H13B14737   4.132   6.545   5.507 -1.4198  0.5069  1.5206
  136OSM   H13C14738   4.118   6.467   5.654 -1.8004  2.4388 -0.6543
  136OSM    C1214739   4.397   6.379   5.653  0.0753 -0.2397 -0.3749
  136OSM   H12A14740   4.393   6.285   5.601 -1.0793 -1.4537  1.7929
  136OSM   H12B14741   4.345   6.366   5.746  0.3152  1.0615 -0.0395
  136OSM    C1114742   4.543   6.417   5.690 -0.7462 -0.3386  0.4122
  136OSM   H11A14743   4.585   6.342   5.761  0.8639 -0.5372 -0.6923
  136OSM   H11B14744   4.551   6.515   5.741  0.2367  1.6950 -3.3092
  136OSM      P14745   4.760   6.518   5.577  0.0859  0.0008 -0.0571
  136OSM    O1314746   4.834   6.483   5.454 -0.2194 -0.1275 -0.2278
  136OSM    O1414747   4.714   6.659   5.585  1.3355 -0.2441 -0.0085
  136OSM    O1114748   4.842   6.487   5.710  0.6075 -0.1487 -0.3005
  136OSM    O1214749   4.636   6.418   5.582  0.2259  0.6286 -0.4779
  136OSM    C1S14750   4.875   6.363   5.772 -0.4019  0.6584 -0.0029
  136OSM    H1S14751   4.944   6.311   5.702 -1.0577  3.3629 -2.9077
  136OSM    H1T14752   4.785   6.303   5.798 -1.3071  2.0777  0.2200
  136OSM     NF14753   4.983   6.235   5.961  0.1114  0.1053 -0.7169
  136OSM    HNF14754   4.921   6.197   6.029 -0.2334  2.1257  0.1714
  136OSM    C2S14755   4.945   6.363   5.917  0.2938  0.0594 -0.0677
  136OSM    H2S14756   5.037   6.426   5.918  0.5489 -0.2836  2.0748
  136OSM    C3S14757   4.844   6.433   6.011  0.2953  0.2070 -0.3691
  136OSM    H3S14758   4.749   6.379   5.994  1.7935 -1.8115 -3.0855
  136OSM     O314759   4.827   6.576   5.979  0.4097 -0.4462 -1.0436
  136OSM    HO314760   4.839   6.564   5.884 -1.1150 -1.4513 -1.1405
  136OSM    C4S14761   4.874   6.424   6.155  0.1685  1.0610  0.0616
  136OSM    H4S14762   4.793   6.393   6.221  1.9746 -1.1159  1.4016
  136OSM    C5S14763   4.996   6.456   6.206  0.0864  1.3438 -0.0491
  136OSM    H5S14764   5.071   6.497   6.137 -0.2479  1.8782 -0.0963
  136OSM    C6S14765   5.034   6.464   6.350  0.3405 -0.2829 -0.4633
  136OSM    H6S14766   5.093   6.555   6.376  3.7609 -2.4937  0.0898
  136OSM    H6T14767   5.115   6.390   6.366  3.0767  2.4317 -0.7210
  136OSM    C7S14768   4.926   6.447   6.458 -0.3494  0.1073 -0.8211
  136OSM    H7S14769   4.857   6.364   6.433  2.1774 -2.3859 -0.1524
  136OSM    H7T14770   4.876   6.544   6.475 -0.1040 -0.1001  1.2883
  136OSM    C8S14771   5.000   6.423   6.594 -0.3533 -0.1328  0.2184
  136OSM    H8S14772   5.072   6.503   6.620  1.1648 -1.7354  1.1343
  136OSM    H8T14773   5.051   6.324   6.585 -1.9875 -1.0531  0.6159
  136OSM    C9S14774   4.895   6.416   6.702 -0.3895  0.1927 -1.2946
  136OSM    H9S14775   4.812   6.344   6.686 -2.7823  2.1561  1.2034
  136OSM    H9T14776   4.830   6.506   6.690 -1.3621 -0.6324 -2.4531
  136OSM   C10S14777   4.946   6.414   6.850  0.1281 -0.6968  0.2469
  136OSM   H10S14778   5.033   6.482   6.856  1.4922 -2.0928 -2.2326
  136OSM   H10T14779   4.980   6.311   6.876  1.1221 -0.0757  1.5128
  136OSM   C11S14780   4.847   6.464   6.965 -0.9144  0.0981 -0.6105
  136OSM   H11S14781   4.763   6.391   6.962  1.1616 -2.4798  0.0977
  136OSM   H11T14782   4.797   6.560   6.940 -4.1418 -1.1005  0.6231
  136OSM   C12S14783   4.911   6.467   7.107 -0.1295  0.8163 -0.2253
  136OSM   H12S14784   5.001   6.532   7.113  0.5236 -0.1005  0.2528
  136OSM   H12T14785   4.948   6.365   7.133  1.1967  1.8495  2.1963
  136OSM   C13S14786   4.805   6.493   7.213  0.1047 -0.8815  0.4316
  136OSM   H13S14787   4.720   6.422   7.206  0.5295 -1.2574 -1.4051
  136OSM   H13T14788   4.759   6.593   7.203 -1.3526 -1.6429 -0.8883
  136OSM   C14S14789   4.862   6.471   7.355  0.6165  0.2030 -0.7521
  136OSM   H14S14790   4.937   6.553   7.364  0.6051  0.0350  1.3823
  136OSM   H14T14791   4.911   6.371   7.365 -2.4010 -1.6912 -3.2457
  136OSM   C15S14792   4.741   6.485   7.459  0.3454  0.1226  0.1710
  136OSM   H15S14793   4.671   6.399   7.461  0.1737  0.2746  1.8465
  136OSM   H15T14794   4.687   6.579   7.437 -1.9207 -1.5919 -2.1703
  136OSM   C16S14795   4.786   6.510   7.605 -0.0604 -0.2058  0.6064
  136OSM   H16S14796   4.697   6.534   7.667  2.1414  3.1899  2.8452
  136OSM   H16T14797   4.855   6.597   7.617 -1.0435  1.2530 -3.0426
  136OSM   C17S14798   4.832   6.372   7.656  0.1561 -0.8559 -0.3339
  136OSM   H17S14799   4.919   6.352   7.589  0.5721  1.2931 -0.5253
  136OSM   H17T14800   4.754   6.295   7.638 -0.9383  0.4774 -1.6400
  136OSM   C18S14801   4.889   6.363   7.798  0.2218  0.8614 -0.1035
  136OSM   H18S14802   4.907   6.260   7.835  1.6519  1.1299 -0.0233
  136OSM   H18T14803   4.822   6.403   7.878  0.5218 -1.0398  1.1719
  136OSM   H18U14804   4.987   6.413   7.813  0.1178  0.0969  4.4252
  136OSM    C1F14805   5.090   6.171   5.903  0.1144 -0.1411  0.4469
  136OSM     OF14806   5.168   6.231   5.830 -0.2955  0.2254 -0.1156
  136OSM    C2F14807   5.115   6.033   5.940 -0.6129  0.1523  0.0328
  136OSM    H2F14808   5.145   5.972   5.852  0.3972 -0.6553  0.9134
  136OSM    H2G14809   5.026   5.988   5.990 -1.4163  1.3299 -0.2960
  136OSM    C3F14810   5.234   6.025   6.038  0.3565  0.0222  0.1353
  136OSM    H3F14811   5.319   6.086   6.002 -0.0571  1.3021  1.2583
  136OSM    H3G14812   5.264   5.919   6.053 -0.2588 -0.0956  0.5841
  136OSM    C4F14813   5.198   6.073   6.178 -0.4054 -0.9972 -0.4820
  136OSM    H4F14814   5.131   6.002   6.231  1.1097 -2.6688 -0.6983
  136OSM    H4G14815   5.145   6.171   6.178 -0.0916 -0.6847  3.0262
  136OSM    C5F14816   5.313   6.079   6.265  0.4101  0.2864 -0.8811
  136OSM    H5F14817   5.382   6.155   6.223  0.5830 -0.3102 -1.7127
  136OSM    H5G14818   5.357   5.977   6.260 -0.2540  0.0155 -1.3710
  136OSM    C6F14819   5.287   6.116   6.410  0.1399  0.9135  0.2221
  136OSM    H6F14820   5.215   6.037   6.439  0.8696 -0.5960 -1.9010
  136OSM    H6G14821   5.258   6.220   6.438 -2.6734 -0.1401  1.5868
  136OSM    C7F14822   5.415   6.079   6.490 -0.1251  0.2375  0.3624
  136OSM    H7F14823   5.494   6.143   6.445 -0.2129  0.2593  0.2381
  136OSM    H7G14824   5.462   5.980   6.471  2.7534  1.7758 -1.1778
  136OSM    C8F14825   5.396   6.103   6.638 -0.2386 -0.1860 -0.1395
  136OSM    H8F14826   5.333   6.193   6.652 -1.3491 -0.6714 -1.7269
  136OSM    H8G14827   5.497   6.123   6.679 -0.2505  0.8031 -0.5609
  136OSM    C9F14828   5.326   5.981   6.686 -0.0172 -0.9859 -0.6054
  136OSM    H9F14829   5.243   5.939   6.628  1.1809 -0.0605 -3.1569
  136OSM   C10F14830   5.358   5.908   6.788  0.6412  0.1547 -0.2340
  136OSM   H10F14831   5.288   5.827   6.812  0.1984  0.7531  0.5324
  136OSM   C11F14832   5.465   5.931   6.887 -0.0916 -0.0701 -0.4257
  136OSM   H11F14833   5.521   6.028   6.890 -2.4907  1.3946 -0.4111
  136OSM   H11G14834   5.541   5.852   6.867 -0.2375 -0.3552  0.1434
  136OSM   C12F14835   5.408   5.907   7.032 -0.2362  0.0989 -0.1032
  136OSM   H12F14836   5.502   5.894   7.089 -0.1497 -2.4075 -0.7202
  136OSM   H12G14837   5.356   5.809   7.030 -1.2947  0.6290  0.3877
  136OSM   C13F14838   5.323   6.023   7.089  0.3856 -0.3119  0.7937
  136OSM   H13F14839   5.232   6.041   7.028 -1.1649 -1.4784  2.6337
  136OSM   H13G14840   5.379   6.118   7.081 -0.6437  0.1930 -1.0769
  136OSM   C14F14841   5.277   5.988   7.231  0.2371  0.3097  0.1705
  136OSM   H14F14842   5.356   5.927   7.280 -1.5533 -1.0887  1.4419
  136OSM   H14G14843   5.176   5.943   7.233 -0.1280  1.1136  0.1699
  136OSM   C15F14844   5.255   6.110   7.328  0.2770  0.3437  0.0149
  136OSM   H15F14845   5.166   6.170   7.300  0.2387  1.1187  1.6799
  136OSM   H15G14846   5.346   6.173   7.324  0.2607  0.4789  1.3433
  136OSM   C16F14847   5.228   6.072   7.477 -0.3284  0.4296 -1.1869
  136OSM   H16F14848   5.301   5.995   7.509 -0.5579 -0.0355 -1.7652
  136OSM   H16G14849   5.122   6.037   7.484 -0.4325  0.9874  0.6594
  136OSM   C17F14850   5.238   6.184   7.581 -0.1435 -0.4472 -0.4586
  136OSM   H17F14851   5.162   6.264   7.573 -0.1456 -0.4237 -0.2286
  136OSM   H17G14852   5.332   6.242   7.567 -0.4285  0.2344  0.3563
  136OSM   C18F14853   5.224   6.130   7.723 -0.1486 -0.3094  0.1737
  136OSM   H18F14854   5.127   6.077   7.733 -0.6025  0.6581  1.0811
  136OSM   H18G14855   5.249   6.207   7.799  1.9198 -0.3485 -0.4056
  136OSM   H18H14856   5.309   6.059   7.736 -0.4639 -0.6482  0.4018
  137OSM      N14857   1.885   2.680   5.875  0.0354  0.1448 -0.8841
  137OSM    C1514858   1.892   2.826   5.898  0.4015 -0.0184 -0.1201
  137OSM   H15A14859   1.943   2.843   5.991  1.4682  1.2100 -0.8967
  137OSM   H15B14860   1.794   2.868   5.914  0.7551  0.4853  0.7809
  137OSM   H15C14861   1.946   2.879   5.820  0.3028 -0.3404 -0.4099
  137OSM    C1414862   1.799   2.643   5.759 -0.0215 -0.6249  0.6837
  137OSM   H14A14863   1.843   2.683   5.669  0.9542 -1.9661  0.5395
  137OSM   H14B14864   1.705   2.692   5.780 -0.9713 -2.3365  0.6072
  137OSM   H14C14865   1.787   2.536   5.748 -1.6925 -0.4000  0.0435
  137OSM    C1314866   2.021   2.632   5.848  0.4545 -0.4210 -0.1649
  137OSM   H13A14867   2.086   2.656   5.931 -1.0944 -2.1488  1.6600
  137OSM   H13B14868   2.066   2.676   5.760  1.1019 -1.6378 -0.4615
  137OSM   H13C14869   2.033   2.525   5.838  1.4090 -0.4631  1.0990
  137OSM    C1214870   1.839   2.599   6.001 -0.3328  0.1895 -0.3343
  137OSM   H12A14871   1.853   2.497   5.970  0.1196  0.8859 -2.5835
  137OSM   H12B14872   1.736   2.631   6.001  0.2875  2.3355  0.1236
  137OSM    C1114873   1.914   2.622   6.133  0.7542 -0.8593 -0.4495
  137OSM   H11A14874   2.018   2.582   6.131  1.0368 -0.1276 -0.7286
  137OSM   H11B14875   1.858   2.556   6.201  0.5061 -1.7695 -1.5055
  137OSM      P14876   1.803   2.815   6.268  0.2512  0.4404  0.0195
  137OSM    O1314877   1.823   2.961   6.275  0.4074 -0.0798 -0.1293
  137OSM    O1414878   1.675   2.769   6.219  0.7355 -0.3217  0.0107
  137OSM    O1114879   1.826   2.737   6.405 -0.2109 -0.6227 -0.3243
  137OSM    O1214880   1.917   2.761   6.180 -0.3967  0.0159  0.4890
  137OSM    C1S14881   1.797   2.784   6.537 -0.4833 -0.0867 -0.0225
  137OSM    H1S14882   1.809   2.894   6.547  0.2773 -0.2552  1.1389
  137OSM    H1T14883   1.865   2.731   6.608 -0.5338  0.1314  0.1889
  137OSM     NF14884   1.627   2.808   6.711 -0.3080 -0.4137 -0.4814
  137OSM    HNF14885   1.625   2.738   6.782 -1.8992 -1.6710 -1.6814
  137OSM    C2S14886   1.655   2.746   6.582 -0.7407 -0.7162 -0.6509
  137OSM    H2S14887   1.587   2.782   6.502 -0.4577 -0.0834 -0.6151
  137OSM    C3S14888   1.637   2.593   6.587  0.3504 -0.1273  0.3564
  137OSM    H3S14889   1.712   2.555   6.659  0.3997 -1.8339 -0.5315
  137OSM     O314890   1.662   2.531   6.462  0.4964  0.2937 -0.1406
  137OSM    HO314891   1.750   2.563   6.441  0.4277 -0.1036 -1.1093
  137OSM    C4S14892   1.486   2.561   6.627  0.0591  0.8074 -0.1569
  137OSM    H4S14893   1.407   2.586   6.554 -1.0077 -0.4908  0.4996
  137OSM    C5S14894   1.458   2.500   6.747 -0.4076  0.5076  0.3721
  137OSM    H5S14895   1.542   2.468   6.811 -0.4861 -1.1593 -0.3081
  137OSM    C6S14896   1.320   2.465   6.803 -0.5410 -0.3651  0.0387
  137OSM    H6S14897   1.280   2.363   6.791  1.6965 -1.1729 -1.0649
  137OSM    H6T14898   1.239   2.537   6.778 -0.5310 -0.0188  0.9711
  137OSM    C7S14899   1.323   2.491   6.952  0.2072 -0.0357  0.3194
  137OSM    H7S14900   1.356   2.597   6.956 -0.9758  0.4401 -1.3897
  137OSM    H7T14901   1.395   2.419   6.996 -0.3196 -0.5526  0.3411
  137OSM    C8S14902   1.190   2.463   7.026 -0.3039 -1.4287 -0.5210
  137OSM    H8S14903   1.148   2.365   6.994  0.1313 -0.6832 -3.7459
  137OSM    H8T14904   1.118   2.538   6.987  2.5418  3.0711  1.9868
  137OSM    C9S14905   1.177   2.478   7.181 -0.6081 -0.4674  0.1590
  137OSM    H9S14906   1.221   2.576   7.211 -0.4734  0.1027 -1.7738
  137OSM    H9T14907   1.238   2.396   7.225  0.9126  0.8820  0.6954
  137OSM   C10S14908   1.028   2.472   7.215  0.6966  0.1864 -0.4978
  137OSM   H10S14909   0.982   2.385   7.162  0.5906 -0.6662  0.9578
  137OSM   H10T14910   0.988   2.570   7.180  1.8192  1.0624  0.5925
  137OSM   C11S14911   1.002   2.447   7.368  0.2509 -0.4077 -1.0106
  137OSM   H11S14912   1.066   2.362   7.399  0.1816 -0.0870  0.0406
  137OSM   H11T14913   0.895   2.418   7.380  0.5999 -1.0970  0.8075
  137OSM   C12S14914   1.038   2.568   7.456 -0.4606  0.1625  0.3569
  137OSM   H12S14915   0.973   2.645   7.410  2.2344  1.2108 -1.9621
  137OSM   H12T14916   1.144   2.590   7.431 -0.6073  0.2702 -0.1878
  137OSM   C13S14917   0.997   2.525   7.603 -0.6251 -0.6001 -1.2332
  137OSM   H13S14918   1.077   2.454   7.636 -1.1433 -0.5456  0.2438
  137OSM   H13T14919   0.900   2.471   7.599 -0.3643 -0.9951 -4.0606
  137OSM   C14S14920   1.008   2.647   7.700  0.2741 -0.5954 -0.2903
  137OSM   H14S14921   0.925   2.711   7.664  1.6475  0.1943 -2.1563
  137OSM   H14T14922   1.106   2.699   7.702 -0.0658  0.0949  2.3918
  137OSM   C15S14923   0.973   2.605   7.845 -0.6608  0.4010  0.4460
  137OSM   H15S14924   1.035   2.518   7.874 -0.3431  0.8746  1.2254
  137OSM   H15T14925   0.873   2.559   7.859 -0.3787 -0.5920 -0.6198
  137OSM   C16S14926   1.009   2.707   7.958  0.2930  0.1119  0.5815
  137OSM   H16S14927   1.090   2.776   7.926  1.1507 -1.6280 -1.2208
  137OSM   H16T14928   1.049   2.650   8.045  0.3305 -1.5993 -0.5191
  137OSM   C17S14929   0.886   2.786   8.006 -0.4846  0.8990  0.6202
  137OSM   H17S14930   0.816   2.704   8.031  2.2289 -1.1752  1.8630
  137OSM   H17T14931   0.821   2.839   7.932 -1.5992  0.4675  1.2677
  137OSM   C18S14932   0.903   2.880   8.128  0.7122  0.5321 -0.6247
  137OSM   H18S14933   0.810   2.916   8.177  1.1263  0.0386  0.5673
  137OSM   H18T14934   0.951   2.972   8.089 -0.5004  1.7699  0.7103
  137OSM   H18U14935   0.961   2.829   8.208  0.3714  0.1928 -0.5890
  137OSM    C1F14936   1.629   2.935   6.735  0.4784 -0.2241 -0.1516
  137OSM     OF14937   1.643   3.016   6.646 -0.3405 -0.1127  0.5735
  137OSM    C2F14938   1.579   2.978   6.872  0.1076  0.2871  0.4711
  137OSM    H2F14939   1.515   2.892   6.899 -1.7523  1.5061  0.1018
  137OSM    H2G14940   1.502   3.058   6.867 -0.3390 -0.0422  1.6778
  137OSM    C3F14941   1.690   3.007   6.970  0.3465 -0.2596 -0.0041
  137OSM    H3F14942   1.738   3.101   6.933  0.8790 -0.3722  0.3860
  137OSM    H3G14943   1.772   2.932   6.973  1.5678  0.8578 -2.5052
  137OSM    C4F14944   1.633   3.039   7.109  0.0003  0.2710  0.0451
  137OSM    H4F14945   1.591   2.949   7.159  0.1050 -0.2348 -0.7614
  137OSM    H4G14946   1.542   3.102   7.108  1.8717  3.1956  0.7465
  137OSM    C5F14947   1.738   3.115   7.204  0.1290  0.2473 -0.9983
  137OSM    H5F14948   1.757   3.215   7.160 -1.0209  1.8840  1.9607
  137OSM    H5G14949   1.832   3.056   7.201 -0.9733 -1.5535 -1.9425
  137OSM    C6F14950   1.690   3.141   7.349 -0.3459  0.2881 -0.0715
  137OSM    H6F14951   1.672   3.039   7.388  0.7702 -0.3264 -1.0905
  137OSM    H6G14952   1.597   3.200   7.334  0.0995  1.5154  1.6201
  137OSM    C7F14953   1.791   3.195   7.454 -0.2209  0.2034  0.9026
  137OSM    H7F14954   1.865   3.244   7.389 -0.9999 -0.6836 -0.7062
  137OSM    H7G14955   1.841   3.109   7.505  0.4771 -1.4537 -2.3457
  137OSM    C8F14956   1.731   3.290   7.559 -0.5453 -0.1441  1.0256
  137OSM    H8F14957   1.669   3.373   7.519 -3.4827 -1.9420  1.5955
  137OSM    H8G14958   1.814   3.345   7.610 -2.6550  2.0825  2.2950
  137OSM    C9F14959   1.662   3.212   7.663  0.0004  0.5400 -0.3526
  137OSM    H9F14960   1.572   3.159   7.628  0.4222 -0.3218 -0.1650
  137OSM   C10F14961   1.694   3.208   7.795  0.4545  0.0254  0.3092
  137OSM   H10F14962   1.645   3.136   7.862 -2.7606  1.0775 -0.7158
  137OSM   C11F14963   1.799   3.285   7.865  0.0075 -1.1198 -0.0029
  137OSM   H11F14964   1.768   3.329   7.963  0.7708 -0.7596  0.0891
  137OSM   H11G14965   1.834   3.377   7.812 -1.7423  0.0496  0.7910
  137OSM   C12F14966   1.918   3.198   7.906  0.2578  0.2509 -0.4492
  137OSM   H12F14967   1.955   3.145   7.816  0.8765 -0.1953  0.0575
  137OSM   H12G14968   1.884   3.120   7.978  1.2329  0.3285  0.1100
  137OSM   C13F14969   2.034   3.270   7.975 -0.1329  0.3869 -0.3895
  137OSM   H13F14970   2.006   3.304   8.077 -0.9199 -3.5094  0.8788
  137OSM   H13G14971   2.069   3.353   7.911 -1.4001 -0.4418 -2.2354
  137OSM   C14F14972   2.150   3.171   8.014 -0.5302 -0.1233 -0.0429
  137OSM   H14F14973   2.236   3.224   8.062 -1.6630  0.4813  1.3980
  137OSM   H14G14974   2.177   3.123   7.918  0.6955  0.8974 -0.2353
  137OSM   C15F14975   2.108   3.068   8.113  0.3988  0.2379  0.4156
  137OSM   H15F14976   2.047   2.984   8.072 -0.2726 -0.1656  2.1450
  137OSM   H15G14977   2.051   3.120   8.193 -0.4333 -0.5602  0.3521
  137OSM   C16F14978   2.227   3.008   8.185  0.0144 -0.1570 -0.2542
  137OSM   H16F14979   2.275   3.082   8.253 -1.2838 -0.3927  0.9583
  137OSM   H16G14980   2.307   2.970   8.119  3.1227  3.1087  1.3219
  137OSM   C17F14981   2.188   2.895   8.287 -0.9717  0.1756 -0.8113
  137OSM   H17F14982   2.148   2.814   8.223  0.8978  0.2193 -2.1259
  137OSM   H17G14983   2.115   2.928   8.364 -0.2285 -2.4525  1.1655
  137OSM   C18F14984   2.312   2.841   8.358 -0.0815 -0.1657  0.3375
  137OSM   H18F14985   2.379   2.798   8.280  1.5242  1.6580  0.6256
  137OSM   H18G14986   2.290   2.745   8.410  0.2603 -0.2163  0.3913
  137OSM   H18H14987   2.368   2.914   8.421  0.3753 -2.0802  2.2761
  138OSM      N14988   2.335   4.022   5.890 -0.0604 -1.0961 -0.3607
  138OSM    C1514989   2.277   4.064   5.755 -0.3533 -0.5830  0.6661
  138OSM   H15A14990   2.333   4.151   5.723 -0.1293 -1.4290 -1.3289
  138OSM   H15B14991   2.172   4.086   5.756 -0.0717  0.8746  0.6190
  138OSM   H15C14992   2.302   3.990   5.681  0.9480 -0.1595  0.6457
  138OSM    C1414993   2.261   3.893   5.944 -0.7738 -0.2935 -0.3248
  138OSM   H14A14994   2.314   3.836   6.018 -0.1844 -0.9122 -1.2145
  138OSM   H14B14995   2.241   3.819   5.869 -0.6802 -1.8103  1.1036
  138OSM   H14C14996   2.163   3.917   5.984 -0.7795 -0.3818 -0.2848
  138OSM    C1314997   2.470   3.984   5.864 -0.0867 -0.4722  0.5132
  138OSM   H13A14998   2.518   3.957   5.957  0.1337 -1.0594  0.2315
  138OSM   H13B14999   2.535   4.061   5.826  1.7123 -2.0571  0.2094
  138OSM   H13C15000   2.479   3.897   5.801  1.8091 -1.5946  2.2263
  138OSM    C1215001   2.323   4.129   5.990 -0.2779 -0.2584 -0.7717
  138OSM   H12A15002   2.217   4.135   6.010 -0.1951  0.2390 -0.4431
  138OSM   H12B15003   2.361   4.222   5.949  0.1773  0.9736  2.1223
  138OSM    C1115004   2.415   4.123   6.115 -0.0129  0.0406  0.2868
  138OSM   H11A15005   2.406   4.027   6.171  2.7502  0.2266  1.1918
  138OSM   H11B15006   2.372   4.205   6.177 -0.4368  0.3952 -0.4621
  138OSM      P15007   2.615   4.284   6.046  0.3193 -0.3541 -0.2268
  138OSM    O1315008   2.765   4.274   6.040  0.1560  0.1619 -0.4088
  138OSM    O1415009   2.544   4.341   5.931  0.4272 -0.1713  0.3532
  138OSM    O1115010   2.570   4.350   6.176 -0.3798 -0.2720  0.1430
  138OSM    O1215011   2.556   4.138   6.074  0.1542 -0.3632  0.1443
  138OSM    C1S15012   2.604   4.292   6.305  0.2692 -0.4663 -0.4502
  138OSM    H1S15013   2.714   4.279   6.303  0.1220 -2.0178 -3.2764
  138OSM    H1T15014   2.567   4.188   6.316  0.8287 -0.5903  0.3579
  138OSM     NF15015   2.596   4.295   6.557  0.0912  0.3071  0.5050
  138OSM    HNF15016   2.519   4.257   6.608  1.5640 -0.8228  2.0169
  138OSM    C2S15017   2.565   4.370   6.436  0.0842  0.2677 -0.0751
  138OSM    H2S15018   2.627   4.462   6.438  0.6109 -0.0969  0.7999
  138OSM    C3S15019   2.424   4.415   6.430  0.4094 -0.0213 -0.1072
  138OSM    H3S15020   2.353   4.330   6.426 -0.9032  0.8972  1.9767
  138OSM     O315021   2.388   4.486   6.317 -0.1313 -0.0282  0.1669
  138OSM    HO315022   2.447   4.453   6.249  1.0178 -0.0772  1.1704
  138OSM    C4S15023   2.387   4.501   6.551  0.2633  0.1042  0.5952
  138OSM    H4S15024   2.469   4.571   6.573  0.8001  0.1587 -1.3821
  138OSM    C5S15025   2.277   4.495   6.628 -0.1877 -0.3159  0.9798
  138OSM    H5S15026   2.202   4.418   6.606 -1.4042  0.1021  3.2431
  138OSM    C6S15027   2.254   4.567   6.755  0.0167  0.2234 -0.1605
  138OSM    H6S15028   2.227   4.489   6.830  3.0363  1.2166  2.1524
  138OSM    H6T15029   2.167   4.636   6.759 -0.8181 -0.6813 -1.9708
  138OSM    C7S15030   2.375   4.649   6.810 -0.3827  0.5710  0.4382
  138OSM    H7S15031   2.412   4.715   6.729  1.3174  0.9706  1.4786
  138OSM    H7T15032   2.460   4.586   6.843 -1.1025 -1.0769 -0.7552
  138OSM    C8S15033   2.342   4.732   6.931 -0.1221  0.1337 -0.7631
  138OSM    H8S15034   2.268   4.810   6.903  1.2035  1.7890  0.1214
  138OSM    H8T15035   2.428   4.782   6.980 -0.4117 -1.7742  1.9498
  138OSM    C9S15036   2.281   4.642   7.050  0.9023 -0.1969  0.2001
  138OSM    H9S15037   2.354   4.559   7.058  1.6524  0.4842  0.5268
  138OSM    H9T15038   2.180   4.600   7.029  0.8545  0.3817 -0.8078
  138OSM   C10S15039   2.271   4.721   7.183  0.8158  0.8351  0.7405
  138OSM   H10S15040   2.353   4.796   7.191  1.5897  0.0845  0.1402
  138OSM   H10T15041   2.285   4.649   7.267 -1.3461 -0.7379 -0.1382
  138OSM   C11S15042   2.136   4.787   7.206 -0.5402  0.3075  0.2914
  138OSM   H11S15043   2.055   4.712   7.213 -0.4105  0.2624  1.4538
  138OSM   H11T15044   2.111   4.859   7.125 -0.0836  2.5177  1.9965
  138OSM   C12S15045   2.129   4.866   7.337 -0.2690 -0.0978  0.6063
  138OSM   H12S15046   2.212   4.941   7.337  0.8041 -1.1845 -1.5826
  138OSM   H12T15047   2.152   4.794   7.418  1.4864 -0.0273  0.2222
  138OSM   C13S15048   1.997   4.946   7.356 -1.0336  0.4565  0.5405
  138OSM   H13S15049   1.928   4.866   7.392  0.8849 -0.9585  1.2857
  138OSM   H13T15050   1.976   5.000   7.262 -1.5351 -0.8636 -0.1433
  138OSM   C14S15051   1.997   5.051   7.472  0.2932  0.9396 -0.4627
  138OSM   H14S15052   1.909   5.115   7.450 -0.3104  0.3347  0.1796
  138OSM   H14T15053   2.097   5.101   7.471  1.5891 -1.4872 -0.4741
  138OSM   C15S15054   1.988   4.985   7.606  0.3989 -0.1810 -1.0947
  138OSM   H15S15055   2.087   4.951   7.640  0.3890  0.7330 -0.0966
  138OSM   H15T15056   1.916   4.901   7.599 -0.7418  0.4331  1.7788
  138OSM   C16S15057   1.930   5.090   7.709 -0.0452 -0.3547 -0.2792
  138OSM   H16S15058   1.831   5.127   7.674 -0.5490 -1.9525 -0.6159
  138OSM   H16T15059   2.003   5.174   7.702  0.0711 -0.5894 -2.6449
  138OSM   C17S15060   1.935   5.032   7.850 -0.1114 -0.2507 -0.0381
  138OSM   H17S15061   2.041   5.011   7.876  0.6919  2.1587 -1.1480
  138OSM   H17T15062   1.875   4.938   7.851  2.5885 -2.1147 -1.8871
  138OSM   C18S15063   1.885   5.134   7.958 -0.4109  0.6021  0.0362
  138OSM   H18S15064   1.974   5.177   8.009 -1.1389  0.2153  1.6939
  138OSM   H18T15065   1.822   5.074   8.027  1.3872 -1.1884  0.2424
  138OSM   H18U15066   1.833   5.216   7.905 -1.6929  0.4354  0.9989
  138OSM    C1F15067   2.719   4.264   6.598 -0.1830  0.2241  0.0627
  138OSM     OF15068   2.819   4.309   6.538 -0.1182 -0.1796 -0.2869
  138OSM    C2F15069   2.736   4.177   6.715  0.0951 -0.3864  0.4454
  138OSM    H2F15070   2.699   4.078   6.681 -1.6385  0.6626 -0.9148
  138OSM    H2G15071   2.676   4.211   6.802  0.6945 -0.1215  0.7610
  138OSM    C3F15072   2.884   4.163   6.760 -0.0799 -0.4985 -0.2512
  138OSM    H3F15073   2.922   4.261   6.797 -0.9293  0.6316 -2.1974
  138OSM    H3G15074   2.954   4.127   6.682 -0.7170 -1.8661 -0.2234
  138OSM    C4F15075   2.890   4.073   6.881  0.2644  0.0604  0.5227
  138OSM    H4F15076   2.976   4.003   6.876 -0.9198 -1.3481 -1.2956
  138OSM    H4G15077   2.790   4.025   6.883 -1.1340  2.7664  0.2498
  138OSM    C5F15078   2.901   4.146   7.014  0.7679 -0.3758  0.1358
  138OSM    H5F15079   2.810   4.205   7.037 -0.2971 -1.7300 -0.4449
  138OSM    H5G15080   2.986   4.218   7.012  1.1402 -0.7735  1.2821
  138OSM    C6F15081   2.920   4.056   7.140  0.0565 -0.3940 -0.3551
  138OSM    H6F15082   3.018   4.005   7.129 -0.1236 -0.9564  0.5136
  138OSM    H6G15083   2.842   3.977   7.132 -0.1876 -0.3692  1.3419
  138OSM    C7F15084   2.901   4.136   7.275 -0.0867 -0.1099  0.6781
  138OSM    H7F15085   2.896   4.069   7.363  1.1209  0.3693  1.1351
  138OSM    H7G15086   2.805   4.192   7.279 -1.4963 -2.0141 -2.5210
  138OSM    C8F15087   3.024   4.229   7.308 -0.4185  0.3703 -0.1368
  138OSM    H8F15088   3.001   4.299   7.391  0.9382 -1.5203  1.9390
  138OSM    H8G15089   3.034   4.287   7.214  4.9661  0.5007  0.2150
  138OSM    C9F15090   3.154   4.149   7.330  0.5627  0.0160 -0.4556
  138OSM    H9F15091   3.159   4.056   7.272 -1.1523 -0.4014  0.0081
  138OSM   C10F15092   3.233   4.172   7.433 -0.3387  0.3172  0.3362
  138OSM   H10F15093   3.331   4.123   7.425 -0.4620  0.2375 -0.9825
  138OSM   C11F15094   3.230   4.285   7.529  0.4796 -0.5223 -0.1350
  138OSM   H11F15095   3.245   4.245   7.632 -1.5490 -1.7908 -0.2933
  138OSM   H11G15096   3.132   4.337   7.531  0.9457  0.3562  0.4148
  138OSM   C12F15097   3.343   4.394   7.511  0.6024 -0.0699 -0.1818
  138OSM   H12F15098   3.441   4.360   7.552  0.1106 -2.0677 -0.5591
  138OSM   H12G15099   3.303   4.482   7.565  1.2142  1.2443 -1.7671
  138OSM   C13F15100   3.357   4.442   7.369  0.3190  0.2678  0.7420
  138OSM   H13F15101   3.266   4.500   7.343  0.0763  0.2480  1.5086
  138OSM   H13G15102   3.367   4.359   7.295 -0.8372 -1.6673  2.6233
  138OSM   C14F15103   3.451   4.559   7.360  0.0780 -0.5357 -1.2403
  138OSM   H14F15104   3.553   4.523   7.386  0.2608  1.1281  0.6535
  138OSM   H14G15105   3.423   4.643   7.428  0.7013 -1.0043 -0.3697
  138OSM   C15F15106   3.457   4.635   7.217 -0.2642  0.5183 -0.1866
  138OSM   H15F15107   3.531   4.717   7.213  0.1526  0.1656  0.1179
  138OSM   H15G15108   3.358   4.680   7.197 -1.7260 -2.4900 -0.3014
  138OSM   C16F15109   3.483   4.542   7.095  0.5294 -0.0029  0.1361
  138OSM   H16F15110   3.393   4.495   7.052  0.5110  0.8897 -0.8329
  138OSM   H16G15111   3.552   4.463   7.134  0.5692 -0.4383 -0.7718
  138OSM   C17F15112   3.544   4.610   6.975 -0.3764  0.0049  1.4149
  138OSM   H17F15113   3.579   4.530   6.906 -3.6865  0.9793 -1.7223
  138OSM   H17G15114   3.628   4.677   6.999 -1.1941  1.1638  1.1256
  138OSM   C18F15115   3.438   4.689   6.898  0.2977 -0.3386 -0.3329
  138OSM   H18F15116   3.467   4.705   6.792  2.2190  0.4961  0.2664
  138OSM   H18G15117   3.425   4.790   6.943 -0.2957 -0.7065  0.3349
  138OSM   H18H15118   3.342   4.635   6.911 -1.1487  2.4860  1.9517
  139OSM      N15119   0.542   5.675   5.986 -0.3735 -0.6318  0.5460
  139OSM    C1515120   0.602   5.557   6.057  0.4615 -0.0364  0.1513
  139OSM   H15A15121   0.562   5.552   6.158 -1.8560  0.1673 -0.7039
  139OSM   H15B15122   0.710   5.560   6.056  0.4661  1.8563 -2.5616
  139OSM   H15C15123   0.573   5.468   6.004  0.9987 -0.0557 -0.1137
  139OSM    C1415124   0.604   5.656   5.845  0.3272  0.3074 -0.3736
  139OSM   H14A15125   0.703   5.697   5.844  0.0769  0.9199 -0.7190
  139OSM   H14B15126   0.544   5.705   5.770  1.4751 -0.5026 -1.8638
  139OSM   H14C15127   0.617   5.551   5.822 -2.0173  0.6223 -3.9218
  139OSM    C1315128   0.395   5.655   5.979 -0.5406  1.0846 -0.3902
  139OSM   H13A15129   0.356   5.706   5.892  3.2362  2.4090 -1.4726
  139OSM   H13B15130   0.342   5.690   6.066  0.6146 -0.3221  0.9277
  139OSM   H13C15131   0.374   5.550   5.965  1.9421  0.7967 -2.9823
  139OSM    C1215132   0.587   5.808   6.046  0.2983  0.3163 -0.3142
  139OSM   H12A15133   0.694   5.800   6.034  0.3200  0.5234 -0.2666
  139OSM   H12B15134   0.567   5.816   6.152  1.6518 -1.1674  0.0728
  139OSM    C1115135   0.536   5.939   5.981  0.1564 -0.4450 -0.4658
  139OSM   H11A15136   0.565   5.949   5.874  2.8275 -0.4245  0.1953
  139OSM   H11B15137   0.596   6.019   6.030  0.8266 -1.7295  0.8650
  139OSM      P15138   0.323   5.986   6.129  0.1338  0.0572  0.2504
  139OSM    O1315139   0.304   6.132   6.139  0.1485 -1.1776  0.0501
  139OSM    O1415140   0.200   5.902   6.146 -0.0993  0.2126 -0.0861
  139OSM    O1115141   0.429   5.945   6.240 -0.0348 -0.3786  0.0085
  139OSM    O1215142   0.391   5.953   5.990 -0.3794 -0.6859  0.1297
  139OSM    C1S15143   0.423   6.013   6.368 -0.6902 -0.8110 -0.6988
  139OSM    H1S15144   0.393   6.120   6.369  0.5692 -0.4473  0.5950
  139OSM    H1T15145   0.528   6.016   6.404 -1.0968 -0.5612  0.4851
  139OSM     NF15146   0.343   6.021   6.592 -0.4566  0.4494 -0.1993
  139OSM    HNF15147   0.426   5.998   6.641 -1.9081 -1.1720  1.6817
  139OSM    C2S15148   0.334   5.938   6.470 -0.0461  0.2232  0.0742
  139OSM    H2S15149   0.230   5.930   6.431 -0.5290  0.0332  1.3509
  139OSM    C3S15150   0.385   5.792   6.490 -0.1337  0.0592 -0.0250
  139OSM    H3S15151   0.493   5.809   6.509 -0.0043 -1.5011  0.7886
  139OSM     O315152   0.381   5.708   6.373  0.3746 -0.1739  0.8745
  139OSM    HO315153   0.384   5.772   6.303  0.6359 -1.8439 -0.7099
  139OSM    C4S15154   0.320   5.723   6.606 -0.4765  0.2171 -0.3246
  139OSM    H4S15155   0.210   5.726   6.598 -0.4940 -1.3211 -0.9846
  139OSM    C5S15156   0.383   5.662   6.706 -0.5741 -0.1166 -0.1282
  139OSM    H5S15157   0.491   5.640   6.702  0.1944  3.0092  0.3989
  139OSM    C6S15158   0.319   5.617   6.837 -0.5158 -0.0352 -0.3119
  139OSM    H6S15159   0.224   5.561   6.827  0.9061 -2.5982 -0.3810
  139OSM    H6T15160   0.287   5.710   6.887  0.1819 -0.4856  1.0268
  139OSM    C7S15161   0.414   5.543   6.931 -0.4607 -0.3427 -0.1538
  139OSM    H7S15162   0.506   5.604   6.944 -0.7192  0.3833 -1.5053
  139OSM    H7T15163   0.440   5.443   6.891  0.7612  0.6172 -1.9080
  139OSM    C8S15164   0.359   5.532   7.068  0.2260 -0.4389 -0.5746
  139OSM    H8S15165   0.287   5.448   7.076  0.2695 -0.4524 -0.2995
  139OSM    H8T15166   0.300   5.625   7.085 -0.6132 -1.1915  0.7908
  139OSM    C9S15167   0.446   5.539   7.190  0.3620  0.8205  0.2148
  139OSM    H9S15168   0.493   5.639   7.194  1.6905  0.2663 -0.8060
  139OSM    H9T15169   0.535   5.471   7.188  0.0148  0.3281 -2.2303
  139OSM   C10S15170   0.356   5.520   7.311  0.3410 -0.5369  0.1969
  139OSM   H10S15171   0.306   5.421   7.300  0.0228 -0.3823  0.2324
  139OSM   H10T15172   0.293   5.607   7.339  0.6158 -0.9352  2.2505
  139OSM   C11S15173   0.454   5.507   7.437  0.4262 -0.5380 -0.7655
  139OSM   H11S15174   0.518   5.597   7.439  0.4536 -0.5614  1.2340
  139OSM   H11T15175   0.530   5.426   7.434  1.5513  0.1863  2.8749
  139OSM   C12S15176   0.386   5.493   7.576 -0.2947 -0.2171 -0.0530
  139OSM   H12S15177   0.304   5.418   7.587  0.2109 -0.7744 -0.0407
  139OSM   H12T15178   0.354   5.596   7.602  0.3014 -0.2274  0.7479
  139OSM   C13S15179   0.482   5.459   7.679  0.6321  0.1563  0.9002
  139OSM   H13S15180   0.571   5.525   7.693  1.9857 -1.5962  0.8278
  139OSM   H13T15181   0.514   5.353   7.671 -0.6350 -0.3408  2.0097
  139OSM   C14S15182   0.427   5.449   7.823  0.1938  0.2105 -0.7819
  139OSM   H14S15183   0.347   5.371   7.822 -1.7459  2.0196  1.5866
  139OSM   H14T15184   0.369   5.542   7.841 -2.7847 -2.0168  2.6108
  139OSM   C15S15185   0.531   5.398   7.933 -0.0099  0.3385 -0.2200
  139OSM   H15S15186   0.601   5.334   7.875  0.8067  0.5064  0.5538
  139OSM   H15T15187   0.472   5.330   7.998  0.4147  0.3702  0.2097
  139OSM   C16S15188   0.594   5.511   8.002  0.1058 -0.7927 -0.2363
  139OSM   H16S15189   0.510   5.582   8.019 -0.6277 -1.7606  0.2760
  139OSM   H16T15190   0.666   5.572   7.943 -0.6599  2.0843  1.5476
  139OSM   C17S15191   0.667   5.468   8.125 -0.8374 -0.4123 -0.3868
  139OSM   H17S15192   0.742   5.390   8.102 -1.0904 -1.0650  0.9411
  139OSM   H17T15193   0.590   5.445   8.202 -0.8786  1.5236  0.1911
  139OSM   C18S15194   0.741   5.583   8.184 -0.1003 -0.3050 -0.2264
  139OSM   H18S15195   0.674   5.663   8.223 -0.8262 -1.2276  0.4807
  139OSM   H18T15196   0.799   5.628   8.101  0.3321  1.9532  1.2166
  139OSM   H18U15197   0.819   5.552   8.256  0.3583 -0.6022 -0.8469
  139OSM    C1F15198   0.251   6.110   6.615  0.0521 -0.8224  0.8226
  139OSM     OF15199   0.145   6.094   6.565  0.0296  0.0617  0.2031
  139OSM    C2F15200   0.285   6.220   6.711 -0.1907 -0.2127  0.0287
  139OSM    H2F15201   0.350   6.289   6.653  0.0295  0.1027  0.6553
  139OSM    H2G15202   0.337   6.183   6.801  1.2855 -0.9628 -1.0907
  139OSM    C3F15203   0.151   6.286   6.771 -0.9320  0.5229 -0.3098
  139OSM    H3F15204   0.080   6.208   6.806 -0.6423  1.1819  1.9032
  139OSM    H3G15205   0.100   6.346   6.692  0.7138  2.0737 -0.2514
  139OSM    C4F15206   0.174   6.377   6.891 -0.6716  0.6250  0.0457
  139OSM    H4F15207   0.081   6.435   6.907  0.0713  2.9102 -2.9985
  139OSM    H4G15208   0.256   6.448   6.867  1.9417 -2.5516 -1.2115
  139OSM    C5F15209   0.211   6.296   7.017  0.8239 -0.1481  0.1775
  139OSM    H5F15210   0.320   6.273   7.023  1.4239  2.2887 -0.3040
  139OSM    H5G15211   0.150   6.203   7.020 -0.7195  0.7798 -1.1398
  139OSM    C6F15212   0.194   6.380   7.140  0.3007  0.2045 -0.6737
  139OSM    H6F15213   0.116   6.456   7.116 -0.9972 -0.9972 -0.3675
  139OSM    H6G15214   0.288   6.437   7.158 -0.2097  0.9230 -0.2249
  139OSM    C7F15215   0.154   6.299   7.261 -0.8592 -0.7022  0.3770
  139OSM    H7F15216   0.234   6.226   7.286 -1.2000 -0.9344  0.8176
  139OSM    H7G15217   0.062   6.246   7.227 -0.4849  1.2446 -4.4933
  139OSM    C8F15218   0.131   6.388   7.390 -0.0134  0.0481  0.0752
  139OSM    H8F15219   0.070   6.336   7.467  1.9192 -1.1766  0.8602
  139OSM    H8G15220   0.070   6.478   7.367  0.4217 -0.2258 -2.4450
  139OSM    C9F15221   0.269   6.425   7.431 -0.1353 -0.7627 -0.2170
  139OSM    H9F15222   0.335   6.469   7.354 -0.1595 -2.0664 -1.0064
  139OSM   C10F15223   0.321   6.417   7.555  0.4795  0.4154 -0.0544
  139OSM   H10F15224   0.414   6.471   7.576  0.6407  0.4668 -0.8663
  139OSM   C11F15225   0.237   6.374   7.676 -0.0223 -0.4853  0.1583
  139OSM   H11F15226   0.246   6.268   7.710 -3.1865 -1.4461 -1.5567
  139OSM   H11G15227   0.130   6.385   7.646 -0.5863  0.7506  2.4205
  139OSM   C12F15228   0.271   6.468   7.796  0.1760  0.4166  0.7086
  139OSM   H12F15229   0.263   6.573   7.761 -1.5405  1.1503  3.0127
  139OSM   H12G15230   0.378   6.457   7.823  0.6082 -2.0162 -1.5596
  139OSM   C13F15231   0.173   6.452   7.923 -0.4228  0.8471 -0.2947
  139OSM   H13F15232   0.163   6.342   7.936  0.1836  0.7655 -0.5020
  139OSM   H13G15233   0.071   6.489   7.896  0.3782  2.3634 -1.4306
  139OSM   C14F15234   0.220   6.527   8.035  0.4652 -0.1024 -0.1976
  139OSM   H14F15235   0.214   6.637   8.017 -0.9142 -0.3978 -1.8354
  139OSM   H14G15236   0.329   6.510   8.042  0.9272  1.7818 -1.9276
  139OSM   C15F15237   0.148   6.486   8.163 -0.2531  0.3038 -0.2379
  139OSM   H15F15238   0.190   6.390   8.201 -2.5629 -0.7660 -0.2394
  139OSM   H15G15239   0.039   6.471   8.151 -0.9687  4.1491 -0.0075
  139OSM   C16F15240   0.169   6.597   8.274 -0.2079  0.3272 -0.0787
  139OSM   H16F15241   0.105   6.682   8.240 -0.1527 -0.3286 -1.9358
  139OSM   H16G15242   0.273   6.632   8.256  0.1011 -1.1028 -1.2981
  139OSM   C17F15243   0.164   6.556   8.426  0.2102  1.3164  0.8497
  139OSM   H17F15244   0.258   6.499   8.442  0.5941  2.1245  1.5800
  139OSM   H17G15245   0.080   6.485   8.443 -0.9730  2.0545 -1.4798
  139OSM   C18F15246   0.169   6.663   8.536 -0.3693 -0.3348 -0.4460
  139OSM   H18F15247   0.212   6.758   8.496 -1.2276 -0.6210 -2.0873
  139OSM   H18G15248   0.228   6.641   8.628 -1.7608  0.0962  0.5758
  139OSM   H18H15249   0.069   6.689   8.576 -1.1346 -2.7161 -0.7039
  140OSM      N15250   1.374   0.953   5.628  0.7653 -0.3496 -0.4082
  140OSM    C1515251   1.257   0.867   5.591  0.0002  0.0944  0.0073
  140OSM   H15A15252   1.162   0.906   5.624 -2.0471 -1.8557 -3.0601
  140OSM   H15B15253   1.263   0.762   5.617 -0.3821  0.0974  0.1281
  140OSM   H15C15254   1.250   0.868   5.484 -3.3659 -1.9455  0.0407
  140OSM    C1415255   1.500   0.901   5.564 -0.2386 -0.2134  0.0310
  140OSM   H14A15256   1.501   0.908   5.456 -2.1734  2.5221  0.0797
  140OSM   H14B15257   1.538   0.802   5.585  0.3151 -0.2465 -1.0494
  140OSM   H14C15258   1.582   0.963   5.599 -0.0479 -0.4285 -0.0312
  140OSM    C1315259   1.360   1.095   5.576  0.8171  0.4960 -0.3306
  140OSM   H13A15260   1.292   1.156   5.634  0.7483 -0.6024  0.7924
  140OSM   H13B15261   1.316   1.096   5.477 -1.4831  1.9574  0.6184
  140OSM   H13C15262   1.452   1.150   5.581  1.1730  0.0859 -1.9287
  140OSM    C1215263   1.399   0.953   5.781  0.3438 -0.4741 -0.2952
  140OSM   H12A15264   1.480   1.022   5.801  0.6428 -1.3737  1.9322
  140OSM   H12B15265   1.437   0.857   5.816  3.9107  1.1996  0.9490
  140OSM    C1115266   1.289   0.992   5.878  0.2833  0.2098 -0.3917
  140OSM   H11A15267   1.312   0.993   5.987 -0.6739 -2.1367 -0.1225
  140OSM   H11B15268   1.207   0.919   5.865 -0.2846  0.7660  0.0201
  140OSM      P15269   1.317   1.249   5.913  0.0757  0.3110 -0.2369
  140OSM    O1315270   1.466   1.251   5.904  0.0163  0.3010 -0.2984
  140OSM    O1415271   1.250   1.368   5.860 -0.8246 -0.3342  0.2019
  140OSM    O1115272   1.278   1.238   6.065 -0.2568  0.2435 -0.1430
  140OSM    O1215273   1.253   1.128   5.842  0.7259  0.1758  0.2688
  140OSM    C1S15274   1.147   1.245   6.121  0.1673 -0.4475  0.1789
  140OSM    H1S15275   1.108   1.141   6.120  1.6406 -1.0295 -0.7693
  140OSM    H1T15276   1.077   1.308   6.062 -1.2622 -1.0747  1.1583
  140OSM     NF15277   1.015   1.305   6.316 -0.4637  0.0706 -0.5397
  140OSM    HNF15278   0.975   1.394   6.297 -0.4145 -0.3502 -3.0172
  140OSM    C2S15279   1.154   1.299   6.269 -0.1966  0.2466  0.3270
  140OSM    H2S15280   1.204   1.222   6.331 -0.5358  0.9180  1.4623
  140OSM    C3S15281   1.240   1.430   6.278  0.3452  0.5561 -0.0921
  140OSM    H3S15282   1.192   1.509   6.217 -0.4592 -0.8513 -1.3705
  140OSM     O315283   1.372   1.413   6.226  0.1835  0.2989  0.5593
  140OSM    HO315284   1.376   1.327   6.184 -2.0632  0.1224  0.6062
  140OSM    C4S15285   1.240   1.498   6.414 -0.3851  0.4641 -0.0740
  140OSM    H4S15286   1.146   1.544   6.446  0.3200  2.4028 -0.6765
  140OSM    C5S15287   1.332   1.487   6.520 -0.4035  0.3670 -0.5878
  140OSM    H5S15288   1.419   1.422   6.503  1.5220  1.9273  2.4124
  140OSM    C6S15289   1.314   1.555   6.655  0.3615  0.3938  0.1323
  140OSM    H6S15290   1.402   1.623   6.666 -0.7402  1.7630  0.7766
  140OSM    H6T15291   1.338   1.481   6.734 -1.1524  0.2293  0.4637
  140OSM    C7S15292   1.183   1.624   6.691  0.4213 -0.1389 -0.4395
  140OSM    H7S15293   1.090   1.567   6.670 -0.5675  0.2394  2.3770
  140OSM    H7T15294   1.177   1.716   6.630 -0.2982 -0.7254 -1.2721
  140OSM    C8S15295   1.171   1.667   6.837 -0.5466 -0.2835 -0.8557
  140OSM    H8S15296   1.105   1.755   6.853  0.3255 -0.0208  1.9358
  140OSM    H8T15297   1.271   1.707   6.864 -2.0767  3.1948  0.2135
  140OSM    C9S15298   1.124   1.563   6.938  0.3825  0.6580  0.5825
  140OSM    H9S15299   1.178   1.466   6.933 -3.4329 -1.7970  2.0200
  140OSM    H9T15300   1.020   1.540   6.906 -0.0515  2.9006  0.2621
  140OSM   C10S15301   1.131   1.605   7.083  0.4855  0.2845 -0.0065
  140OSM   H10S15302   1.058   1.689   7.094 -1.5184 -1.4230  0.4572
  140OSM   H10T15303   1.230   1.652   7.101  1.7560 -1.8008 -1.1738
  140OSM   C11S15304   1.104   1.496   7.182 -0.1334 -0.4790 -0.3350
  140OSM   H11S15305   1.182   1.417   7.170  0.7226  0.4880 -1.3952
  140OSM   H11T15306   1.004   1.452   7.161 -0.9521  0.1432  1.9659
  140OSM   C12S15307   1.090   1.545   7.331  0.5706  0.0368 -0.3733
  140OSM   H12S15308   1.045   1.646   7.338 -0.1334 -0.0501 -2.7138
  140OSM   H12T15309   1.188   1.533   7.382 -0.4068 -3.3702  0.9873
  140OSM   C13S15310   0.995   1.460   7.413 -0.3127 -0.4461 -0.0115
  140OSM   H13S15311   1.021   1.352   7.401 -1.8472 -1.2027  2.5535
  140OSM   H13T15312   0.886   1.468   7.392 -0.7256 -1.2986  1.5772
  140OSM   C14S15313   0.993   1.487   7.563  0.0703 -0.0742 -0.4792
  140OSM   H14S15314   1.085   1.542   7.594 -0.7155 -0.0095  1.9312
  140OSM   H14T15315   1.000   1.389   7.615  0.9698  0.6032  0.7482
  140OSM   C15S15316   0.868   1.555   7.624 -0.0526 -0.0018  0.0593
  140OSM   H15S15317   0.784   1.542   7.553  0.1417  1.2145 -0.4225
  140OSM   H15T15318   0.907   1.657   7.643 -0.9252  0.2048  0.8107
  140OSM   C16S15319   0.845   1.503   7.772 -0.0673  0.0521  0.6862
  140OSM   H16S15320   0.935   1.540   7.826  1.6146  1.6109 -2.8464
  140OSM   H16T15321   0.825   1.394   7.777 -0.4065 -0.1184 -2.2551
  140OSM   C17S15322   0.719   1.569   7.839 -0.3051 -0.4479 -0.4819
  140OSM   H17S15323   0.626   1.539   7.787  1.9160 -6.1063 -1.8706
  140OSM   H17T15324   0.732   1.680   7.843  0.1594 -0.5100 -0.0369
  140OSM   C18S15325   0.699   1.534   7.988  0.0334  0.2461 -0.1929
  140OSM   H18S15326   0.699   1.423   7.998 -1.3962  0.3633  1.6481
  140OSM   H18T15327   0.596   1.561   8.021  0.3142  1.2160 -0.0925
  140OSM   H18U15328   0.769   1.572   8.066  0.1203 -2.6195  1.2978
  140OSM    C1F15329   0.941   1.195   6.336  0.2608  0.4672  0.5314
  140OSM     OF15330   0.992   1.086   6.311  0.6724  0.3385  0.0671
  140OSM    C2F15331   0.794   1.210   6.364  0.2810  0.1847  0.0139
  140OSM    H2F15332   0.731   1.189   6.275 -0.2512  0.9228  0.2090
  140OSM    H2G15333   0.781   1.316   6.396  1.5058  0.5221 -0.5465
  140OSM    C3F15334   0.738   1.131   6.486 -0.8425 -0.8337 -0.4634
  140OSM    H3F15335   0.777   1.027   6.493 -0.4550 -0.7593 -1.3856
  140OSM    H3G15336   0.628   1.116   6.482 -0.8025 -1.2744 -0.0325
  140OSM    C4F15337   0.765   1.202   6.616 -0.1463  0.0410 -0.1123
  140OSM    H4F15338   0.721   1.304   6.617  0.6427  0.4049 -1.3415
  140OSM    H4G15339   0.876   1.198   6.619 -0.1296  0.1854 -0.5296
  140OSM    C5F15340   0.715   1.127   6.735  0.4261 -0.2802 -0.2989
  140OSM    H5F15341   0.763   1.029   6.756 -2.3752 -1.5203  0.9729
  140OSM    H5G15342   0.609   1.107   6.707  0.4330  1.8388 -2.1371
  140OSM    C6F15343   0.701   1.211   6.860  0.1476 -0.1104  0.3101
  140OSM    H6F15344   0.604   1.265   6.862  0.8347  1.2302  3.6273
  140OSM    H6G15345   0.777   1.291   6.871 -0.2393  0.1853  0.8437
  140OSM    C7F15346   0.696   1.125   6.989 -0.3320  0.4850  0.0536
  140OSM    H7F15347   0.768   1.042   6.983 -0.5063  0.4333 -3.5956
  140OSM    H7G15348   0.596   1.082   7.012  0.8732 -1.7362  1.5615
  140OSM    C8F15349   0.751   1.204   7.108 -0.3061 -0.5045 -0.1375
  140OSM    H8F15350   0.852   1.249   7.101  0.2564 -1.8503 -1.1062
  140OSM    H8G15351   0.747   1.131   7.192  0.4467  1.2105  1.4659
  140OSM    C9F15352   0.665   1.321   7.154  0.3959  0.1747  0.0070
  140OSM    H9F15353   0.681   1.410   7.091 -0.9685  0.9174  0.6761
  140OSM   C10F15354   0.582   1.330   7.260 -0.1738  0.7086 -0.5517
  140OSM   H10F15355   0.519   1.419   7.270 -0.3423  0.4949  0.3433
  140OSM   C11F15356   0.552   1.213   7.352 -0.6638 -0.6114 -0.3720
  140OSM   H11F15357   0.567   1.127   7.283  1.6803 -1.0054  0.5397
  140OSM   H11G15358   0.449   1.213   7.393  0.5728 -2.5464  3.1705
  140OSM   C12F15359   0.647   1.196   7.469  0.3999 -0.1880  0.2810
  140OSM   H12F15360   0.633   1.283   7.536 -0.9104 -0.5855  0.5455
  140OSM   H12G15361   0.756   1.196   7.447  0.2832  1.2296 -0.4193
  140OSM   C13F15362   0.617   1.081   7.560  0.3177  0.3250  0.5297
  140OSM   H13F15363   0.632   0.983   7.510  2.7745  0.8414  0.1018
  140OSM   H13G15364   0.513   1.064   7.595 -0.2710 -0.1129 -1.3064
  140OSM   C14F15365   0.710   1.077   7.681 -0.5768 -0.0429 -0.0022
  140OSM   H14F15366   0.699   1.177   7.728  2.6957  0.7824 -0.6865
  140OSM   H14G15367   0.814   1.070   7.642 -0.3530 -0.6427  0.6893
  140OSM   C15F15368   0.700   0.962   7.786  0.5524  0.4658  0.4076
  140OSM   H15F15369   0.699   0.870   7.724 -2.9043 -0.4206  1.5730
  140OSM   H15G15370   0.599   0.970   7.832 -0.5135 -0.7675 -1.5727
  140OSM   C16F15371   0.802   0.961   7.900  0.1630 -0.1873 -0.1260
  140OSM   H16F15372   0.894   0.921   7.852  0.2795  0.0393 -0.0943
  140OSM   H16G15373   0.770   0.895   7.983  0.2579  0.2830  0.2944
  140OSM   C17F15374   0.829   1.101   7.955 -0.1099  0.5881 -0.3425
  140OSM   H17F15375   0.741   1.165   7.975  0.9032  1.2415  2.4609
  140OSM   H17G15376   0.898   1.154   7.886  1.7193 -1.2504 -0.0358
  140OSM   C18F15377   0.901   1.092   8.088  0.4405 -0.2219  0.1670
  140OSM   H18F15378   0.839   1.045   8.168 -3.2441  1.2341 -1.5850
  140OSM   H18G15379   0.934   1.192   8.123 -0.2301  0.9838 -2.4083
  140OSM   H18H15380   0.996   1.040   8.064  0.2373 -0.1130 -0.9351
  141OSM      N15381   0.855   2.853   6.089 -0.7852  0.0432 -0.2053
  141OSM    C1515382   0.856   2.845   6.234 -0.2807 -0.3080 -0.4914
  141OSM   H15A15383   0.800   2.919   6.290  0.7911 -0.3185  0.6612
  141OSM   H15B15384   0.959   2.861   6.265 -0.0622  2.1528 -2.2087
  141OSM   H15C15385   0.817   2.752   6.271  0.0294  0.6489  2.5368
  141OSM    C1415386   0.889   2.997   6.038  0.1487  0.2815 -0.4807
  141OSM   H14A15387   0.914   2.997   5.933 -0.5628  0.5791 -0.6612
  141OSM   H14B15388   0.976   3.029   6.094 -0.4595  1.5730 -0.2394
  141OSM   H14C15389   0.808   3.055   6.081 -0.1129 -1.4363  1.5017
  141OSM    C1315390   0.959   2.774   6.029  0.1026 -0.2449  0.2855
  141OSM   H13A15391   1.057   2.783   6.076 -0.0992  0.9982  0.5023
  141OSM   H13B15392   0.974   2.785   5.923 -0.0746  0.3311  0.3195
  141OSM   H13C15393   0.936   2.671   6.052 -0.3970 -0.6392 -1.7974
  141OSM    C1215394   0.718   2.814   6.047 -0.4378  0.0484  0.2236
  141OSM   H12A15395   0.697   2.729   6.110 -1.9575 -0.4010 -0.8140
  141OSM   H12B15396   0.717   2.783   5.943  0.0320 -0.7887  0.4642
  141OSM    C1115397   0.606   2.916   6.068  1.1946  0.5221  0.3648
  141OSM   H11A15398   0.514   2.874   6.021  1.4244 -3.7305  3.1654
  141OSM   H11B15399   0.621   3.007   6.006  0.7463 -0.7466 -1.7105
  141OSM      P15400   0.445   2.952   6.276  0.1768 -0.0367 -0.2965
  141OSM    O1315401   0.377   3.072   6.219  0.5502 -0.2664 -0.2256
  141OSM    O1415402   0.374   2.822   6.256 -0.5546 -0.1398  0.2305
  141OSM    O1115403   0.471   2.967   6.432 -0.2179 -0.6065 -0.1061
  141OSM    O1215404   0.586   2.948   6.210 -1.0097 -0.0300 -0.2378
  141OSM    C1S15405   0.562   2.879   6.502 -0.7182 -0.0957  0.0749
  141OSM    H1S15406   0.667   2.915   6.505 -0.5667 -0.5854  1.7301
  141OSM    H1T15407   0.562   2.773   6.467  0.9046  0.0157 -0.3405
  141OSM     NF15408   0.605   2.784   6.734  0.2953 -0.3651 -0.0733
  141OSM    HNF15409   0.585   2.686   6.738  2.5935 -0.8852 -0.1034
  141OSM    C2S15410   0.514   2.866   6.651  0.5077 -0.5195 -0.7934
  141OSM    H2S15411   0.521   2.969   6.690  4.8492 -1.1246  0.5612
  141OSM    C3S15412   0.364   2.811   6.654 -0.5243  0.3969 -0.5404
  141OSM    H3S15413   0.349   2.704   6.626  0.3563 -0.2459  1.2430
  141OSM     O315414   0.275   2.883   6.568  0.3957 -0.4914  0.0202
  141OSM    HO315415   0.334   2.939   6.518 -0.5871  0.2868 -0.2980
  141OSM    C4S15416   0.325   2.824   6.798  0.6475  0.1386 -0.2340
  141OSM    H4S15417   0.290   2.925   6.823  0.2162 -0.0299 -0.1436
  141OSM    C5S15418   0.310   2.735   6.895 -0.0110  0.2492  0.3395
  141OSM    H5S15419   0.332   2.630   6.867  0.0160  0.1867  0.5901
  141OSM    C6S15420   0.256   2.764   7.031 -0.2972 -0.3381  0.3376
  141OSM    H6S15421   0.175   2.690   7.049 -0.4767 -0.0761  0.6124
  141OSM    H6T15422   0.205   2.862   7.027  1.0640  0.3722 -2.4129
  141OSM    C7S15423   0.363   2.754   7.144  0.8504  0.1068  0.9300
  141OSM    H7S15424   0.434   2.839   7.146 -0.7981  1.5513  0.2174
  141OSM    H7T15425   0.406   2.652   7.133 -1.7487 -0.9043 -0.8625
  141OSM    C8S15426   0.317   2.752   7.287  0.6715 -0.9244 -0.5480
  141OSM    H8S15427   0.247   2.665   7.285  1.3227 -1.5851  1.9140
  141OSM    H8T15428   0.256   2.839   7.319  0.4767 -1.3572  0.3011
  141OSM    C9S15429   0.436   2.733   7.381 -0.3011  0.4072  0.5206
  141OSM    H9S15430   0.502   2.820   7.361 -1.1260  0.8772 -0.2205
  141OSM    H9T15431   0.492   2.640   7.358  1.2089  0.8371  2.2629
  141OSM   C10S15432   0.387   2.734   7.527  0.0474  1.1276 -0.6105
  141OSM   H10S15433   0.326   2.642   7.542 -1.2120  2.3038  2.1449
  141OSM   H10T15434   0.315   2.817   7.538 -0.6871  0.3964  0.2729
  141OSM   C11S15435   0.496   2.758   7.632  0.2595 -0.2201  0.1236
  141OSM   H11S15436   0.518   2.866   7.618 -1.3085  0.1257  0.1578
  141OSM   H11T15437   0.581   2.694   7.599 -0.6727 -1.4491  0.0441
  141OSM   C12S15438   0.481   2.730   7.780  0.1440 -0.2147 -0.7782
  141OSM   H12S15439   0.566   2.773   7.837 -0.8516  0.2781  0.3821
  141OSM   H12T15440   0.486   2.621   7.798  0.6134 -0.1827 -0.6915
  141OSM   C13S15441   0.356   2.795   7.832 -0.2163 -0.6083  0.1176
  141OSM   H13S15442   0.272   2.745   7.779 -1.1887  1.5257 -0.4589
  141OSM   H13T15443   0.340   2.903   7.813 -3.0777 -1.1025 -0.8749
  141OSM   C14S15444   0.315   2.762   7.978 -0.4021 -0.2912  0.3936
  141OSM   H14S15445   0.394   2.824   8.024 -0.7099  0.0556  0.4560
  141OSM   H14T15446   0.327   2.655   8.007 -2.9681 -1.0481 -1.0219
  141OSM   C15S15447   0.171   2.802   8.021  0.1259 -0.3945  0.4721
  141OSM   H15S15448   0.104   2.718   7.994 -1.2500 -0.4489  3.6402
  141OSM   H15T15449   0.144   2.900   7.974  0.7268  0.1690  1.2840
  141OSM   C16S15450   0.176   2.825   8.177 -0.8772 -0.8103  0.2475
  141OSM   H16S15451   0.233   2.918   8.196 -1.7223 -0.2665  0.1552
  141OSM   H16T15452   0.234   2.736   8.211  0.3603 -1.0852 -2.3209
  141OSM   C17S15453   0.033   2.836   8.250 -0.4655 -0.3576 -0.2239
  141OSM   H17S15454  -0.019   2.742   8.222 -0.2820 -0.5877  0.2142
  141OSM   H17T15455  -0.026   2.919   8.205  3.6035  1.1351 -3.4166
  141OSM   C18S15456   0.045   2.849   8.402  0.3579 -1.2356 -0.4681
  141OSM   H18S15457   0.067   2.955   8.430 -0.1194 -0.8184 -1.5995
  141OSM   H18T15458   0.110   2.772   8.448 -0.6468 -1.0954  1.2621
  141OSM   H18U15459  -0.049   2.812   8.446 -0.8116  1.2420 -0.7014
  141OSM    C1F15460   0.724   2.837   6.775 -0.4177  0.8762  1.0080
  141OSM     OF15461   0.762   2.949   6.748  0.0122  0.5910 -0.0805
  141OSM    C2F15462   0.826   2.738   6.839  0.1874 -0.4426  0.3927
  141OSM    H2F15463   0.914   2.734   6.771 -0.2784 -0.1319 -0.2385
  141OSM    H2G15464   0.773   2.640   6.843 -0.4587 -0.0428  1.9588
  141OSM    C3F15465   0.873   2.791   6.980  0.7807 -0.0398 -0.0354
  141OSM    H3F15466   0.911   2.894   6.964  1.9490 -0.3536  0.5919
  141OSM    H3G15467   0.959   2.729   7.013 -1.5603 -2.6190  1.5810
  141OSM    C4F15468   0.763   2.791   7.098  0.2427 -0.7592  0.1920
  141OSM    H4F15469   0.727   2.688   7.117  0.2488 -0.9876 -0.9271
  141OSM    H4G15470   0.684   2.865   7.071 -0.1847 -1.7041 -1.2582
  141OSM    C5F15471   0.827   2.835   7.231  0.2628  0.5090  0.0702
  141OSM    H5F15472   0.931   2.799   7.246  0.0316  0.4029  1.6047
  141OSM    H5G15473   0.772   2.775   7.307  1.0899 -1.7644 -1.0266
  141OSM    C6F15474   0.805   2.981   7.265 -0.1191  0.1591 -0.2394
  141OSM    H6F15475   0.696   2.996   7.280  0.1949  2.5644  0.0231
  141OSM    H6G15476   0.851   3.036   7.181 -0.1645 -0.3196 -0.5841
  141OSM    C7F15477   0.872   3.018   7.399  0.3573  0.1455 -0.1259
  141OSM    H7F15478   0.846   3.125   7.408 -1.4980 -0.1894 -0.9247
  141OSM    H7G15479   0.982   3.015   7.385  0.1055  1.5290 -3.1767
  141OSM    C8F15480   0.819   2.952   7.525  0.5269  0.1767 -0.0001
  141OSM    H8F15481   0.840   2.844   7.536  3.1872  0.4838 -1.4283
  141OSM    H8G15482   0.708   2.957   7.513  0.6221  0.1687 -0.9332
  141OSM    C9F15483   0.868   3.005   7.656 -0.2088 -0.0928  0.1422
  141OSM    H9F15484   0.978   2.997   7.664 -0.2110 -0.4839 -0.1551
  141OSM   C10F15485   0.787   3.061   7.754 -0.3188  0.1724 -0.3392
  141OSM   H10F15486   0.848   3.102   7.836  2.5481 -3.2492 -0.4840
  141OSM   C11F15487   0.639   3.083   7.755  0.5916  0.3643  0.5566
  141OSM   H11F15488   0.586   3.004   7.812 -1.9788  0.8655 -0.9504
  141OSM   H11G15489   0.605   3.060   7.651 -0.9557  1.0882  0.8728
  141OSM   C12F15490   0.595   3.221   7.805  0.1407 -0.5626 -0.1537
  141OSM   H12F15491   0.488   3.243   7.786  0.9767  3.5215 -1.3086
  141OSM   H12G15492   0.643   3.296   7.738 -2.1316 -0.2132 -1.4859
  141OSM   C13F15493   0.622   3.253   7.957 -0.4780  0.2823 -0.5105
  141OSM   H13F15494   0.591   3.356   7.983  1.2611  0.8242 -0.4335
  141OSM   H13G15495   0.730   3.242   7.978  0.2265  2.7216 -2.3739
  141OSM   C14F15496   0.537   3.161   8.047  0.4617 -0.0033  0.2395
  141OSM   H14F15497   0.573   3.057   8.034  0.4516 -0.0962  0.9024
  141OSM   H14G15498   0.430   3.170   8.019  0.0426 -1.0137  1.3987
  141OSM   C15F15499   0.556   3.182   8.199  0.1962 -0.3630  0.5470
  141OSM   H15F15500   0.503   3.278   8.214 -0.0299 -0.0881 -1.7147
  141OSM   H15G15501   0.662   3.199   8.227 -0.2081  0.4426  1.6599
  141OSM   C16F15502   0.487   3.078   8.287 -0.2632 -0.4840  0.1814
  141OSM   H16F15503   0.566   3.043   8.357 -0.8180 -0.5853  0.7621
  141OSM   H16G15504   0.444   2.991   8.234 -1.9415  0.8648 -0.8097
  141OSM   C17F15505   0.380   3.133   8.383  0.4056 -0.2935  0.3524
  141OSM   H17F15506   0.287   3.155   8.327  1.1863 -1.3377 -1.4652
  141OSM   H17G15507   0.426   3.226   8.424 -0.7725 -0.7166  2.8176
  141OSM   C18F15508   0.349   3.039   8.493 -0.2546  0.3526 -0.2232
  141OSM   H18F15509   0.299   2.949   8.451  0.6196  0.1680 -0.8946
  141OSM   H18G15510   0.284   3.084   8.571 -0.6173 -1.1283  0.3679
  141OSM   H18H15511   0.443   3.004   8.541 -0.3200  0.8434  0.2686
  142OSM      N15512   1.120   4.534   5.891  0.4590  0.1195  1.0017
  142OSM    C1515513   1.031   4.467   5.986  0.6916  0.2788  0.2969
  142OSM   H15A15514   1.054   4.503   6.085 -2.8021 -1.7415  2.0365
  142OSM   H15B15515   1.040   4.360   5.973 -0.9887  0.0473  0.8139
  142OSM   H15C15516   0.932   4.504   5.962  0.3086 -1.4168 -0.8972
  142OSM    C1415517   1.071   4.492   5.757 -0.1589 -0.4306 -0.9161
  142OSM   H14A15518   1.124   4.543   5.678 -2.4624  3.3766 -0.2406
  142OSM   H14B15519   0.966   4.511   5.741 -0.0481  0.5536 -0.5590
  142OSM   H14C15520   1.076   4.385   5.743  0.0677 -0.5325 -0.0864
  142OSM    C1315521   1.102   4.683   5.890  0.1558 -0.9986  0.4122
  142OSM   H13A15522   1.167   4.739   5.825  0.0985  0.4507  1.5624
  142OSM   H13B15523   1.119   4.719   5.990  1.1707 -0.7280  0.1517
  142OSM   H13C15524   1.005   4.707   5.848  0.6046  0.6907  0.2846
  142OSM    C1215525   1.268   4.506   5.906  0.0760  0.1241 -0.0757
  142OSM   H12A15526   1.325   4.554   5.828  0.8859  0.5753  0.7730
  142OSM   H12B15527   1.283   4.400   5.891 -2.0068 -0.4194  1.3155
  142OSM    C1115528   1.340   4.535   6.038  0.3186 -0.4742 -0.3350
  142OSM   H11A15529   1.424   4.469   6.067 -0.3806 -0.1054  2.9451
  142OSM   H11B15530   1.274   4.519   6.126  3.0406 -0.9033  1.7618
  142OSM      P15531   1.497   4.734   5.978  0.3345 -0.0434  0.0554
  142OSM    O1315532   1.522   4.651   5.862  0.7260 -0.7103  0.1283
  142OSM    O1415533   1.496   4.879   5.943  0.4712  0.0247  0.0667
  142OSM    O1115534   1.610   4.703   6.079 -0.2356 -0.1878 -0.4710
  142OSM    O1215535   1.370   4.671   6.048 -0.0319 -0.4290  0.3411
  142OSM    C1S15536   1.607   4.756   6.219  0.6451 -0.1733 -0.5030
  142OSM    H1S15537   1.538   4.842   6.231  1.0544  0.0056  0.6397
  142OSM    H1T15538   1.709   4.785   6.252  0.4232 -0.4442  0.4273
  142OSM     NF15539   1.558   4.716   6.458 -0.3473 -0.3803 -0.5598
  142OSM    HNF15540   1.606   4.656   6.521 -1.3982 -0.0564  0.5912
  142OSM    C2S15541   1.560   4.656   6.324  0.1310  0.2995  0.4510
  142OSM    H2S15542   1.454   4.626   6.308  0.2259  0.0366  0.3177
  142OSM    C3S15543   1.652   4.524   6.310  0.2749  0.1745  0.0641
  142OSM    H3S15544   1.754   4.555   6.341  0.4263 -2.2696  2.3510
  142OSM     O315545   1.665   4.467   6.182 -0.2885 -0.0726  0.0406
  142OSM    HO315546   1.667   4.540   6.120 -1.0783 -1.1605 -1.3455
  142OSM    C4S15547   1.601   4.419   6.408 -0.2531 -0.0309  0.5057
  142OSM    H4S15548   1.667   4.397   6.493  0.7140  2.1850  0.3866
  142OSM    C5S15549   1.494   4.338   6.390  1.1618 -0.1408 -0.5657
  142OSM    H5S15550   1.430   4.356   6.302  1.7873  0.4790 -0.9026
  142OSM    C6S15551   1.454   4.231   6.487 -0.1919  0.4314 -0.2898
  142OSM    H6S15552   1.510   4.137   6.466  0.4859  0.6802  0.3612
  142OSM    H6T15553   1.346   4.207   6.476 -0.7442  0.0336  4.1267
  142OSM    C7S15554   1.471   4.264   6.644  0.3652 -0.7214  0.2382
  142OSM    H7S15555   1.401   4.349   6.656  0.0645 -1.0337  0.7391
  142OSM    H7T15556   1.576   4.289   6.669  0.6344 -0.6669 -0.8927
  142OSM    C8S15557   1.420   4.150   6.727  0.7555  0.7660 -0.0220
  142OSM    H8S15558   1.468   4.054   6.701  0.8928  0.5082  1.1427
  142OSM    H8T15559   1.313   4.130   6.703  0.7387 -1.1853  1.4621
  142OSM    C9S15560   1.442   4.174   6.877 -0.2331 -0.1465  0.0768
  142OSM    H9S15561   1.389   4.091   6.928 -0.5063  0.0129  0.0571
  142OSM    H9T15562   1.397   4.272   6.904  0.0108 -0.2744  0.9776
  142OSM   C10S15563   1.586   4.167   6.921 -0.5072 -0.1475 -0.0065
  142OSM   H10S15564   1.651   4.241   6.869  0.5661 -0.0477  1.4193
  142OSM   H10T15565   1.627   4.067   6.899  0.4593 -0.0663  1.3322
  142OSM   C11S15566   1.610   4.182   7.075 -0.6311 -1.0183 -0.2300
  142OSM   H11S15567   1.522   4.165   7.141  1.0562 -1.5298  2.0419
  142OSM   H11T15568   1.656   4.280   7.098 -3.1312 -0.6454  4.4722
  142OSM   C12S15569   1.697   4.070   7.136 -0.0203 -0.0201  0.2295
  142OSM   H12S15570   1.794   4.074   7.082  0.6924  0.1887  1.5130
  142OSM   H12T15571   1.654   3.967   7.131 -0.7393  0.2207  1.3218
  142OSM   C13S15572   1.701   4.107   7.285  0.0304 -0.0935  0.1788
  142OSM   H13S15573   1.598   4.110   7.328  1.1842 -1.4281  3.3731
  142OSM   H13T15574   1.737   4.212   7.289  0.4301 -0.2496  2.0757
  142OSM   C14S15575   1.760   4.006   7.382  0.0060  0.3521  0.3353
  142OSM   H14S15576   1.869   3.990   7.368  0.0419  0.3552  0.6143
  142OSM   H14T15577   1.714   3.906   7.365  0.5635  0.4479 -2.1559
  142OSM   C15S15578   1.752   4.052   7.531  0.0329 -0.0262 -0.0614
  142OSM   H15S15579   1.643   4.055   7.548 -0.0180 -0.3059 -0.3372
  142OSM   H15T15580   1.791   4.156   7.531 -0.2147  0.0718  0.8259
  142OSM   C16S15581   1.827   3.967   7.636 -0.1754  0.4658  0.5855
  142OSM   H16S15582   1.927   4.014   7.646  1.2230 -1.8507 -1.1374
  142OSM   H16T15583   1.836   3.865   7.591  1.1811 -0.3543  2.5842
  142OSM   C17S15584   1.754   3.977   7.770 -0.2151 -0.2060  0.1690
  142OSM   H17S15585   1.652   3.932   7.766  0.3233 -1.5015  0.3900
  142OSM   H17T15586   1.735   4.085   7.787 -1.7345 -0.1995 -1.2652
  142OSM   C18S15587   1.827   3.917   7.891 -0.5823  0.0528 -0.0130
  142OSM   H18S15588   1.838   3.812   7.859 -1.4719  0.0069 -0.1984
  142OSM   H18T15589   1.775   3.919   7.990  1.9459 -0.5144  1.4120
  142OSM   H18U15590   1.929   3.959   7.908  1.1592 -3.3707 -1.1746
  142OSM    C1F15591   1.487   4.817   6.502  0.0432 -0.1588  0.2350
  142OSM     OF15592   1.424   4.891   6.428  0.2835  0.0138 -0.0989
  142OSM    C2F15593   1.492   4.825   6.646 -0.7133  0.1104 -0.3585
  142OSM    H2F15594   1.595   4.802   6.682 -0.1341 -0.9687 -2.5272
  142OSM    H2G15595   1.420   4.755   6.693 -0.5737 -0.9383 -1.6631
  142OSM    C3F15596   1.450   4.964   6.697  0.1492  0.5451 -0.3874
  142OSM    H3F15597   1.346   4.992   6.669  0.2289  1.5251  0.2514
  142OSM    H3G15598   1.519   5.037   6.649 -0.0036  1.0712  0.1759
  142OSM    C4F15599   1.449   4.975   6.853  0.0208 -0.1228 -0.2666
  142OSM    H4F15600   1.550   4.991   6.896  0.4962  1.1274 -1.7777
  142OSM    H4G15601   1.395   4.888   6.898 -1.6974  1.3885  0.6968
  142OSM    C5F15602   1.384   5.110   6.898  0.0290 -0.1039  0.1313
  142OSM    H5F15603   1.276   5.105   6.874  0.1915 -1.4051 -0.3837
  142OSM    H5G15604   1.448   5.186   6.849 -1.0172  0.3772 -0.5221
  142OSM    C6F15605   1.403   5.143   7.046  0.0975  0.2039  0.4420
  142OSM    H6F15606   1.333   5.227   7.066 -0.8053  0.8473 -4.2979
  142OSM    H6G15607   1.507   5.178   7.058 -0.5535  2.6427 -0.4992
  142OSM    C7F15608   1.382   5.021   7.145 -0.2137  0.5270  0.5034
  142OSM    H7F15609   1.426   4.923   7.115  1.1477  1.7150 -1.7091
  142OSM    H7G15610   1.272   5.023   7.130 -0.0699 -1.0771 -1.1668
  142OSM    C8F15611   1.417   5.060   7.284  0.4361  0.3713 -0.6851
  142OSM    H8F15612   1.362   4.991   7.351 -1.3960 -0.5998 -2.9969
  142OSM    H8G15613   1.366   5.157   7.306 -0.0630 -0.2134  0.8778
  142OSM    C9F15614   1.557   5.079   7.331 -0.0563 -0.6597 -0.0097
  142OSM    H9F15615   1.609   5.137   7.253 -2.3689  2.7152  0.7377
  142OSM   C10F15616   1.616   5.030   7.439  0.0665 -0.1601 -0.3917
  142OSM   H10F15617   1.720   5.057   7.462  0.0877 -0.6319  0.0942
  142OSM   C11F15618   1.556   4.955   7.550  0.1647 -0.2574 -0.7445
  142OSM   H11F15619   1.622   4.884   7.604 -0.4203  0.0837  0.4725
  142OSM   H11G15620   1.485   4.889   7.496  0.2007 -0.5089 -0.4856
  142OSM   C12F15621   1.476   5.032   7.656 -0.5418 -0.7031  0.0475
  142OSM   H12F15622   1.393   5.093   7.613 -0.3573  0.5635  1.4163
  142OSM   H12G15623   1.536   5.110   7.707  0.3481 -1.3175 -0.0477
  142OSM   C13F15624   1.415   4.951   7.777 -0.6217 -0.2909  0.4000
  142OSM   H13F15625   1.508   4.892   7.791 -0.1434  0.8480  2.3823
  142OSM   H13G15626   1.326   4.891   7.746  0.0219 -1.2776  0.4387
  142OSM   C14F15627   1.380   5.035   7.898 -0.4226  0.0090 -0.7135
  142OSM   H14F15628   1.303   5.107   7.864 -0.2347  1.5296  1.8046
  142OSM   H14G15629   1.478   5.080   7.924 -0.7413 -1.4116  3.9110
  142OSM   C15F15630   1.322   4.955   8.015 -0.1854 -0.7588 -0.0075
  142OSM   H15F15631   1.382   4.863   8.034  0.3693 -0.4395 -0.1969
  142OSM   H15G15632   1.231   4.912   7.967  0.1356 -1.6126  0.1335
  142OSM   C16F15633   1.283   5.046   8.141 -0.4917  0.8436  0.5223
  142OSM   H16F15634   1.244   5.136   8.090 -3.0029  0.1454  1.0626
  142OSM   H16G15635   1.382   5.061   8.188 -0.3311  0.9418  0.1539
  142OSM   C17F15636   1.190   4.963   8.225 -0.1061 -0.1912 -0.1433
  142OSM   H17F15637   1.241   4.868   8.254  0.8139  0.5774  0.8082
  142OSM   H17G15638   1.099   4.936   8.167 -0.4980 -0.2123  0.4696
  142OSM   C18F15639   1.139   5.044   8.347 -0.4694 -0.2235  0.3860
  142OSM   H18F15640   1.075   4.970   8.401 -1.5417 -0.7558 -1.5219
  142OSM   H18G15641   1.081   5.136   8.323 -1.4458  0.4228  4.3750
  142OSM   H18H15642   1.230   5.063   8.407 -1.2875  2.2445  0.9902
  143OSM      N15643   1.307   5.819   5.920  0.3895 -0.0400  0.0365
  143OSM    C1515644   1.292   5.863   5.775 -0.1775 -0.7369  0.3017
  143OSM   H15A15645   1.235   5.955   5.775  0.2499 -0.4702  0.3999
  143OSM   H15B15646   1.248   5.789   5.710  1.2190 -0.3553 -1.1595
  143OSM   H15C15647   1.390   5.889   5.738  1.0985 -2.2090  2.4391
  143OSM    C1415648   1.358   5.679   5.926 -0.2741  0.0933  0.2918
  143OSM   H14A15649   1.447   5.661   5.868 -0.2703 -4.0483  1.2578
  143OSM   H14B15650   1.281   5.611   5.893  0.6625 -0.4652 -0.8143
  143OSM   H14C15651   1.388   5.643   6.023  2.7812 -1.7234 -1.1653
  143OSM    C1315652   1.416   5.905   5.981  0.9828  0.4846 -0.2715
  143OSM   H13A15653   1.374   6.004   5.980  0.3347  0.2490  1.3490
  143OSM   H13B15654   1.515   5.898   5.937  0.9695 -1.5384 -0.0847
  143OSM   H13C15655   1.432   5.891   6.087  1.8833 -1.8663 -0.6475
  143OSM    C1215656   1.173   5.840   5.995  0.9701  0.0657  0.1091
  143OSM   H12A15657   1.170   5.800   6.095 -2.7450  0.5466  0.3612
  143OSM   H12B15658   1.103   5.778   5.941  2.0445  0.5108 -1.8807
  143OSM    C1115659   1.118   5.984   5.996 -0.4212 -0.5113 -0.2933
  143OSM   H11A15660   1.196   6.041   6.052  0.0283 -0.0835 -1.3262
  143OSM   H11B15661   1.024   5.977   6.054 -0.2960  1.5566  0.2706
  143OSM      P15662   1.003   6.180   5.861 -0.1847  0.0297 -0.1780
  143OSM    O1315663   1.086   6.283   5.793  0.0508 -0.1775 -0.0976
  143OSM    O1415664   0.873   6.143   5.801 -0.0961 -0.4946 -0.0375
  143OSM    O1115665   0.978   6.220   6.015  0.3804  0.3022  0.1660
  143OSM    O1215666   1.090   6.043   5.866  0.1337  0.5818 -0.8773
  143OSM    C1S15667   1.058   6.288   6.107  0.2710  0.1866  0.9141
  143OSM    H1S15668   1.103   6.375   6.054 -0.0821 -1.1003 -1.6523
  143OSM    H1T15669   1.135   6.223   6.154 -3.2237 -3.8603  1.7274
  143OSM     NF15670   1.052   6.395   6.331 -0.9900  0.0263 -0.1753
  143OSM    HNF15671   1.080   6.335   6.405  0.4971 -1.6753 -1.9909
  143OSM    C2S15672   0.969   6.330   6.235 -0.0174 -0.2368 -0.2448
  143OSM    H2S15673   0.892   6.400   6.197 -0.9201 -0.6772  0.7480
  143OSM    C3S15674   0.890   6.214   6.291 -0.1759  0.2921 -0.7674
  143OSM    H3S15675   0.961   6.138   6.332  0.2819  1.8215  1.4643
  143OSM     O315676   0.805   6.151   6.192 -0.1375  0.1339  0.1271
  143OSM    HO315677   0.827   6.188   6.106 -1.1263 -0.8829 -0.5958
  143OSM    C4S15678   0.804   6.266   6.399 -0.0262  0.4750  0.6326
  143OSM    H4S15679   0.746   6.353   6.366 -0.3148  0.1806  0.3559
  143OSM    C5S15680   0.794   6.230   6.525  0.5119  0.0755  0.6418
  143OSM    H5S15681   0.855   6.150   6.569 -0.4955 -1.1845 -0.1680
  143OSM    C6S15682   0.701   6.294   6.624  0.0314  0.2192 -0.1813
  143OSM    H6S15683   0.769   6.327   6.705 -0.9018  1.0853  0.2695
  143OSM    H6T15684   0.624   6.226   6.668 -0.5956  0.8885 -0.2312
  143OSM    C7S15685   0.630   6.425   6.587 -0.1887  0.3751 -0.3883
  143OSM    H7S15686   0.562   6.415   6.500 -0.2286 -1.2735 -0.2064
  143OSM    H7T15687   0.702   6.508   6.575 -0.2134  0.5206  0.3728
  143OSM    C8S15688   0.542   6.471   6.712  0.2352  0.8735 -0.0228
  143OSM    H8S15689   0.499   6.378   6.755  0.6232  0.1028 -1.2426
  143OSM    H8T15690   0.468   6.545   6.675 -0.1100 -0.0719 -1.3062
  143OSM    C9S15691   0.627   6.540   6.824  0.4868  0.0467 -0.2352
  143OSM    H9S15692   0.663   6.641   6.796  0.2093  0.9129  2.2556
  143OSM    H9T15693   0.708   6.466   6.842 -2.7546 -3.4200  1.6681
  143OSM   C10S15694   0.540   6.569   6.947 -0.0403  0.0955 -0.5788
  143OSM   H10S15695   0.503   6.475   6.994 -0.1494  0.7033  0.6024
  143OSM   H10T15696   0.447   6.616   6.907  0.5250 -0.3936 -2.5622
  143OSM   C11S15697   0.597   6.664   7.056  0.4693 -0.3500 -0.0401
  143OSM   H11S15698   0.509   6.673   7.124 -0.1648 -1.8736 -0.6154
  143OSM   H11T15699   0.618   6.763   7.010  2.1578 -0.9292 -0.5725
  143OSM   C12S15700   0.716   6.608   7.141 -0.3279 -0.0895  0.3349
  143OSM   H12S15701   0.723   6.680   7.225 -2.0470 -0.0362  0.4756
  143OSM   H12T15702   0.796   6.610   7.064 -4.2097  3.1377 -4.2246
  143OSM   C13S15703   0.679   6.472   7.202 -0.3174 -0.5830  0.2525
  143OSM   H13S15704   0.683   6.402   7.115 -0.8625 -1.1826  0.7018
  143OSM   H13T15705   0.573   6.480   7.235 -0.2686  0.9968  0.0932
  143OSM   C14S15706   0.771   6.432   7.322 -0.0617  0.6794  0.1183
  143OSM   H14S15707   0.869   6.483   7.310  1.5253 -1.8529  1.5759
  143OSM   H14T15708   0.790   6.323   7.329  1.0413  0.7581 -1.1877
  143OSM   C15S15709   0.721   6.484   7.453 -0.4480 -0.0162  0.0768
  143OSM   H15S15710   0.614   6.455   7.465 -1.0039  1.7365 -0.2471
  143OSM   H15T15711   0.727   6.594   7.436 -0.1353 -0.3717 -2.4137
  143OSM   C16S15712   0.823   6.463   7.573 -0.5484 -0.4921  0.4487
  143OSM   H16S15713   0.912   6.529   7.558 -0.1087 -1.2087 -0.1279
  143OSM   H16T15714   0.859   6.358   7.569  0.7372 -0.0195 -1.6812
  143OSM   C17S15715   0.769   6.491   7.714 -0.3254  0.3024 -0.8422
  143OSM   H17S15716   0.672   6.438   7.723 -0.1587  0.3336  1.9933
  143OSM   H17T15717   0.745   6.598   7.730  0.8379  0.1272  3.1119
  143OSM   C18S15718   0.866   6.442   7.820 -0.2246  0.0030 -0.4818
  143OSM   H18S15719   0.814   6.463   7.916  1.7557  2.5662  0.1616
  143OSM   H18T15720   0.967   6.487   7.814 -0.3107  0.3868  0.6095
  143OSM   H18U15721   0.887   6.333   7.814 -0.1275  0.0042 -0.2062
  143OSM    C1F15722   1.113   6.510   6.310  0.4314 -0.2168 -0.2029
  143OSM     OF15723   1.102   6.575   6.206  0.5476  0.7342  0.0472
  143OSM    C2F15724   1.193   6.554   6.426 -0.7321 -0.0439  0.1953
  143OSM    H2F15725   1.257   6.641   6.398  2.5383 -1.9859  1.0954
  143OSM    H2G15726   1.261   6.470   6.454 -0.2903  1.3580  4.0275
  143OSM    C3F15727   1.121   6.593   6.553 -0.2330 -0.9838  0.3261
  143OSM    H3F15728   1.026   6.538   6.572 -2.9439  3.0492 -0.2865
  143OSM    H3G15729   1.093   6.700   6.542 -1.1034 -1.2145  0.2454
  143OSM    C4F15730   1.213   6.593   6.679 -0.1860  0.7164 -0.3819
  143OSM    H4F15731   1.293   6.669   6.669  1.0654 -0.3948  0.8079
  143OSM    H4G15732   1.264   6.496   6.696 -2.1673 -0.1834  0.8553
  143OSM    C5F15733   1.138   6.629   6.811  0.4186  0.2268 -1.0122
  143OSM    H5F15734   1.067   6.546   6.833  1.0575 -0.1459 -0.3212
  143OSM    H5G15735   1.082   6.725   6.805  1.2301  0.8843  1.0103
  143OSM    C6F15736   1.235   6.651   6.935 -0.0703 -0.8651  0.5929
  143OSM    H6F15737   1.288   6.743   6.902 -1.8947  0.1888  0.5256
  143OSM    H6G15738   1.303   6.562   6.940  1.1008 -0.3047 -2.5907
  143OSM    C7F15739   1.162   6.669   7.066 -0.1360  0.1312 -0.7036
  143OSM    H7F15740   1.089   6.587   7.081 -0.7502  0.8421  0.2851
  143OSM    H7G15741   1.089   6.753   7.068  0.5539  0.7395 -0.2919
  143OSM    C8F15742   1.253   6.680   7.189  0.0596  0.0935 -0.0464
  143OSM    H8F15743   1.322   6.767   7.183 -1.3166  1.3525  1.3401
  143OSM    H8G15744   1.318   6.590   7.199 -0.2375 -0.0768  0.3745
  143OSM    C9F15745   1.165   6.702   7.303  0.1958  0.3453  0.2757
  143OSM    H9F15746   1.081   6.771   7.286 -0.7806 -0.9153 -0.1411
  143OSM   C10F15747   1.173   6.639   7.423  0.4013 -0.1601  0.2493
  143OSM   H10F15748   1.100   6.670   7.499  0.2692 -0.1203  0.1057
  143OSM   C11F15749   1.267   6.527   7.464  0.3200 -0.6434 -0.1343
  143OSM   H11F15750   1.309   6.473   7.376 -1.0956  0.1755 -1.3602
  143OSM   H11G15751   1.209   6.449   7.519  0.5378  0.2467  1.3912
  143OSM   C12F15752   1.371   6.573   7.565 -0.5788 -0.3133  0.2743
  143OSM   H12F15753   1.434   6.651   7.518  0.4263 -0.2105  1.6946
  143OSM   H12G15754   1.444   6.490   7.581 -0.1359 -0.1354 -0.7460
  143OSM   C13F15755   1.329   6.629   7.701  1.1035  0.2142  0.0950
  143OSM   H13F15756   1.249   6.706   7.689 -0.4193 -1.1514  1.0353
  143OSM   H13G15757   1.416   6.678   7.750  0.7698  3.5747 -2.3190
  143OSM   C14F15758   1.270   6.514   7.794 -0.7283 -0.2007  0.0593
  143OSM   H14F15759   1.339   6.427   7.807 -0.3947  0.0385 -0.1012
  143OSM   H14G15760   1.181   6.462   7.752  1.2592 -3.4734 -0.4823
  143OSM   C15F15761   1.247   6.574   7.932 -0.0066  0.4577 -0.2541
  143OSM   H15F15762   1.184   6.665   7.928  0.0117  0.5667  1.2556
  143OSM   H15G15763   1.335   6.616   7.986  0.6255 -1.1156  0.0035
  143OSM   C16F15764   1.164   6.487   8.036 -0.6352  0.1130  0.5912
  143OSM   H16F15765   1.209   6.386   8.029 -2.0099 -0.4970  0.2188
  143OSM   H16G15766   1.058   6.468   8.010 -0.4831  0.8400 -0.5968
  143OSM   C17F15767   1.162   6.545   8.178  0.7054  0.2765  0.0631
  143OSM   H17F15768   1.266   6.548   8.217  1.1616 -0.5233 -1.0423
  143OSM   H17G15769   1.118   6.464   8.241  1.4646 -2.8605 -3.1585
  143OSM   C18F15770   1.071   6.671   8.194  0.2134  0.3784  0.0901
  143OSM   H18F15771   1.076   6.735   8.103 -1.5149  0.3959 -0.0267
  143OSM   H18G15772   1.093   6.718   8.292 -0.8372  0.3246  0.3612
  143OSM   H18H15773   0.967   6.630   8.191  0.3757 -0.4418  3.0284
  144OSM      N15774   0.339   6.347   5.806  0.1346  0.6251 -0.1940
  144OSM    C1515775   0.465   6.314   5.884 -0.6107 -0.3793  0.7030
  144OSM   H15A15776   0.540   6.390   5.870 -0.9033 -0.0251  1.0222
  144OSM   H15B15777   0.501   6.215   5.863  1.6703  0.5789 -0.2621
  144OSM   H15C15778   0.440   6.317   5.989  0.0503 -0.5690  0.8643
  144OSM    C1415779   0.375   6.337   5.662 -0.1731  0.0330 -0.9432
  144OSM   H14A15780   0.422   6.245   5.632 -0.1083 -0.7146  1.2533
  144OSM   H14B15781   0.444   6.418   5.642  0.7378  0.1627  2.1601
  144OSM   H14C15782   0.286   6.349   5.602 -0.2095  1.1494 -0.6883
  144OSM    C1315783   0.237   6.241   5.839 -0.7985  0.1207 -0.1671
  144OSM   H13A15784   0.137   6.279   5.827 -0.7141  0.0588 -1.1872
  144OSM   H13B15785   0.242   6.206   5.941  0.2458 -0.6012 -0.4556
  144OSM   H13C15786   0.243   6.158   5.771 -0.5333 -1.4198  1.6631
  144OSM    C1215787   0.291   6.482   5.845 -0.0492  0.3880  0.1549
  144OSM   H12A15788   0.228   6.468   5.931 -2.0149 -1.0022 -1.4066
  144OSM   H12B15789   0.219   6.519   5.774  1.5026 -0.4757 -1.9804
  144OSM    C1115790   0.394   6.598   5.872  0.7932 -0.4926 -0.2482
  144OSM   H11A15791   0.458   6.569   5.958 -0.9956  1.9270  2.0760
  144OSM   H11B15792   0.337   6.686   5.908 -0.1814 -0.8086 -0.9796
  144OSM      P15793   0.621   6.620   5.734 -0.0856 -0.3582 -0.2932
  144OSM    O1315794   0.632   6.511   5.638 -1.3406 -0.0263 -0.0891
  144OSM    O1415795   0.684   6.748   5.700 -0.1780 -0.2923  0.2649
  144OSM    O1115796   0.669   6.569   5.880 -0.3079 -0.4716  0.6531
  144OSM    O1215797   0.467   6.645   5.765  0.2967 -0.6230 -0.3200
  144OSM    C1S15798   0.800   6.607   5.922 -0.8626  0.2456 -0.2145
  144OSM    H1S15799   0.877   6.618   5.843  1.3300 -2.2069  1.3774
  144OSM    H1T15800   0.841   6.515   5.971 -1.1312 -0.2041 -0.8173
  144OSM     NF15801   0.955   6.757   6.020 -0.0972 -0.3249  0.0581
  144OSM    HNF15802   1.022   6.721   6.084  1.3452 -0.7465 -1.6415
  144OSM    C2S15803   0.817   6.727   6.020  0.2254  0.0433  0.2936
  144OSM    H2S15804   0.758   6.803   5.966  0.2670 -0.1285  0.0050
  144OSM    C3S15805   0.752   6.684   6.154  0.7777  0.2268  0.0060
  144OSM    H3S15806   0.801   6.597   6.203  2.9533  1.4337  0.1431
  144OSM     O315807   0.615   6.648   6.142 -0.3409  0.6835  0.2750
  144OSM    HO315808   0.610   6.629   6.048 -1.9270  3.3345 -0.2787
  144OSM    C4S15809   0.757   6.799   6.251  0.3891  0.3655 -0.0183
  144OSM    H4S15810   0.667   6.863   6.249  0.5282  0.5538 -0.5213
  144OSM    C5S15811   0.849   6.825   6.350  0.5997 -0.3252  0.0166
  144OSM    H5S15812   0.934   6.757   6.362 -0.2997 -1.3666  0.6832
  144OSM    C6S15813   0.842   6.927   6.449  0.3633  0.0400  0.5134
  144OSM    H6S15814   0.783   7.015   6.418  1.0986  1.2744  2.4453
  144OSM    H6T15815   0.947   6.960   6.466  0.7036 -0.6426 -0.2045
  144OSM    C7S15816   0.786   6.877   6.580 -0.1395 -0.2816  0.4833
  144OSM    H7S15817   0.861   6.808   6.624  1.7591  0.0776 -1.9535
  144OSM    H7T15818   0.690   6.822   6.563 -0.6705  0.9081 -0.5731
  144OSM    C8S15819   0.756   6.992   6.679  0.0063 -0.3069 -1.0034
  144OSM    H8S15820   0.686   7.064   6.630 -2.1019 -0.6641  1.2490
  144OSM    H8T15821   0.855   7.039   6.695  0.8664 -1.8379 -1.6647
  144OSM    C9S15822   0.694   6.948   6.813 -0.3593 -0.6502  0.1349
  144OSM    H9S15823   0.774   6.878   6.845  0.8149  0.7963  0.4387
  144OSM    H9T15824   0.602   6.885   6.806 -0.2006 -0.8731  0.0599
  144OSM   C10S15825   0.676   7.073   6.905 -0.8730 -0.1699 -0.2356
  144OSM   H10S15826   0.586   7.126   6.865 -0.8806  0.0381  0.0534
  144OSM   H10T15827   0.761   7.142   6.889 -1.1087 -0.0144 -0.8696
  144OSM   C11S15828   0.635   7.036   7.048 -0.0029  0.0893  0.3188
  144OSM   H11S15829   0.552   6.966   7.025  0.2561 -0.1592  0.1383
  144OSM   H11T15830   0.598   7.126   7.102 -0.2296 -0.6867  1.4902
  144OSM   C12S15831   0.747   6.968   7.133  0.6471 -0.8173  0.6684
  144OSM   H12S15832   0.824   7.047   7.142 -0.6033  0.7435 -1.4674
  144OSM   H12T15833   0.793   6.875   7.092 -0.8585 -0.8412 -1.0841
  144OSM   C13S15834   0.702   6.945   7.276 -0.7035 -0.4325 -0.0687
  144OSM   H13S15835   0.606   6.892   7.292 -0.5465 -0.3191  1.4497
  144OSM   H13T15836   0.673   7.041   7.325  0.5572  0.0179 -0.1705
  144OSM   C14S15837   0.815   6.896   7.371 -0.3502  0.2968 -0.3424
  144OSM   H14S15838   0.903   6.960   7.349 -1.3933  2.2044  0.7745
  144OSM   H14T15839   0.855   6.793   7.365 -0.2806  0.1996  1.3179
  144OSM   C15S15840   0.774   6.894   7.517 -0.4072 -0.1677  1.2967
  144OSM   H15S15841   0.717   6.804   7.546 -1.3364 -0.2810 -0.7248
  144OSM   H15T15842   0.700   6.974   7.537  0.5582  0.8012  1.1149
  144OSM   C16S15843   0.897   6.906   7.618  0.3759  0.8637  0.0563
  144OSM   H16S15844   0.951   7.003   7.611 -1.1960  1.6463 -3.3770
  144OSM   H16T15845   0.968   6.822   7.603 -0.2503  0.4174 -0.4567
  144OSM   C17S15846   0.841   6.881   7.761 -0.5344 -0.2865  0.5270
  144OSM   H17S15847   0.770   6.796   7.765 -2.3159  0.9551 -1.9357
  144OSM   H17T15848   0.789   6.971   7.801  0.3839  1.3290 -1.6676
  144OSM   C18S15849   0.946   6.858   7.875  0.3628 -0.3253 -0.3795
  144OSM   H18S15850   0.906   6.801   7.961 -0.6046 -0.0948 -0.6585
  144OSM   H18T15851   0.988   6.956   7.904  1.2715 -0.3027 -1.6653
  144OSM   H18U15852   1.028   6.796   7.833  0.1649 -1.4077  0.7700
  144OSM    C1F15853   1.016   6.827   5.923  0.3159 -0.9218 -0.5248
  144OSM     OF15854   0.957   6.913   5.854 -0.2807  0.0673 -0.1989
  144OSM    C2F15855   1.157   6.804   5.906 -0.2320 -0.5081 -0.6438
  144OSM    H2F15856   1.184   6.793   5.799  3.2556  0.3052  0.0240
  144OSM    H2G15857   1.199   6.718   5.961 -2.8982 -1.0811  0.6837
  144OSM    C3F15858   1.241   6.922   5.966 -0.6198  0.1615 -0.7233
  144OSM    H3F15859   1.213   7.022   5.929 -0.8168  0.9014  1.3176
  144OSM    H3G15860   1.337   6.898   5.914  0.3424  1.0325  0.5930
  144OSM    C4F15861   1.252   6.918   6.115 -1.0977  0.5442 -0.3489
  144OSM    H4F15862   1.245   6.814   6.154 -3.3209  0.7821  0.0457
  144OSM    H4G15863   1.163   6.974   6.152  0.6754  1.9401  2.0628
  144OSM    C5F15864   1.380   6.994   6.170 -1.1655 -0.2934 -0.4418
  144OSM    H5F15865   1.355   7.100   6.151  0.7738 -0.1275 -2.4566
  144OSM    H5G15866   1.466   6.975   6.103 -1.6950  0.2585 -1.2960
  144OSM    C6F15867   1.412   6.973   6.322 -0.3840  0.2796  0.1875
  144OSM    H6F15868   1.458   7.066   6.360  3.4714 -1.1061 -0.6794
  144OSM    H6G15869   1.484   6.888   6.332 -0.8626 -0.2069 -0.3730
  144OSM    C7F15870   1.289   6.954   6.405  0.3335 -0.0656 -0.4136
  144OSM    H7F15871   1.227   6.863   6.393 -0.1771  0.1702  0.3924
  144OSM    H7G15872   1.217   7.037   6.385 -2.6036 -1.6693  2.5064
  144OSM    C8F15873   1.323   6.967   6.552 -0.6651 -0.2527 -0.5422
  144OSM    H8F15874   1.380   7.060   6.572 -0.2717 -0.5686 -0.1783
  144OSM    H8G15875   1.385   6.879   6.578  2.4555  1.0135 -3.0037
  144OSM    C9F15876   1.198   6.957   6.631 -0.3555  0.3639 -0.1035
  144OSM    H9F15877   1.109   6.910   6.587 -1.1108 -1.9037  3.4217
  144OSM   C10F15878   1.195   6.999   6.760  0.2853  0.6610 -0.0211
  144OSM   H10F15879   1.101   6.975   6.811  1.8188 -3.1388  1.3200
  144OSM   C11F15880   1.302   7.058   6.845  0.0656 -0.3041  0.5330
  144OSM   H11F15881   1.381   7.107   6.783 -1.8670 -0.8068 -2.5890
  144OSM   H11G15882   1.342   6.978   6.911 -3.5893 -0.7377  2.4641
  144OSM   C12F15883   1.236   7.160   6.941  0.0289  0.1816  0.4025
  144OSM   H12F15884   1.163   7.107   7.007 -0.0469 -2.9779 -1.9841
  144OSM   H12G15885   1.179   7.241   6.890 -1.5793 -1.5043 -0.6176
  144OSM   C13F15886   1.337   7.223   7.032  0.6368 -0.4525  0.7296
  144OSM   H13F15887   1.397   7.152   7.092 -0.6140 -0.1974  2.3672
  144OSM   H13G15888   1.279   7.287   7.102  1.1434 -0.3464  1.0551
  144OSM   C14F15889   1.426   7.311   6.943 -0.3552  0.2109  0.9692
  144OSM   H14F15890   1.389   7.344   6.844 -1.9530  0.0344  1.4801
  144OSM   H14G15891   1.529   7.269   6.938 -0.3172  0.4291 -0.7845
  144OSM   C15F15892   1.474   7.441   7.020  0.3907 -0.0635  0.6291
  144OSM   H15F15893   1.393   7.510   7.051  0.4353  0.6469 -0.7564
  144OSM   H15G15894   1.547   7.491   6.953  1.7413 -1.8523  0.6886
  144OSM   C16F15895   1.545   7.406   7.154 -0.6125 -0.2284  0.6785
  144OSM   H16F15896   1.619   7.324   7.138 -1.3370 -1.1578  1.9399
  144OSM   H16G15897   1.469   7.365   7.224 -1.7278  1.6306  0.5964
  144OSM   C17F15898   1.618   7.521   7.222 -0.6370 -0.2058  0.7062
  144OSM   H17F15899   1.698   7.562   7.156 -1.4245  2.3030  1.1968
  144OSM   H17G15900   1.658   7.489   7.320 -1.3774 -1.6520  0.5572
  144OSM   C18F15901   1.534   7.650   7.251 -0.2406 -0.0614  0.6956
  144OSM   H18F15902   1.603   7.724   7.298 -0.4732  0.0184  0.9123
  144OSM   H18G15903   1.458   7.632   7.330  1.1191  0.3988  2.1617
  144OSM   H18H15904   1.488   7.692   7.159 -0.3438 -0.2370  0.6667
  145SAPE     N15905   5.624   1.533  11.189 -0.6459  0.0743 -0.0195
  145SAPE   HN115906   5.609   1.432  11.209  1.9296  0.1749  3.3372
  145SAPE   HN215907   5.678   1.567  11.272 -0.3111 -1.6358  0.5154
  145SAPE   HN315908   5.540   1.594  11.192  0.2465  1.5533 -2.2362
  145SAPE   C1215909   5.704   1.550  11.061  0.8919  0.9182 -0.2222
  145SAPE  H12A15910   5.796   1.488  11.066 -0.9127 -1.9945 -0.4761
  145SAPE  H12B15911   5.732   1.657  11.054 -1.6739  1.6101 -0.9120
  145SAPE   C1115912   5.615   1.505  10.942 -0.8303  0.6933 -0.3447
  145SAPE  H11A15913   5.685   1.517  10.856  2.2602  0.1209  1.9426
  145SAPE  H11B15914   5.531   1.576  10.925 -0.9877  1.1681  2.0826
  145SAPE     P15915   5.430   1.329  10.920  0.0388 -0.3375 -0.7152
  145SAPE   O1315916   5.431   1.184  10.925 -0.1941  0.3237  0.4375
  145SAPE   O1415917   5.338   1.407  11.007  0.1552  0.4435  0.1621
  145SAPE   O1215918   5.578   1.367  10.960 -0.3713 -0.7767 -0.3345
  145SAPE   O1115919   5.406   1.379  10.770  0.1989 -0.2486 -0.1742
  145SAPE    C115920   5.511   1.359  10.672  0.3458  0.2462 -0.0891
  145SAPE    HA15921   5.603   1.420  10.685 -0.3580  1.4993 -0.8389
  145SAPE    HB15922   5.538   1.252  10.663  1.3991  0.5659 -0.9260
  145SAPE    C215923   5.450   1.388  10.533 -0.2025  0.2205 -0.3088
  145SAPE    HS15924   5.426   1.496  10.541  1.0305  0.4676  0.2159
  145SAPE   O2115925   5.352   1.291  10.512  0.8615 -0.0400  0.0455
  145SAPE   C2115926   5.251   1.324  10.430 -0.3732  0.1157 -0.8556
  145SAPE   O2215927   5.247   1.434  10.371  0.1387  0.1572 -0.2368
  145SAPE   C2215928   5.148   1.213  10.408 -0.2700 -0.3204 -0.2233
  145SAPE   H2R15929   5.168   1.114  10.454 -0.0507 -1.3946 -2.5009
  145SAPE   H2S15930   5.050   1.248  10.446  0.5017  1.3794  0.2945
  145SAPE    C315931   5.552   1.376  10.417 -0.3398  0.4177 -0.5449
  145SAPE    HX15932   5.632   1.454  10.420 -0.3803  0.4969 -1.2957
  145SAPE    HY15933   5.495   1.408  10.328 -1.7633 -0.8574 -0.1303
  145SAPE   O3115934   5.611   1.241  10.405 -0.2443 -0.0735  0.8066
  145SAPE   C3115935   5.731   1.218  10.447  0.3736  0.1015  0.1220
  145SAPE   O3215936   5.823   1.293  10.490  0.6031  0.4733  0.5955
  145SAPE   C3215937   5.744   1.065  10.421 -0.0228 -0.2396  0.8038
  145SAPE   H2X15938   5.662   1.040  10.351 -0.6329  1.8618  0.7096
  145SAPE   H2Y15939   5.728   1.023  10.522 -0.4059 -0.1855  0.7663
  145SAPE   C2315940   5.133   1.182  10.258 -0.2273  0.0592 -0.1741
  145SAPE   H3R15941   5.120   1.273  10.196  1.8823  0.3404 -0.2838
  145SAPE   H3S15942   5.034   1.134  10.243  0.1471 -0.8824  0.2504
  145SAPE   C2415943   5.239   1.098  10.200 -0.1070 -0.0033 -0.0259
  145SAPE   H4R15944   5.231   0.993  10.237  0.7149 -0.4456 -1.0311
  145SAPE   H4S15945   5.340   1.122  10.240  0.1037  1.7906 -1.4949
  145SAPE   C2515946   5.232   1.094  10.050 -0.3337  0.0685  0.3575
  145SAPE   H5R15947   5.133   1.067  10.011 -1.8449  3.1481  1.7299
  145SAPE   C2615948   5.333   1.122   9.960  1.1505  0.8979 -0.4178
  145SAPE   H6R15949   5.311   1.119   9.852 -0.4249 -0.3832 -0.1202
  145SAPE   C2715950   5.476   1.161   9.993  0.3735  1.3243  0.3639
  145SAPE   H7R15951   5.531   1.127   9.903 -1.5173 -0.5082 -0.1875
  145SAPE   H7S15952   5.517   1.110  10.082 -0.3580 -0.7549 -0.4249
  145SAPE   C2815953   5.503   1.301  10.014  0.5289 -0.3220 -0.2837
  145SAPE   H8R15954   5.500   1.331  10.120 -0.3634 -0.8416 -0.1544
  145SAPE   C2915955   5.541   1.393   9.925  1.2357 -0.2206 -0.1781
  145SAPE   H9R15956   5.578   1.493   9.953  1.9481  0.1812 -2.3540
  145SAPE  C21015957   5.533   1.366   9.777  0.3865 -0.4806  0.2394
  145SAPE  H10R15958   5.448   1.297   9.757 -0.8704  1.3445 -1.0401
  145SAPE  H10S15959   5.607   1.288   9.747 -1.3582 -0.8307 -3.7485
  145SAPE  C21115960   5.535   1.468   9.661 -0.4531 -0.0645 -0.1191
  145SAPE  H11R15961   5.435   1.509   9.641 -0.7485 -0.2735  0.9156
  145SAPE  C21215962   5.647   1.501   9.594  0.3510 -0.4586  0.0755
  145SAPE  H12R15963   5.646   1.576   9.514  0.2820 -1.5111 -0.9256
  145SAPE  C21315964   5.777   1.435   9.635  0.3729 -0.1943 -0.2650
  145SAPE  H13R15965   5.776   1.330   9.600  0.7213 -0.7022  1.1817
  145SAPE  H13S15966   5.777   1.431   9.746 -3.0009  0.1522 -0.1627
  145SAPE  C21415967   5.893   1.511   9.577  0.3555  0.6935 -0.8221
  145SAPE  H14R15968   5.954   1.556   9.657 -3.5754  2.9830  1.2130
  145SAPE  C21515969   5.927   1.527   9.454  0.0131  0.1376  0.5977
  145SAPE  H15R15970   6.004   1.594   9.411 -0.0131 -0.3937 -0.2994
  145SAPE  C21615971   5.856   1.474   9.329 -0.5052 -0.1498  0.1123
  145SAPE  H16R15972   5.778   1.400   9.358 -0.1894 -0.3535  0.4530
  145SAPE  H16S15973   5.927   1.423   9.260  1.1021  1.5637  0.4185
  145SAPE  C21715974   5.780   1.593   9.254  0.6804  1.3286 -0.3871
  145SAPE  H17R15975   5.865   1.644   9.206  2.0180 -1.1160 -0.8057
  145SAPE  H17S15976   5.727   1.663   9.322  0.2753  1.5366 -0.9092
  145SAPE  C21815977   5.685   1.548   9.142 -0.1013 -0.2799 -0.6590
  145SAPE  H18R15978   5.632   1.635   9.097 -2.3017 -0.4683  1.3723
  145SAPE  H18S15979   5.607   1.482   9.186 -0.5272  1.5985  1.5670
  145SAPE  C21915980   5.768   1.487   9.036 -0.2523 -0.0294  0.9338
  145SAPE  H19R15981   5.857   1.429   9.069 -0.7325 -0.6091  1.2478
  145SAPE  H19S15982   5.819   1.574   8.991  1.6200 -1.1064  0.8861
  145SAPE  C22015983   5.690   1.417   8.930 -0.5303  0.3353  0.6730
  145SAPE  H20R15984   5.748   1.393   8.839 -0.7412  0.8422  0.4014
  145SAPE  H20S15985   5.609   1.482   8.892  0.8134  0.4640 -2.2156
  145SAPE  H20T15986   5.646   1.322   8.969 -0.8667  1.5486  3.4638
  145SAPE   C3315987   5.885   1.015  10.381 -0.8482 -0.1675  0.1538
  145SAPE   H3X15988   5.881   0.904  10.389  2.6709 -0.3533  0.9783
  145SAPE   H3Y15989   5.961   1.058  10.449  1.4373 -0.0750 -2.2889
  145SAPE   C3415990   5.914   1.042  10.228  0.0131 -0.3111 -0.3749
  145SAPE   H4X15991   5.821   1.018  10.173 -0.5267  0.4620  0.1734
  145SAPE   H4Y15992   5.994   0.974  10.192 -0.8777 -0.9188 -1.2463
  145SAPE   C3515993   5.967   1.184  10.196 -1.1576 -0.5719 -0.4244
  145SAPE   H5X15994   6.074   1.198  10.222 -2.0047 -0.2262  3.4002
  145SAPE   H5Y15995   5.918   1.262  10.257  1.3085  2.2432 -1.7780
  145SAPE   C3615996   5.942   1.225  10.049 -0.2301  0.3709 -0.1453
  145SAPE   H6X15997   5.838   1.207  10.014 -0.6336  1.7750  0.2529
  145SAPE   H6Y15998   6.005   1.148   9.999 -0.4294  1.2942 -1.8985
  145SAPE   C3715999   5.987   1.360  10.006 -0.2989  0.1491 -0.7816
  145SAPE   H7X16000   5.912   1.437  10.035 -0.6808 -0.9259  1.2140
  145SAPE   H7Y16001   5.994   1.353   9.895  0.4972 -1.2848 -0.6596
  145SAPE   C3816002   6.129   1.399  10.061 -0.9996 -0.1944  0.1983
  145SAPE   H8X16003   6.199   1.325  10.016 -0.3784  0.2394  0.4369
  145SAPE   H8Y16004   6.138   1.381  10.170  0.4106  0.0854  0.1478
  145SAPE   C3916005   6.178   1.535  10.018 -0.9647 -0.3997 -0.4279
  145SAPE   H9X16006   6.289   1.535  10.019 -0.9704 -0.3643  0.1964
  145SAPE   H9Y16007   6.150   1.616  10.089  0.4906 -1.0662  0.9733
  145SAPE  C31016008   6.145   1.582   9.877 -0.9709 -0.3260 -0.4854
  145SAPE  H10X16009   6.036   1.597   9.891 -1.2056 -1.9615 -0.3636
  145SAPE  H10Y16010   6.158   1.502   9.801  0.7156 -0.6024  0.0597
  145SAPE  C31116011   6.209   1.711   9.844  0.4703 -0.1740  0.3033
  145SAPE  H11X16012   6.319   1.701   9.853  0.3340 -1.7537  0.3963
  145SAPE  H11Y16013   6.176   1.786   9.919 -1.1576  2.2747 -2.6314
  145SAPE  C31216014   6.190   1.766   9.702 -0.1225  0.1716  0.2410
  145SAPE  H12X16015   6.248   1.858   9.677 -0.3367  0.4856  0.8591
  145SAPE  H12Y16016   6.086   1.783   9.670  0.0214 -1.5612 -1.2825
  145SAPE  C31316017   6.241   1.672   9.588 -0.0543 -0.6964 -0.0797
  145SAPE  H13X16018   6.182   1.578   9.592 -3.0453  1.0654  0.6092
  145SAPE  H13Y16019   6.349   1.653   9.605  0.0313  0.5831  1.0772
  145SAPE  C31416020   6.216   1.741   9.452 -0.6478  0.5326  0.0954
  145SAPE  H14X16021   6.287   1.825   9.436  0.1391 -0.2633 -0.7237
  145SAPE  H14Y16022   6.110   1.774   9.461 -0.7046  0.8564 -1.5274
  145SAPE  C31516023   6.251   1.637   9.340  0.9208 -0.0126  0.2252
  145SAPE  H15X16024   6.213   1.537   9.371 -1.4374  1.5776  2.9937
  145SAPE  H15Y16025   6.360   1.631   9.321  1.0333  1.9278  0.0058
  145SAPE  C31616026   6.204   1.684   9.196  0.5397 -0.3766 -0.8046
  145SAPE  H16X16027   6.263   1.775   9.173 -0.4242  0.3527 -0.4338
  145SAPE  H16Y16028   6.098   1.713   9.210  1.3766  2.2314  0.8498
  145SAPE  C31716029   6.224   1.576   9.089 -0.0776 -0.2481  0.2939
  145SAPE  H17X16030   6.165   1.486   9.118 -1.5126  0.5941  0.0700
  145SAPE  H17Y16031   6.330   1.549   9.108  0.7543  0.8499 -2.3937
  145SAPE  C31816032   6.189   1.592   8.942 -0.0166  0.0443  1.1938
  145SAPE  H18X16033   6.235   1.685   8.903  2.2380 -2.0246 -1.5308
  145SAPE  H18Y16034   6.081   1.596   8.919  0.6240  1.7049 -1.9878
  145SAPE  H18Z16035   6.239   1.507   8.890 -1.9258 -1.0046  1.0092
  146SAPE     N16036   4.900   2.787  11.313 -0.2369 -0.3572  0.5229
  146SAPE   HN116037   4.848   2.758  11.398  0.0224  0.8561  1.1129
  146SAPE   HN216038   5.001   2.794  11.336  0.4555 -0.3359 -2.2203
  146SAPE   HN316039   4.871   2.883  11.286  1.9587 -0.0107 -0.8183
  146SAPE   C1216040   4.870   2.702  11.190  0.3742 -0.4240  0.2534
  146SAPE  H12A16041   4.867   2.595  11.219  1.7662 -1.3553 -2.7211
  146SAPE  H12B16042   4.941   2.724  11.108 -0.3645 -1.3953 -0.6762
  146SAPE   C1116043   4.728   2.736  11.132  0.6693 -0.1563  0.3071
  146SAPE  H11A16044   4.655   2.676  11.191 -1.8337  1.7271 -0.7148
  146SAPE  H11B16045   4.728   2.696  11.028 -1.1607 -1.2614  0.6799
  146SAPE     P16046   4.613   2.942  11.033 -0.5074  0.1220  0.2723
  146SAPE   O1316047   4.488   2.863  11.025  0.4236  0.7616  0.4184
  146SAPE   O1416048   4.597   3.085  11.051 -0.4574  0.0329  0.5313
  146SAPE   O1216049   4.698   2.875  11.142 -0.5116  0.3220  0.0147
  146SAPE   O1116050   4.698   2.916  10.898 -0.2624 -0.2898 -0.4563
  146SAPE    C116051   4.833   2.973  10.903  0.4074 -0.0600  0.0291
  146SAPE    HA16052   4.821   3.083  10.915  1.1266  0.0888 -0.5714
  146SAPE    HB16053   4.889   2.933  10.990  0.0678 -0.3783  0.1078
  146SAPE    C216054   4.909   2.930  10.771  0.2393  0.1853 -0.5988
  146SAPE    HS16055   5.003   2.990  10.769  0.5411 -0.2255  0.5381
  146SAPE   O2116056   4.831   2.966  10.655  1.0299 -0.1368 -0.2985
  146SAPE   C2116057   4.890   2.972  10.541  0.8139  0.1461  0.1787
  146SAPE   O2216058   5.009   2.982  10.518  0.2049  0.0460 -0.6175
  146SAPE   C2216059   4.777   2.983  10.434 -0.6154 -0.2311  0.5175
  146SAPE   H2R16060   4.698   2.910  10.461  0.4804 -1.6799 -0.0837
  146SAPE   H2S16061   4.727   3.080  10.453 -1.0963 -0.3933  0.0915
  146SAPE    C316062   4.933   2.773  10.780 -0.3506 -0.1090  0.5097
  146SAPE    HX16063   4.831   2.730  10.796 -0.1222 -2.0284 -2.4232
  146SAPE    HY16064   4.993   2.733  10.864  1.8956 -1.0643 -1.4328
  146SAPE   O3116065   4.982   2.715  10.657 -0.3446  0.1261  0.3390
  146SAPE   C3116066   5.114   2.705  10.640  0.4989 -0.3935 -0.2562
  146SAPE   O3216067   5.196   2.758  10.715  0.0067 -0.1139  0.5002
  146SAPE   C3216068   5.144   2.634  10.509  1.0309 -0.2180  0.7382
  146SAPE   H2X16069   5.058   2.570  10.482  1.2412  0.6479 -2.3813
  146SAPE   H2Y16070   5.228   2.565  10.528  2.5108  1.0683 -0.7402
  146SAPE   C2316071   4.822   2.967  10.283  0.1425  0.3046  0.5282
  146SAPE   H3R16072   4.928   2.998  10.274  0.8630 -2.4017 -1.3598
  146SAPE   H3S16073   4.773   3.035  10.210  0.7473 -2.3845 -2.6356
  146SAPE   C2416074   4.808   2.823  10.235  0.0322  0.4274 -0.1669
  146SAPE   H4R16075   4.873   2.768  10.305 -1.8630 -0.6829  0.7978
  146SAPE   H4S16076   4.854   2.824  10.134  0.3991  0.7966  0.0039
  146SAPE   C2516077   4.666   2.768  10.238 -0.5297 -0.1156 -0.0518
  146SAPE   H5R16078   4.636   2.735  10.338 -1.9231  1.9007  0.2524
  146SAPE   C2616079   4.592   2.738  10.128  0.0513  0.6296  0.2069
  146SAPE   H6R16080   4.487   2.711  10.150  1.0946 -2.9525  1.5469
  146SAPE   C2716081   4.630   2.767   9.987 -0.0748  0.1411  0.9201
  146SAPE   H7R16082   4.730   2.722   9.968  0.1962  0.9040  0.5159
  146SAPE   H7S16083   4.624   2.877   9.973  1.5656  0.0807 -0.5980
  146SAPE   C2816084   4.531   2.713   9.888 -0.2006 -0.5654 -0.6040
  146SAPE   H8R16085   4.435   2.766   9.880 -0.3354 -0.6486  0.3676
  146SAPE   C2916086   4.550   2.615   9.802 -0.2211 -0.2241  0.7437
  146SAPE   H9R16087   4.471   2.584   9.732  1.6082  1.5041 -2.2849
  146SAPE  C21016088   4.668   2.531   9.775 -0.7646 -0.2758  1.0324
  146SAPE  H10R16089   4.758   2.563   9.832  1.0052  1.6431 -2.5334
  146SAPE  H10S16090   4.700   2.547   9.670 -1.3249 -0.0721  0.8920
  146SAPE  C21116091   4.644   2.383   9.793 -0.4258 -0.0562  0.5300
  146SAPE  H11R16092   4.656   2.346   9.896  0.2774  3.1210  1.7044
  146SAPE  C21216093   4.638   2.291   9.699 -0.0385  0.4002  0.5359
  146SAPE  H12R16094   4.616   2.190   9.737  0.6521 -0.2534 -0.7314
  146SAPE  C21316095   4.632   2.295   9.548  0.2158 -0.3608  0.4667
  146SAPE  H13R16096   4.711   2.227   9.509  1.1597  1.5048 -1.0657
  146SAPE  H13S16097   4.665   2.392   9.505  1.3843 -0.5500  0.8929
  146SAPE  C21416098   4.498   2.265   9.476  0.8877  0.1986 -0.4102
  146SAPE  H14R16099   4.444   2.357   9.452  1.0860  0.2538 -0.6498
  146SAPE  C21516100   4.447   2.140   9.453  0.2625 -0.3972  0.0236
  146SAPE  H15R16101   4.348   2.133   9.406  1.1382 -1.3259 -1.7809
  146SAPE  C21616102   4.526   2.011   9.478 -0.1492 -0.0891 -0.2704
  146SAPE  H16R16103   4.525   1.985   9.586  0.7797 -0.6136 -0.3829
  146SAPE  H16S16104   4.633   2.025   9.453 -0.0293 -0.1048  0.2246
  146SAPE  C21716105   4.488   1.889   9.397 -0.2125 -0.4862 -0.4437
  146SAPE  H17R16106   4.378   1.873   9.403  0.0192 -1.4963  2.6660
  146SAPE  H17S16107   4.530   1.800   9.449  1.9628  1.0288  0.5467
  146SAPE  C21816108   4.517   1.901   9.251 -0.7188  0.5906  0.8501
  146SAPE  H18R16109   4.626   1.921   9.247 -0.5525 -0.3670  0.5175
  146SAPE  H18S16110   4.462   1.986   9.206 -0.6002 -0.9660 -2.5435
  146SAPE  C21916111   4.488   1.785   9.155  0.5153  0.9875 -0.0032
  146SAPE  H19R16112   4.379   1.778   9.137  0.9515 -0.8638 -2.4445
  146SAPE  H19S16113   4.519   1.690   9.204  2.4715  0.5965 -1.8374
  146SAPE  C22016114   4.565   1.798   9.018  0.4378  0.2113  0.6771
  146SAPE  H20R16115   4.491   1.860   8.962 -2.1192 -1.4548  1.9838
  146SAPE  H20S16116   4.582   1.707   8.957 -1.6682 -0.1709  0.5737
  146SAPE  H20T16117   4.656   1.857   9.042 -0.4425  2.7017 -1.5835
  146SAPE   C3316118   5.181   2.720  10.379  0.1989  0.3212  0.3338
  146SAPE   H3X16119   5.291   2.725  10.364  0.1994 -1.4570 -0.5608
  146SAPE   H3Y16120   5.134   2.820  10.392 -1.4355 -0.5961  1.8116
  146SAPE   C3416121   5.137   2.655  10.249 -0.5274 -0.1117  0.0157
  146SAPE   H4X16122   5.026   2.646  10.243 -0.5821  1.4031 -2.4681
  146SAPE   H4Y16123   5.176   2.551  10.247  0.6828  0.3300  0.1568
  146SAPE   C3516124   5.189   2.730  10.129  0.1205 -0.1231 -0.2148
  146SAPE   H5X16125   5.300   2.734  10.136  0.1433 -0.9260  0.0013
  146SAPE   H5Y16126   5.164   2.837  10.143  0.4203 -0.2464  1.5083
  146SAPE   C3616127   5.147   2.668   9.993  0.4203  0.4088  0.1864
  146SAPE   H6X16128   5.038   2.651   9.983  0.1601  1.3160  1.1997
  146SAPE   H6Y16129   5.186   2.564   9.990  3.0374  1.3475 -0.6477
  146SAPE   C3716130   5.195   2.746   9.875 -0.4743 -0.4019  0.1873
  146SAPE   H7X16131   5.300   2.766   9.905  0.4026 -1.2116 -2.0657
  146SAPE   H7Y16132   5.138   2.841   9.872  0.1495 -0.0228  0.2351
  146SAPE   C3816133   5.206   2.669   9.744 -0.3500  0.0903  0.4005
  146SAPE   H8X16134   5.271   2.579   9.752 -1.0663 -0.8966 -3.0808
  146SAPE   H8Y16135   5.256   2.738   9.672 -3.3617  1.4982 -0.5366
  146SAPE   C3916136   5.079   2.610   9.688 -0.5692 -0.0101 -0.5487
  146SAPE   H9X16137   4.997   2.685   9.682  1.1410  1.8510 -1.7573
  146SAPE   H9Y16138   5.043   2.542   9.768  2.6297 -0.5027  0.5909
  146SAPE  C31016139   5.095   2.537   9.559 -0.3575 -0.2123 -0.8962
  146SAPE  H10X16140   5.012   2.463   9.553 -0.5280 -0.4866  2.5864
  146SAPE  H10Y16141   5.191   2.480   9.557 -0.8016 -1.0945  0.9232
  146SAPE  C31116142   5.095   2.616   9.431 -0.6959  0.2373 -0.3798
  146SAPE  H11X16143   5.186   2.679   9.433  0.5890 -1.5496 -0.4281
  146SAPE  H11Y16144   5.004   2.680   9.430 -1.6323 -1.0303 -0.5155
  146SAPE  C31216145   5.076   2.528   9.303 -0.2064 -0.6783 -0.1313
  146SAPE  H12X16146   4.976   2.485   9.325  0.1976 -0.7847  1.6909
  146SAPE  H12Y16147   5.145   2.442   9.294  0.3894 -0.2784  0.5289
  146SAPE  C31316148   5.070   2.625   9.183  0.8161  0.2519  0.2226
  146SAPE  H13X16149   5.151   2.700   9.200  0.8605  0.0164  1.1312
  146SAPE  H13Y16150   4.970   2.670   9.201  0.4528 -1.1458  2.0793
  146SAPE  C31416151   5.057   2.562   9.047  0.3581 -0.2305 -0.2348
  146SAPE  H14X16152   4.969   2.494   9.044  0.0051  0.1111  1.5194
  146SAPE  H14Y16153   5.150   2.502   9.033 -0.6579 -2.6236  2.2899
  146SAPE  C31516154   5.066   2.666   8.930  0.0893 -0.4171  0.0532
  146SAPE  H15X16155   5.003   2.754   8.958  1.2531  0.1311  1.0808
  146SAPE  H15Y16156   5.028   2.621   8.836  1.9100  1.3968 -1.6717
  146SAPE  C31616157   5.214   2.705   8.915  0.4421 -0.4263  0.6875
  146SAPE  H16X16158   5.278   2.614   8.918  2.1205  0.7049  0.5606
  146SAPE  H16Y16159   5.247   2.764   9.004 -0.5230 -0.3840  1.0279
  146SAPE  C31716160   5.243   2.781   8.780 -0.1489  0.1259  0.1536
  146SAPE  H17X16161   5.178   2.871   8.775 -0.7869 -0.0607  3.0273
  146SAPE  H17Y16162   5.218   2.721   8.690 -2.3893  0.0379  0.7929
  146SAPE  C31816163   5.396   2.814   8.761 -0.0591 -0.7109 -0.1243
  146SAPE  H18X16164   5.415   2.846   8.656  0.9543 -2.0075 -0.3417
  146SAPE  H18Y16165   5.454   2.722   8.778  0.1656 -0.4235  0.6849
  146SAPE  H18Z16166   5.427   2.896   8.830 -4.0312  0.1952  0.8857
  147SAPE     N16167   4.677   5.609  10.737  0.1847  0.4925  0.8194
  147SAPE   HN116168   4.641   5.518  10.700  0.9967  1.1277 -1.7816
  147SAPE   HN216169   4.729   5.589  10.825  1.9795 -1.7644 -0.6156
  147SAPE   HN316170   4.588   5.654  10.766 -1.0030  0.0489 -1.7821
  147SAPE   C1216171   4.746   5.696  10.637  0.2203  0.7511  0.1993
  147SAPE  H12A16172   4.694   5.677  10.541  0.6672 -1.0145  0.2786
  147SAPE  H12B16173   4.850   5.661  10.616  1.0124  3.5330 -0.9361
  147SAPE   C1116174   4.751   5.847  10.683 -1.1309  0.4920  0.0941
  147SAPE  H11A16175   4.786   5.896  10.590  1.0978  1.4441  1.3555
  147SAPE  H11B16176   4.830   5.854  10.761 -1.9629  0.1548  0.9928
  147SAPE     P16177   4.604   6.013  10.815  0.2323  0.1059  0.1150
  147SAPE   O1316178   4.471   6.078  10.798  0.9242 -0.0507  0.3304
  147SAPE   O1416179   4.647   5.975  10.948  0.0510 -0.0090 -0.2177
  147SAPE   O1216180   4.618   5.882  10.717  0.3118  0.3622 -0.0366
  147SAPE   O1116181   4.713   6.111  10.767 -0.4628  0.0009 -0.1453
  147SAPE    C116182   4.682   6.168  10.635 -1.0089 -0.4001 -1.2731
  147SAPE    HA16183   4.642   6.093  10.564 -0.9374 -0.2700 -1.4523
  147SAPE    HB16184   4.601   6.244  10.632 -0.1315  0.5898 -0.4731
  147SAPE    C216185   4.814   6.227  10.565 -0.8047 -0.1797 -0.1210
  147SAPE    HS16186   4.847   6.300  10.642  0.4128 -1.6548  0.7939
  147SAPE   O2116187   4.783   6.296  10.442 -0.1896  0.4028 -0.6607
  147SAPE   C2116188   4.870   6.393  10.407  0.5970  0.3949 -0.5788
  147SAPE   O2216189   4.974   6.423  10.462  0.0593  0.4389 -0.5631
  147SAPE   C2216190   4.824   6.445  10.274  0.0350 -0.3442  0.1019
  147SAPE   H2R16191   4.768   6.368  10.217 -0.3022  0.8266 -1.2014
  147SAPE   H2S16192   4.760   6.534  10.291  0.7870  1.0423 -3.4976
  147SAPE    C316193   4.922   6.125  10.551 -0.4019  0.3303  0.1936
  147SAPE    HX16194   4.936   6.072  10.648  0.2628 -0.5151 -0.3482
  147SAPE    HY16195   5.024   6.164  10.531 -0.2466  0.0938  0.5111
  147SAPE   O3116196   4.892   6.025  10.448 -0.1966 -0.1653  0.6722
  147SAPE   C3116197   4.932   6.045  10.322  0.2192 -0.2701  0.9777
  147SAPE   O3216198   4.994   6.140  10.282 -0.0608 -0.1833 -0.1917
  147SAPE   C3216199   4.873   5.930  10.237 -0.0421  0.1328  0.3068
  147SAPE   H2X16200   4.763   5.943  10.234 -0.2620 -1.5464  0.3351
  147SAPE   H2Y16201   4.879   5.833  10.291 -0.9763 -1.0062 -1.5485
  147SAPE   C2316202   4.944   6.498  10.189 -0.7443  0.2313 -0.6394
  147SAPE   H3R16203   5.008   6.409  10.170 -1.8519 -0.3790 -1.6149
  147SAPE   H3S16204   5.005   6.575  10.241 -2.0705  2.1333 -1.7890
  147SAPE   C2416205   4.908   6.571  10.054 -0.3788  0.2371 -0.0148
  147SAPE   H4R16206   4.982   6.651  10.032  1.0086 -1.3279 -1.1923
  147SAPE   H4S16207   4.807   6.617  10.069 -0.6040 -0.4693  0.7358
  147SAPE   C2516208   4.893   6.467   9.944 -0.5442 -0.0208 -0.2516
  147SAPE   H5R16209   4.867   6.366   9.980  2.3873 -0.8790 -0.3309
  147SAPE   C2616210   4.907   6.489   9.817  0.4111 -0.5709 -0.0577
  147SAPE   H6R16211   4.881   6.406   9.749 -0.8986 -1.3497  1.3391
  147SAPE   C2716212   4.959   6.618   9.754 -0.1428 -0.1707 -0.3521
  147SAPE   H7R16213   5.008   6.597   9.657 -0.3903 -1.3424 -0.2376
  147SAPE   H7S16214   5.038   6.672   9.811  1.2325  1.6849 -3.7277
  147SAPE   C2816215   4.842   6.722   9.746 -0.3331  1.2476 -0.1920
  147SAPE   H8R16216   4.834   6.777   9.842  0.4984 -0.0270  0.6359
  147SAPE   C2916217   4.769   6.757   9.638 -0.2391 -0.2567 -0.0078
  147SAPE   H9R16218   4.681   6.818   9.664  0.5609 -0.0450  2.4852
  147SAPE  C21016219   4.783   6.718   9.491  0.2364 -0.2124 -1.0285
  147SAPE  H10R16220   4.733   6.624   9.460  1.9675 -1.6107  0.2561
  147SAPE  H10S16221   4.892   6.703   9.475  0.1071 -0.9215 -1.2799
  147SAPE  C21116222   4.736   6.825   9.403  0.2325  0.1113  0.5507
  147SAPE  H11R16223   4.708   6.921   9.449  1.8902  0.7786  0.2472
  147SAPE  C21216224   4.720   6.812   9.270 -0.2003  0.0834  0.0238
  147SAPE  H12R16225   4.697   6.900   9.208  1.0115 -0.1134 -0.7333
  147SAPE  C21316226   4.743   6.696   9.180  0.6770 -0.2414 -0.4066
  147SAPE  H13R16227   4.764   6.606   9.241 -2.1272 -0.5257  0.2817
  147SAPE  H13S16228   4.841   6.718   9.132  2.4470 -0.7459  2.7309
  147SAPE  C21416229   4.631   6.653   9.098  0.2814 -0.8129 -0.4132
  147SAPE  H14R16230   4.537   6.644   9.156  0.4079 -0.3011 -0.1275
  147SAPE  C21516231   4.625   6.636   8.961 -0.3386  0.7176  0.0358
  147SAPE  H15R16232   4.532   6.602   8.912  1.6842 -2.4641 -1.9770
  147SAPE  C21616233   4.743   6.640   8.868  0.1827 -0.4223 -0.3213
  147SAPE  H16R16234   4.723   6.596   8.768  0.3480  0.5000 -0.7722
  147SAPE  H16S16235   4.829   6.585   8.912  0.9202  1.6679  1.0026
  147SAPE  C21716236   4.792   6.780   8.836 -0.2221 -0.0192  0.4970
  147SAPE  H17R16237   4.895   6.788   8.796 -0.5338 -1.1419 -0.6419
  147SAPE  H17S16238   4.780   6.841   8.927  2.6772  1.0944  0.2258
  147SAPE  C21816239   4.706   6.854   8.718 -0.8401  0.0322 -0.3135
  147SAPE  H18R16240   4.728   6.962   8.714 -1.8334  0.2324 -0.7292
  147SAPE  H18S16241   4.597   6.845   8.737 -0.8294  0.7565  0.1112
  147SAPE  C21916242   4.742   6.800   8.573 -0.1689  0.4587 -0.4218
  147SAPE  H19R16243   4.710   6.694   8.565 -1.3654  0.6405  1.4778
  147SAPE  H19S16244   4.853   6.805   8.563 -0.1917 -0.3174 -1.1442
  147SAPE  C22016245   4.684   6.893   8.463  0.4578 -0.6982  0.2524
  147SAPE  H20R16246   4.715   6.999   8.462 -2.9964  0.4343 -0.7724
  147SAPE  H20S16247   4.575   6.910   8.476  0.4810  0.8907 -1.2755
  147SAPE  H20T16248   4.692   6.862   8.357  3.1825  0.7261 -0.0354
  147SAPE   C3316249   4.940   5.917  10.100  0.1080  0.0873  0.4952
  147SAPE   H3X16250   4.915   5.822  10.048  1.3998  0.1200 -0.2113
  147SAPE   H3Y16251   5.050   5.911  10.090  0.0247 -1.5739  0.2926
  147SAPE   C3416252   4.876   6.019  10.007 -0.3917 -0.2384  0.5190
  147SAPE   H4X16253   4.922   6.118  10.025  0.9328 -0.7781  0.1712
  147SAPE   H4Y16254   4.765   6.021  10.017 -0.5518  1.7472 -1.0358
  147SAPE   C3516255   4.911   6.003   9.858 -0.2818 -0.4372 -0.0314
  147SAPE   H5X16256   4.883   5.903   9.818  0.5634 -0.5208 -0.4353
  147SAPE   H5Y16257   5.022   6.005   9.850 -0.2121  1.4225  0.9779
  147SAPE   C3616258   4.867   6.107   9.759 -0.4204 -0.2186  0.0012
  147SAPE   H6X16259   4.931   6.198   9.762  0.2708 -0.7109  0.9759
  147SAPE   H6Y16260   4.761   6.129   9.785 -0.5157  0.1391 -0.6777
  147SAPE   C3716261   4.875   6.071   9.613 -0.4308 -0.1719  0.8391
  147SAPE   H7X16262   4.819   5.977   9.592  0.8570 -0.5710 -1.0727
  147SAPE   H7Y16263   4.974   6.063   9.563 -1.7659  0.9114 -2.1747
  147SAPE   C3816264   4.803   6.180   9.522 -0.0825 -0.4032  0.1989
  147SAPE   H8X16265   4.865   6.272   9.522 -1.4315  0.5306 -0.4172
  147SAPE   H8Y16266   4.698   6.200   9.552 -0.2621 -3.7068  2.2550
  147SAPE   C3916267   4.806   6.128   9.373 -0.7283  0.3999 -0.5115
  147SAPE   H9X16268   4.762   6.026   9.364  2.7156 -1.0844 -2.2776
  147SAPE   H9Y16269   4.910   6.103   9.344 -0.1744  3.7940 -1.9122
  147SAPE  C31016270   4.759   6.221   9.263 -0.0806 -0.5762  0.4257
  147SAPE  H10X16271   4.844   6.292   9.255 -1.0874  0.4844 -1.6380
  147SAPE  H10Y16272   4.669   6.278   9.294  2.2959  3.3035  0.7933
  147SAPE  C31116273   4.725   6.157   9.126  0.2068  0.3697  0.2928
  147SAPE  H11X16274   4.661   6.066   9.139 -1.3728  0.9704 -2.4120
  147SAPE  H11Y16275   4.819   6.120   9.081 -1.1700 -0.6038 -1.9831
  147SAPE  C31216276   4.674   6.253   9.015 -0.4298 -0.0638 -0.2895
  147SAPE  H12X16277   4.751   6.333   9.003 -1.7629  0.9478 -2.9134
  147SAPE  H12Y16278   4.585   6.312   9.045  2.0158  2.7878  1.9747
  147SAPE  C31316279   4.636   6.187   8.878 -1.1307  0.3219  0.4644
  147SAPE  H13X16280   4.549   6.120   8.897 -0.7405 -0.7547 -1.2969
  147SAPE  H13Y16281   4.725   6.130   8.844  0.4780  1.8731  1.8846
  147SAPE  C31416282   4.604   6.301   8.779  1.0012  0.1953  0.4100
  147SAPE  H14X16283   4.685   6.377   8.767 -0.6317  1.8498 -0.7226
  147SAPE  H14Y16284   4.506   6.347   8.800  0.3844 -0.5442 -0.7264
  147SAPE  C31516285   4.584   6.251   8.635 -0.0886  1.1823  0.2663
  147SAPE  H15X16286   4.673   6.204   8.589 -1.1001  1.0169 -1.6334
  147SAPE  H15Y16287   4.552   6.344   8.583 -2.0793  0.7823  0.6872
  147SAPE  C31616288   4.478   6.144   8.618  0.6757  0.3714  0.0768
  147SAPE  H16X16289   4.379   6.190   8.637  0.3076  0.4166 -1.8237
  147SAPE  H16Y16290   4.507   6.052   8.674  1.3403 -1.2682 -2.7720
  147SAPE  C31716291   4.451   6.091   8.469 -0.5364 -0.6060 -0.7829
  147SAPE  H17X16292   4.550   6.062   8.430 -0.4634 -0.0196 -1.0439
  147SAPE  H17Y16293   4.425   6.190   8.426 -3.0137  1.0583  3.7939
  147SAPE  C31816294   4.340   5.991   8.451 -0.3112 -0.1901 -0.3808
  147SAPE  H18X16295   4.268   6.003   8.535  0.6856  1.3940  0.3169
  147SAPE  H18Y16296   4.381   5.888   8.453  1.6386  0.5405 -0.3977
  147SAPE  H18Z16297   4.291   5.997   8.352  1.5443 -1.5119 -1.4593
  148SAPE     N16298   0.662   5.780  10.669  0.4271  0.3004  0.4522
  148SAPE   HN116299   0.598   5.705  10.636 -2.7623  2.7617  0.5384
  148SAPE   HN216300   0.610   5.869  10.654 -2.8702 -1.7194 -1.2953
  148SAPE   HN316301   0.754   5.769  10.622  1.3968 -2.4919  2.7862
  148SAPE   C1216302   0.686   5.758  10.814  0.5999 -0.7536  0.8300
  148SAPE  H12A16303   0.622   5.827  10.874  0.2209 -0.1054 -0.2976
  148SAPE  H12B16304   0.794   5.785  10.825  0.9957 -0.1267 -3.1078
  148SAPE   C1116305   0.662   5.607  10.842  0.1355  0.3075 -0.3465
  148SAPE  H11A16306   0.681   5.580  10.949 -2.0097  0.9923  0.2704
  148SAPE  H11B16307   0.737   5.555  10.778  1.0719  0.0254  0.9325
  148SAPE     P16308   0.490   5.465  10.717 -0.0202 -0.1845 -0.2486
  148SAPE   O1316309   0.597   5.364  10.715  0.1448 -0.0578 -0.1741
  148SAPE   O1416310   0.348   5.426  10.726  0.3859 -0.1783 -0.7458
  148SAPE   O1216311   0.526   5.580  10.819 -0.5627  0.0121  0.4717
  148SAPE   O1116312   0.507   5.545  10.581  0.1562  0.7391  0.2029
  148SAPE    C116313   0.493   5.491  10.445 -0.2333 -0.1292 -0.2698
  148SAPE    HA16314   0.562   5.549  10.380 -1.3208  0.4100 -0.9737
  148SAPE    HB16315   0.528   5.386  10.445  0.9568 -0.0740  5.5783
  148SAPE    C216316   0.348   5.508  10.400 -0.5723  0.0685 -0.3636
  148SAPE    HS16317   0.279   5.432  10.442 -1.1066  1.7588  2.0601
  148SAPE   O2116318   0.360   5.500  10.259 -0.4869  0.5074 -0.0166
  148SAPE   C2116319   0.254   5.466  10.198 -0.1808 -0.4964 -0.7813
  148SAPE   O2216320   0.143   5.449  10.254  0.2257  0.2884 -0.6066
  148SAPE   C2216321   0.282   5.443  10.054 -0.5238 -0.1123 -0.5409
  148SAPE   H2R16322   0.340   5.528  10.011 -3.8734  3.5561  1.5256
  148SAPE   H2S16323   0.334   5.345  10.059  0.0920  0.2579  1.0329
  148SAPE    C316324   0.282   5.648  10.442  0.4802  0.9678 -0.1354
  148SAPE    HX16325   0.266   5.638  10.551  0.2675  2.9185  0.0408
  148SAPE    HY16326   0.187   5.661  10.384 -1.0108 -0.3432  1.8822
  148SAPE   O3116327   0.374   5.755  10.419 -0.5795  0.0111 -0.1364
  148SAPE   C3116328   0.353   5.814  10.296  1.4843  0.1683 -0.0126
  148SAPE   O3216329   0.255   5.792  10.228  0.0467 -0.5334 -0.2096
  148SAPE   C3216330   0.468   5.914  10.268  0.2387 -0.5968  0.6639
  148SAPE   H2X16331   0.448   6.002  10.333 -2.0322 -1.0111  0.6202
  148SAPE   H2Y16332   0.451   5.950  10.165 -0.7887 -1.8221  0.3747
  148SAPE   C2316333   0.151   5.429   9.969 -0.5272  0.2837 -0.2495
  148SAPE   H3R16334   0.091   5.350  10.020  2.0669  0.2152  3.0021
  148SAPE   H3S16335   0.193   5.394   9.873 -3.3484 -2.1726 -0.7766
  148SAPE   C2416336   0.054   5.548   9.968 -0.8993  0.8016  0.3689
  148SAPE   H4R16337   0.042   5.567  10.076 -1.6233 -1.2255  0.6834
  148SAPE   H4S16338  -0.041   5.514   9.920 -1.3262  1.8583  0.4293
  148SAPE   C2516339   0.113   5.667   9.896  0.2825  0.5227  0.1636
  148SAPE   H5R16340   0.166   5.728   9.971 -0.3705  0.5943  0.5649
  148SAPE   C2616341   0.117   5.696   9.765 -0.0100  1.1142  0.0249
  148SAPE   H6R16342   0.164   5.793   9.741 -1.8229  2.7207  2.4766
  148SAPE   C2716343   0.045   5.618   9.657 -0.5323 -0.3095  0.3146
  148SAPE   H7R16344  -0.023   5.685   9.600 -1.1559  0.2929  1.7153
  148SAPE   H7S16345  -0.026   5.544   9.699  2.0118 -1.9108  2.0881
  148SAPE   C2816346   0.149   5.547   9.570 -0.8008 -0.5242  0.0549
  148SAPE   H8R16347   0.212   5.481   9.632 -1.0868  1.6211  2.8434
  148SAPE   C2916348   0.167   5.543   9.440  0.2723  0.1463 -0.2676
  148SAPE   H9R16349   0.242   5.473   9.399  1.3751  0.4227  1.1931
  148SAPE  C21016350   0.088   5.629   9.339 -0.0981 -0.6593 -0.3954
  148SAPE  H10R16351   0.165   5.700   9.302  0.8565 -0.2115  2.1794
  148SAPE  H10S16352   0.008   5.698   9.377 -0.8904 -0.8560 -1.6542
  148SAPE  C21116353   0.031   5.549   9.218  0.7116 -0.2562 -0.3895
  148SAPE  H11R16354  -0.009   5.448   9.235  0.4667 -0.3487 -1.4332
  148SAPE  C21216355   0.023   5.591   9.086 -0.5265  0.3799 -0.1292
  148SAPE  H12R16356  -0.018   5.522   9.010  2.8026  0.0318 -1.7690
  148SAPE  C21316357   0.061   5.725   9.038 -0.3712 -0.1532 -0.0445
  148SAPE  H13R16358   0.082   5.793   9.124  0.1986 -0.7211  0.2712
  148SAPE  H13S16359  -0.032   5.769   8.996 -0.2134  0.3861  0.1618
  148SAPE  C21416360   0.188   5.736   8.946  0.4379  0.2009 -0.3637
  148SAPE  H14R16361   0.283   5.696   8.983  0.8024  0.9678 -0.4638
  148SAPE  C21516362   0.186   5.793   8.827 -1.2804  1.1712  0.2127
  148SAPE  H15R16363   0.282   5.795   8.773 -0.8841 -2.6744  0.5213
  148SAPE  C21616364   0.074   5.857   8.759  0.1501 -0.3699 -0.4857
  148SAPE  H16R16365   0.104   5.939   8.691 -0.7965 -2.2035 -3.2556
  148SAPE  H16S16366   0.001   5.915   8.819 -0.6697 -1.1147 -0.7490
  148SAPE  C21716367   0.004   5.732   8.693  0.1239  0.2948  0.7836
  148SAPE  H17R16368  -0.038   5.664   8.771  0.8263  0.2356  1.1204
  148SAPE  H17S16369   0.069   5.664   8.633 -1.2773 -0.0279 -0.4046
  148SAPE  C21816370  -0.114   5.778   8.605  0.7399 -0.9795 -0.1530
  148SAPE  H18R16371  -0.082   5.837   8.516 -1.9359  0.1786 -0.4209
  148SAPE  H18S16372  -0.174   5.851   8.664 -0.6365 -1.0125 -1.4622
  148SAPE  C21916373  -0.208   5.665   8.561 -0.0241 -0.5435 -0.5814
  148SAPE  H19R16374  -0.310   5.698   8.532 -0.5189 -1.9913 -0.5238
  148SAPE  H19S16375  -0.226   5.597   8.647 -1.3678  1.4687  0.8378
  148SAPE  C22016376  -0.138   5.572   8.453  0.0137 -0.0105 -0.3788
  148SAPE  H20R16377  -0.098   5.628   8.366  1.1546 -3.8026 -2.5823
  148SAPE  H20S16378  -0.214   5.494   8.431 -0.4962 -0.1229  1.5914
  148SAPE  H20T16379  -0.047   5.521   8.492  1.7799  3.4358  0.4146
  148SAPE   C3316380   0.608   5.861  10.300  1.1680  0.1964  0.1552
  148SAPE   H3X16381   0.635   5.790  10.219 -1.1093  0.6119 -1.0435
  148SAPE   H3Y16382   0.598   5.806  10.395 -0.7259  2.5644  1.4444
  148SAPE   C3416383   0.711   5.966  10.309  0.3022  0.1435 -0.1547
  148SAPE   H4X16384   0.794   5.936  10.377  0.3715  1.6065  0.4342
  148SAPE   H4Y16385   0.673   6.058  10.358  1.1571  0.5091 -0.1743
  148SAPE   C3516386   0.772   6.005  10.174 -0.4962  0.3113 -0.6621
  148SAPE   H5X16387   0.783   5.915  10.110 -2.7685 -1.2701  0.9712
  148SAPE   H5Y16388   0.872   6.050  10.192 -0.7387  0.0232  1.7270
  148SAPE   C3616389   0.689   6.116  10.103  0.7513 -0.1949 -0.0455
  148SAPE   H6X16390   0.691   6.210  10.162  0.8662  1.9477 -3.1982
  148SAPE   H6Y16391   0.580   6.091  10.099  0.5347  0.6576  0.3733
  148SAPE   C3716392   0.737   6.152   9.960 -0.2664 -0.5024  0.3061
  148SAPE   H7X16393   0.746   6.055   9.906 -2.2045 -1.6695  1.9356
  148SAPE   H7Y16394   0.841   6.190   9.969  0.3185 -1.7888 -0.5499
  148SAPE   C3816395   0.639   6.247   9.890 -0.1436  0.7551  0.5215
  148SAPE   H8X16396   0.605   6.334   9.950  0.4661  0.9909  0.5322
  148SAPE   H8Y16397   0.551   6.186   9.860  1.8566 -1.4748 -1.1833
  148SAPE   C3916398   0.682   6.322   9.760 -0.2065  1.0999  0.1678
  148SAPE   H9X16399   0.763   6.264   9.711 -0.9468  1.4061 -1.4777
  148SAPE   H9Y16400   0.733   6.410   9.805 -2.7092  1.9534  1.5293
  148SAPE  C31016401   0.568   6.364   9.661 -0.0203 -0.2875 -0.9437
  148SAPE  H10X16402   0.500   6.436   9.710  1.0355  0.1828 -0.1409
  148SAPE  H10Y16403   0.503   6.275   9.646 -0.3327 -0.5866  1.6539
  148SAPE  C31116404   0.616   6.422   9.528 -0.1092  0.0053  0.4490
  148SAPE  H11X16405   0.715   6.384   9.496 -1.2946 -1.8190 -1.2489
  148SAPE  H11Y16406   0.619   6.533   9.541 -3.1264  0.2095  0.0958
  148SAPE  C31216407   0.517   6.389   9.414 -0.0622  0.0419 -0.8846
  148SAPE  H12X16408   0.423   6.448   9.422  0.2406  0.4493 -0.1734
  148SAPE  H12Y16409   0.499   6.281   9.433 -0.0046 -0.0458 -1.3300
  148SAPE  C31316410   0.571   6.405   9.276 -0.2814 -0.0994  0.9544
  148SAPE  H13X16411   0.484   6.390   9.210  0.3490  0.5077 -0.0361
  148SAPE  H13Y16412   0.655   6.334   9.256  1.0579  1.2556  1.5706
  148SAPE  C31416413   0.639   6.540   9.258  0.3396 -0.3724  0.1963
  148SAPE  H14X16414   0.727   6.554   9.324  1.5705 -1.3904 -1.1824
  148SAPE  H14Y16415   0.556   6.609   9.287 -0.4227 -1.8141  1.6174
  148SAPE  C31516416   0.690   6.564   9.115  0.7726  0.0882  0.4295
  148SAPE  H15X16417   0.710   6.671   9.095  0.0184 -0.0369 -1.1398
  148SAPE  H15Y16418   0.617   6.530   9.038 -0.5302  0.6232  1.3914
  148SAPE  C31616419   0.827   6.495   9.080  0.2723  0.2215  0.0230
  148SAPE  H16X16420   0.814   6.387   9.101  1.4932  0.3971  1.8709
  148SAPE  H16Y16421   0.910   6.536   9.140  0.3716  1.6613 -1.0400
  148SAPE  C31716422   0.869   6.524   8.939 -0.4576 -0.0521  0.1108
  148SAPE  H17X16423   0.890   6.633   8.928  1.0773 -0.1851  1.3193
  148SAPE  H17Y16424   0.786   6.497   8.870 -2.1716  0.2499  1.9502
  148SAPE  C31816425   1.007   6.465   8.888  0.3704 -0.3716 -0.4116
  148SAPE  H18X16426   1.033   6.501   8.786  2.4300 -1.3788 -0.2852
  148SAPE  H18Y16427   1.002   6.354   8.891  0.7993 -0.3861 -0.2213
  148SAPE  H18Z16428   1.086   6.494   8.960  0.2362 -2.0284  0.4449
  149SAPE     N16429   2.418   2.250  10.827  0.0407  0.0434  0.6582
  149SAPE   HN116430   2.518   2.232  10.848  0.8065  0.7965 -1.9389
  149SAPE   HN216431   2.390   2.154  10.800 -1.9092  0.2819  1.6440
  149SAPE   HN316432   2.412   2.301  10.736  1.2975  0.1730  0.6325
  149SAPE   C1216433   2.331   2.329  10.923 -0.7576  0.3290 -0.3986
  149SAPE  H12A16434   2.383   2.426  10.938 -0.6714  0.4638 -1.5140
  149SAPE  H12B16435   2.333   2.278  11.022  4.0698 -1.4694 -1.1462
  149SAPE   C1116436   2.188   2.358  10.875  0.7405  0.3542  0.7060
  149SAPE  H11A16437   2.114   2.370  10.956  0.0255  1.4551 -0.0919
  149SAPE  H11B16438   2.153   2.264  10.827 -0.5047  0.2252  1.8215
  149SAPE     P16439   2.102   2.583  10.771 -0.1886  0.1779 -0.0663
  149SAPE   O1316440   2.126   2.661  10.890  0.4268 -0.1515  0.0701
  149SAPE   O1416441   2.113   2.665  10.652  0.7379 -0.0961 -0.4914
  149SAPE   O1216442   2.208   2.464  10.777  0.1823  0.2027  0.3009
  149SAPE   O1116443   1.952   2.514  10.773 -0.3293  0.2104 -0.2495
  149SAPE    C116444   1.886   2.476  10.648  0.0773 -0.5392 -0.1820
  149SAPE    HA16445   1.778   2.473  10.671  0.1198  0.3319  0.1745
  149SAPE    HB16446   1.893   2.554  10.569 -1.4337 -1.4519 -1.2691
  149SAPE    C216447   1.913   2.327  10.602 -0.3668 -0.4494 -0.6504
  149SAPE    HS16448   1.914   2.266  10.695  2.5817  1.5559  0.7739
  149SAPE   O2116449   2.041   2.316  10.544 -0.4536  0.1917  0.1218
  149SAPE   C2116450   2.090   2.193  10.544  0.2026  0.4664  0.6449
  149SAPE   O2216451   2.031   2.093  10.588 -0.4488 -0.6006 -0.4943
  149SAPE   C2216452   2.218   2.193  10.465 -0.3611  0.8348  0.1682
  149SAPE   H2R16453   2.223   2.293  10.417  0.7801  0.7247  0.0390
  149SAPE   H2S16454   2.296   2.180  10.543  0.3089  0.5897 -0.5378
  149SAPE    C316455   1.800   2.275  10.501  0.8041 -0.8651 -0.4231
  149SAPE    HX16456   1.708   2.260  10.561  1.3174  0.7908  0.8456
  149SAPE    HY16457   1.831   2.172  10.473  0.0590 -0.4943 -2.8223
  149SAPE   O3116458   1.770   2.369  10.386 -0.5373  0.6723  0.1243
  149SAPE   C3116459   1.846   2.329  10.286  0.1598 -1.0120 -0.0256
  149SAPE   O3216460   1.923   2.235  10.284 -0.1978  0.2245 -0.2022
  149SAPE   C3216461   1.820   2.412  10.156  0.2499  0.1674  0.2618
  149SAPE   H2X16462   1.828   2.521  10.178 -2.2735  0.7095 -1.1362
  149SAPE   H2Y16463   1.719   2.385  10.118  2.0880 -4.0061 -2.3843
  149SAPE   C2316464   2.258   2.064  10.376  0.3608 -0.2984 -0.5576
  149SAPE   H3R16465   2.278   1.977  10.442 -0.9087  1.4963  2.4191
  149SAPE   H3S16466   2.349   2.096  10.322  0.8133  0.0213  0.3754
  149SAPE   C2416467   2.147   2.021  10.274  0.0331 -0.3360  0.4345
  149SAPE   H4R16468   2.120   2.107  10.210  0.8377  1.6288  2.6178
  149SAPE   H4S16469   2.061   1.990  10.338  1.6355  0.0897  2.9309
  149SAPE   C2516470   2.196   1.900  10.201  0.0053  0.7657 -0.1158
  149SAPE   H5R16471   2.200   1.812  10.267  0.1705  0.7264 -0.1755
  149SAPE   C2616472   2.221   1.877  10.069 -0.3378 -0.8448  0.4975
  149SAPE   H6R16473   2.268   1.785  10.034  0.0920 -1.1562  1.8540
  149SAPE   C2716474   2.194   1.993   9.973 -0.0622 -1.1169 -0.0220
  149SAPE   H7R16475   2.245   1.984   9.875  1.2812  1.7625  0.3074
  149SAPE   H7S16476   2.227   2.092  10.011 -3.1065  0.3783 -0.9154
  149SAPE   C2816477   2.046   2.021   9.954 -0.0017 -0.8282  0.2587
  149SAPE   H8R16478   2.008   2.062  10.049  1.0193 -1.8527  1.1479
  149SAPE   C2916479   1.969   2.004   9.844  0.2270 -0.0052  0.0555
  149SAPE   H9R16480   1.862   2.031   9.844  0.3135  0.4159  1.4737
  149SAPE  C21016481   2.005   1.970   9.701  0.0072  0.2177  0.3013
  149SAPE  H10R16482   1.920   1.934   9.639 -0.4108 -0.5748  1.3102
  149SAPE  H10S16483   2.076   1.885   9.704  1.3298  1.2980  1.4975
  149SAPE  C21116484   2.072   2.092   9.641 -0.2769 -0.3316  0.2124
  149SAPE  H11R16485   2.152   2.135   9.704  1.3402 -0.7967 -1.4385
  149SAPE  C21216486   2.028   2.172   9.539  0.0425 -0.1126 -0.5478
  149SAPE  H12R16487   2.088   2.256   9.503 -1.2728  2.5529  2.8431
  149SAPE  C21316488   1.905   2.151   9.454 -0.0433  0.0586  0.4814
  149SAPE  H13R16489   1.827   2.090   9.504  1.0118 -1.1931  0.6559
  149SAPE  H13S16490   1.923   2.092   9.361 -0.9637  1.7972 -0.8527
  149SAPE  C21416491   1.842   2.283   9.421 -0.1829  0.7733  0.7792
  149SAPE  H14R16492   1.788   2.333   9.502 -2.1222  3.7938 -2.0995
  149SAPE  C21516493   1.855   2.357   9.310 -0.6032 -0.1167 -0.0365
  149SAPE  H15R16494   1.806   2.455   9.312  0.2664  0.3724  2.9297
  149SAPE  C21616495   1.952   2.331   9.197 -0.2868  0.1384 -0.4547
  149SAPE  H16R16496   2.033   2.258   9.215 -0.1488  0.0835 -1.2736
  149SAPE  H16S16497   2.011   2.423   9.178 -1.6021  1.2470  0.5755
  149SAPE  C21716498   1.887   2.290   9.068  0.6687  0.1576 -0.4035
  149SAPE  H17R16499   1.813   2.365   9.033 -0.2886 -0.3837  0.4237
  149SAPE  H17S16500   1.852   2.186   9.087  1.6510 -0.2443 -0.6888
  149SAPE  C21816501   1.983   2.275   8.950  0.3787 -0.2904 -0.2132
  149SAPE  H18R16502   2.070   2.211   8.974  0.1763 -1.8669 -3.2124
  149SAPE  H18S16503   2.014   2.374   8.910 -1.5878  1.0811  1.4030
  149SAPE  C21916504   1.921   2.221   8.818 -0.0851  0.7756 -0.6149
  149SAPE  H19R16505   1.825   2.271   8.795  0.3323  0.9906 -1.9522
  149SAPE  H19S16506   1.909   2.111   8.821 -0.4159  0.8191 -0.2593
  149SAPE  C22016507   2.008   2.258   8.695  0.1495  0.6854  0.2120
  149SAPE  H20R16508   2.108   2.210   8.701 -0.8444 -1.5779 -0.3000
  149SAPE  H20S16509   2.016   2.365   8.665  0.4198  0.0182 -2.2741
  149SAPE  H20T16510   1.964   2.205   8.608  1.7674 -0.5071  0.0630
  149SAPE   C3316511   1.915   2.368  10.039 -0.0267 -0.4641  0.0294
  149SAPE   H3X16512   1.879   2.271   9.998  0.2614 -1.0814  1.2104
  149SAPE   H3Y16513   2.018   2.356  10.078  0.4140  2.2315 -0.1142
  149SAPE   C3416514   1.942   2.465   9.927  0.4892  0.6786  0.3265
  149SAPE   H4X16515   2.027   2.431   9.864  0.6305  0.7229  0.4947
  149SAPE   H4Y16516   1.973   2.563   9.969 -1.6103  1.6973 -0.3566
  149SAPE   C3516517   1.819   2.495   9.846  0.2572 -0.2786 -0.0645
  149SAPE   H5X16518   1.741   2.542   9.909 -0.5790  0.8701 -1.8868
  149SAPE   H5Y16519   1.781   2.394   9.820  0.5295 -1.4136  3.4058
  149SAPE   C3616520   1.846   2.590   9.728  0.3168 -0.3102 -0.3462
  149SAPE   H6X16521   1.905   2.524   9.661 -1.5967 -1.8138 -0.6164
  149SAPE   H6Y16522   1.905   2.680   9.753  0.3207  0.0784 -1.6983
  149SAPE   C3716523   1.718   2.631   9.666 -0.3472  0.4490  0.6785
  149SAPE   H7X16524   1.665   2.703   9.733  0.6541  1.3658  0.5158
  149SAPE   H7Y16525   1.649   2.550   9.636  0.5207  0.6450 -2.1596
  149SAPE   C3816526   1.730   2.714   9.536 -0.3263 -0.2593 -0.7126
  149SAPE   H8X16527   1.793   2.658   9.463 -2.0830 -0.0844 -2.4407
  149SAPE   H8Y16528   1.780   2.802   9.581 -1.0360 -1.7479  3.4481
  149SAPE   C3916529   1.598   2.747   9.470 -0.3578 -0.3114  0.1388
  149SAPE   H9X16530   1.513   2.759   9.540 -1.7342 -4.0868 -0.6037
  149SAPE   H9Y16531   1.563   2.663   9.405  0.0955 -0.7014  0.3955
  149SAPE  C31016532   1.615   2.864   9.375  0.6981 -0.8045  0.8823
  149SAPE  H10X16533   1.677   2.832   9.288  0.4459  0.0500  0.3793
  149SAPE  H10Y16534   1.651   2.959   9.421  0.0663 -0.9855  1.7665
  149SAPE  C31116535   1.485   2.890   9.298 -0.0548 -0.5074  0.5260
  149SAPE  H11X16536   1.402   2.913   9.367  0.6214 -1.3164  1.6357
  149SAPE  H11Y16537   1.466   2.804   9.230  1.7153  0.4848 -1.3502
  149SAPE  C31216538   1.491   3.011   9.198  0.4988 -0.3001  0.8721
  149SAPE  H12X16539   1.576   3.003   9.127 -0.0537  2.0462 -0.1389
  149SAPE  H12Y16540   1.501   3.111   9.244 -0.9814  0.4935 -0.4123
  149SAPE  C31316541   1.365   3.010   9.110  1.1709  0.9877  0.9168
  149SAPE  H13X16542   1.270   3.016   9.168  0.9065 -1.4393  0.8107
  149SAPE  H13Y16543   1.356   2.908   9.067  0.3278  0.7478  1.6312
  149SAPE  C31416544   1.383   3.117   8.997  0.7999 -0.5968 -0.1122
  149SAPE  H14X16545   1.490   3.113   8.966  0.8145  0.5482 -0.2331
  149SAPE  H14Y16546   1.354   3.218   9.031  1.8670  0.4094 -2.0161
  149SAPE  C31516547   1.286   3.093   8.878  0.4133  0.4877  0.2555
  149SAPE  H15X16548   1.183   3.071   8.913  0.7654  0.4996  1.3349
  149SAPE  H15Y16549   1.319   3.007   8.817 -0.2845 -0.4137  1.1063
  149SAPE  C31616550   1.280   3.224   8.787  0.3545  0.2913  0.5355
  149SAPE  H16X16551   1.246   3.314   8.842  0.5206  0.8219 -0.2121
  149SAPE  H16Y16552   1.199   3.207   8.712  1.3409 -0.2135 -0.4445
  149SAPE  C31716553   1.413   3.271   8.714  0.2228  0.6792 -0.2591
  149SAPE  H17X16554   1.448   3.187   8.650 -0.9357 -0.4734  0.5605
  149SAPE  H17Y16555   1.491   3.281   8.792  1.1573  0.3531 -1.1292
  149SAPE  C31816556   1.385   3.402   8.637  0.0517  0.8772 -0.2002
  149SAPE  H18X16557   1.468   3.460   8.592  3.0249 -1.7490  1.5354
  149SAPE  H18Y16558   1.346   3.463   8.722  1.1286  2.2420 -0.6421
  149SAPE  H18Z16559   1.298   3.391   8.569  0.1650 -3.7402  0.1172
  150SAPE     N16560   3.406   2.265  10.823 -0.4007  0.1223  0.1251
  150SAPE   HN116561   3.477   2.278  10.748 -1.6846  0.7527 -1.0285
  150SAPE   HN216562   3.317   2.260  10.769 -0.3473 -0.7402  0.0995
  150SAPE   HN316563   3.419   2.346  10.887  3.4731 -0.1715 -0.0267
  150SAPE   C1216564   3.430   2.130  10.896  0.0410 -0.6136  0.2966
  150SAPE  H12A16565   3.364   2.140  10.986 -0.8451  1.4629 -0.5115
  150SAPE  H12B16566   3.540   2.121  10.908  0.6393  1.0912 -2.9574
  150SAPE   C1116567   3.394   2.012  10.809 -0.3399 -0.3767  0.2387
  150SAPE  H11A16568   3.431   1.922  10.864  1.6821  1.2489  1.7165
  150SAPE  H11B16569   3.453   2.005  10.714 -0.2853 -1.8993  0.3607
  150SAPE     P16570   3.141   1.903  10.777 -0.2838 -0.4986 -0.2812
  150SAPE   O1316571   3.157   1.815  10.889  0.5732  0.0527 -0.5068
  150SAPE   O1416572   3.009   1.966  10.770  0.4135 -0.1339 -0.1294
  150SAPE   O1216573   3.258   2.013  10.769 -0.4624  0.6380 -0.2963
  150SAPE   O1116574   3.174   1.822  10.644 -0.6005 -0.8752  0.6011
  150SAPE    C116575   3.182   1.899  10.519  0.8510 -0.0246 -0.5101
  150SAPE    HA16576   3.090   1.953  10.489  2.9718  3.0283 -2.0705
  150SAPE    HB16577   3.261   1.977  10.525 -0.2106  0.9751  1.2623
  150SAPE    C216578   3.225   1.799  10.415  0.1991 -0.6216 -0.1383
  150SAPE    HS16579   3.172   1.701  10.416  0.9050 -1.0829 -2.5109
  150SAPE   O2116580   3.362   1.760  10.439  0.2331  0.0914  0.1633
  150SAPE   C2116581   3.400   1.651  10.362 -0.0680 -0.2413 -0.4050
  150SAPE   O2216582   3.325   1.568  10.318  0.0971 -0.2688  0.1448
  150SAPE   C2216583   3.549   1.647  10.359 -0.3327 -0.1358  0.5247
  150SAPE   H2R16584   3.589   1.732  10.298 -1.8724  0.9454  0.9831
  150SAPE   H2S16585   3.595   1.664  10.459  2.4687  0.4509 -0.7339
  150SAPE    C316586   3.208   1.868  10.272 -0.4135 -0.0313  1.0832
  150SAPE    HX16587   3.264   1.964  10.269  0.0895 -0.3490 -0.2118
  150SAPE    HY16588   3.104   1.907  10.262  0.2270  2.2814  2.6182
  150SAPE   O3116589   3.262   1.791  10.156 -0.1427  0.0452 -0.0242
  150SAPE   C3116590   3.167   1.731  10.087 -0.4924  0.3742  0.1049
  150SAPE   O3216591   3.049   1.738  10.119  0.1806 -0.0189  0.5094
  150SAPE   C3216592   3.231   1.650   9.974  0.0229  0.2652 -0.6742
  150SAPE   H2X16593   3.173   1.558   9.952  0.5077  0.2240 -1.8140
  150SAPE   H2Y16594   3.331   1.620  10.014  0.3394  1.6529 -0.3758
  150SAPE   C2316595   3.601   1.516  10.303  0.0500  0.5461  0.1529
  150SAPE   H3R16596   3.554   1.428  10.352 -1.4670  0.6637 -1.0207
  150SAPE   H3S16597   3.708   1.507  10.335 -0.3957  0.4553  1.7027
  150SAPE   C2416598   3.582   1.492  10.150 -0.3641  0.1529  0.4567
  150SAPE   H4R16599   3.656   1.541  10.083  0.2456 -0.2163  0.8484
  150SAPE   H4S16600   3.480   1.521  10.118  0.5911  2.7257 -0.5008
  150SAPE   C2516601   3.601   1.340  10.117  0.0674  0.2048  0.8132
  150SAPE   H5R16602   3.704   1.304  10.111 -0.2588 -0.6648  0.1579
  150SAPE   C2616603   3.498   1.251  10.104 -1.0137 -0.3988 -0.9345
  150SAPE   H6R16604   3.523   1.145  10.092 -0.0121 -0.4441  1.1197
  150SAPE   C2716605   3.353   1.284  10.112  0.5046 -0.1482 -0.6524
  150SAPE   H7R16606   3.325   1.375  10.055 -0.8240  0.5525  1.0386
  150SAPE   H7S16607   3.317   1.315  10.213 -0.1825  0.4735 -1.0754
  150SAPE   C2816608   3.279   1.174  10.049  0.1098  0.8642 -0.6889
  150SAPE   H8R16609   3.280   1.086  10.114  1.5927  0.5476 -1.1071
  150SAPE   C2916610   3.246   1.159   9.913 -0.5086 -0.6069 -0.4362
  150SAPE   H9R16611   3.187   1.070   9.885 -1.4618 -0.2193  0.2826
  150SAPE  C21016612   3.248   1.271   9.819 -0.4511  0.2755  0.5525
  150SAPE  H10R16613   3.292   1.365   9.857 -1.2663  1.5956 -1.6341
  150SAPE  H10S16614   3.146   1.302   9.789 -0.1589 -0.2493 -1.0841
  150SAPE  C21116615   3.337   1.228   9.705 -0.0829 -0.3613  0.5696
  150SAPE  H11R16616   3.406   1.144   9.720 -0.3473 -0.6261  0.3356
  150SAPE  C21216617   3.340   1.286   9.579 -0.0451  0.0740 -0.1206
  150SAPE  H12R16618   3.390   1.236   9.494 -3.6519 -1.4218 -1.5739
  150SAPE  C21316619   3.253   1.392   9.525 -0.0905 -0.8404  0.6932
  150SAPE  H13R16620   3.302   1.492   9.527 -0.9686 -0.4132  1.6424
  150SAPE  H13S16621   3.168   1.419   9.591  0.4040  2.0653  0.2806
  150SAPE  C21416622   3.187   1.367   9.389  1.0270 -0.4245 -0.2761
  150SAPE  H14R16623   3.086   1.325   9.383  1.1029 -0.4306 -2.2111
  150SAPE  C21516624   3.247   1.380   9.271 -0.5327  0.7430  0.0978
  150SAPE  H15R16625   3.195   1.361   9.176  2.2927 -0.9601 -1.2461
  150SAPE  C21616626   3.391   1.426   9.250  0.0461  0.1023  0.2628
  150SAPE  H16R16627   3.440   1.351   9.185 -1.3826  1.7614 -2.9342
  150SAPE  H16S16628   3.453   1.443   9.341  2.1572 -2.2401 -0.6362
  150SAPE  C21716629   3.381   1.557   9.170  0.6661  0.3315  0.2850
  150SAPE  H17R16630   3.320   1.541   9.079  0.1600  0.6060  0.5655
  150SAPE  H17S16631   3.481   1.586   9.131  1.3665 -2.6504 -0.3997
  150SAPE  C21816632   3.322   1.674   9.251  1.0852 -0.8573 -0.5578
  150SAPE  H18R16633   3.386   1.690   9.340 -0.3733 -1.2848  0.6196
  150SAPE  H18S16634   3.219   1.664   9.291  1.6215  0.9423  1.4987
  150SAPE  C21916635   3.317   1.802   9.168  0.6566  0.3437  0.1588
  150SAPE  H19R16636   3.239   1.795   9.090 -0.9455  0.9645  1.6600
  150SAPE  H19S16637   3.414   1.819   9.117  0.8479  0.6828  0.6234
  150SAPE  C22016638   3.280   1.920   9.261 -0.3482 -0.1955 -0.2762
  150SAPE  H20R16639   3.312   2.015   9.214  0.7204 -0.0251  0.7536
  150SAPE  H20S16640   3.338   1.909   9.355  1.2149  1.1309 -1.0560
  150SAPE  H20T16641   3.172   1.929   9.289 -0.5187 -1.9253 -0.2203
  150SAPE   C3316642   3.250   1.734   9.850  0.1436 -0.2490  0.0967
  150SAPE   H3X16643   3.285   1.669   9.767  0.1354 -0.0352 -0.0733
  150SAPE   H3Y16644   3.333   1.807   9.865  1.4900 -1.7603  0.3190
  150SAPE   C3416645   3.115   1.799   9.811  0.1688 -0.4883 -0.0168
  150SAPE   H4X16646   3.072   1.864   9.890 -0.6580 -1.4303  0.3304
  150SAPE   H4Y16647   3.038   1.719   9.806  0.9246 -1.1806 -1.0279
  150SAPE   C3516648   3.124   1.876   9.679  0.3143 -0.3805  1.3934
  150SAPE   H5X16649   3.131   1.804   9.595 -0.1653 -1.0696  1.9405
  150SAPE   H5Y16650   3.218   1.936   9.675 -0.3891  0.7310  0.8750
  150SAPE   C3616651   2.995   1.949   9.654  0.8598  0.3418  0.3785
  150SAPE   H6X16652   2.980   2.040   9.715  0.6126  0.2140  0.5066
  150SAPE   H6Y16653   2.911   1.881   9.679 -1.9704  3.3088 -0.3378
  150SAPE   C3716654   2.975   1.993   9.511 -1.0992  0.7511  0.2635
  150SAPE   H7X16655   2.983   1.906   9.443 -1.1926 -0.2391  1.4773
  150SAPE   H7Y16656   3.055   2.066   9.488 -0.1145  0.3736  2.2349
  150SAPE   C3816657   2.847   2.077   9.485 -0.1490  0.1721 -0.6222
  150SAPE   H8X16658   2.828   2.141   9.574 -1.6357 -0.3697 -0.5088
  150SAPE   H8Y16659   2.757   2.013   9.473  0.3774 -0.2975 -2.3618
  150SAPE   C3916660   2.862   2.161   9.354  0.3278 -0.4379  0.1086
  150SAPE   H9X16661   2.959   2.213   9.338  1.0534 -1.5605  0.7282
  150SAPE   H9Y16662   2.777   2.233   9.344 -0.2974 -1.2721 -0.8300
  150SAPE  C31016663   2.854   2.074   9.224 -0.2009 -0.0232  0.3049
  150SAPE  H10X16664   2.755   2.030   9.200  0.8519 -1.0544 -2.6652
  150SAPE  H10Y16665   2.931   1.994   9.226 -0.0551  0.1331  1.6228
  150SAPE  C31116666   2.896   2.169   9.100  0.0656  0.5032  0.6267
  150SAPE  H11X16667   2.989   2.220   9.130  1.2469 -1.2921  0.1535
  150SAPE  H11Y16668   2.819   2.246   9.074  0.8246  1.3446  0.8261
  150SAPE  C31216669   2.913   2.094   8.972 -0.1595 -0.2512  0.2713
  150SAPE  H12X16670   2.889   2.160   8.886  1.6788 -0.3812 -0.3998
  150SAPE  H12Y16671   2.829   2.021   8.964 -1.9135  1.8173 -1.3968
  150SAPE  C31316672   3.055   2.038   8.946  0.0345  0.0174 -0.0898
  150SAPE  H13X16673   3.075   1.965   9.028  1.8789  0.1062 -0.4177
  150SAPE  H13Y16674   3.129   2.121   8.940 -1.3173  1.2809  0.2580
  150SAPE  C31416675   3.074   1.951   8.819 -0.5098  0.9104  0.2974
  150SAPE  H14X16676   3.068   2.016   8.729  1.7387  0.0628 -0.5292
  150SAPE  H14Y16677   2.990   1.879   8.817  2.0934 -2.3526 -0.1651
  150SAPE  C31516678   3.201   1.873   8.804  0.3508  0.0769  0.1335
  150SAPE  H15X16679   3.198   1.818   8.707 -0.4003  1.7877 -0.8440
  150SAPE  H15Y16680   3.205   1.799   8.887  0.2966  0.3683  0.3950
  150SAPE  C31616681   3.324   1.958   8.814  0.4487  0.3987  0.6906
  150SAPE  H16X16682   3.350   1.979   8.920 -0.6350  0.6446  0.9160
  150SAPE  H16Y16683   3.312   2.053   8.758 -0.1255  0.0725  0.2506
  150SAPE  C31716684   3.447   1.884   8.759 -0.5284 -0.2430  0.0194
  150SAPE  H17X16685   3.529   1.953   8.730 -0.6281 -1.0647 -2.4847
  150SAPE  H17Y16686   3.418   1.841   8.661 -0.6674 -0.1600  0.0238
  150SAPE  C31816687   3.503   1.774   8.845 -0.0494 -0.2896 -0.2845
  150SAPE  H18X16688   3.438   1.686   8.864 -1.7331  0.8493 -0.6487
  150SAPE  H18Y16689   3.524   1.817   8.945 -1.9677  1.1583 -0.4517
  150SAPE  H18Z16690   3.595   1.727   8.803 -0.8496 -3.3106  1.0110
  151SAPE     N16691   0.744   5.224  10.563  0.9180 -0.3661  0.2189
  151SAPE   HN116692   0.679   5.163  10.511 -0.3595 -0.0444  1.4025
  151SAPE   HN216693   0.687   5.293  10.616 -0.6572 -2.2019  1.0193
  151SAPE   HN316694   0.791   5.279  10.488 -0.3882  1.4490  0.6672
  151SAPE   C1216695   0.856   5.152  10.637 -0.0414  0.6251  0.2027
  151SAPE  H12A16696   0.809   5.108  10.727 -0.5514 -0.6378 -0.6434
  151SAPE  H12B16697   0.938   5.219  10.669  0.5216 -0.3131  0.7560
  151SAPE   C1116698   0.919   5.032  10.561  0.5417  0.4295 -0.4858
  151SAPE  H11A16699   0.989   4.977  10.627 -2.4832 -0.6694  2.0560
  151SAPE  H11B16700   0.991   5.087  10.497  3.7901 -1.5506  1.1914
  151SAPE     P16701   0.795   4.807  10.553  0.0887 -0.7167  0.2498
  151SAPE   O1316702   0.913   4.718  10.560  0.5980  0.5324  0.0481
  151SAPE   O1416703   0.727   4.824  10.683  0.3036 -0.1413  0.4323
  151SAPE   O1216704   0.829   4.946  10.496 -0.5565 -0.5566 -0.0303
  151SAPE   O1116705   0.705   4.759  10.440  0.9001 -0.0564 -0.1666
  151SAPE    C116706   0.651   4.827  10.323  0.1722  0.3557 -0.5978
  151SAPE    HA16707   0.554   4.785  10.290 -0.4944  1.5110 -0.1552
  151SAPE    HB16708   0.651   4.937  10.333 -2.1880  0.2522  1.6780
  151SAPE    C216709   0.744   4.795  10.203  0.1186  0.1265  0.3021
  151SAPE    HS16710   0.827   4.869  10.206 -0.2482  0.5977 -0.6256
  151SAPE   O2116711   0.670   4.799  10.078  0.5341  0.6081  0.7314
  151SAPE   C2116712   0.616   4.917  10.059  0.6859 -0.2324  0.5293
  151SAPE   O2216713   0.656   5.020  10.108  0.1514 -0.4003 -0.5745
  151SAPE   C2216714   0.506   4.912   9.947  0.2327  0.5296  0.1060
  151SAPE   H2R16715   0.458   4.814   9.968 -1.4079  0.9477 -1.4522
  151SAPE   H2S16716   0.429   4.992   9.954  1.9038  2.4831 -2.2080
  151SAPE    C316717   0.812   4.657  10.218 -0.2192  0.8798  0.2146
  151SAPE    HX16718   0.741   4.572  10.230  2.3033 -1.1610  1.6668
  151SAPE    HY16719   0.880   4.658  10.306 -0.1192  1.6681  0.1368
  151SAPE   O3116720   0.885   4.616  10.101 -1.1027  0.3599 -0.0562
  151SAPE   C3116721   1.020   4.633  10.106  0.0099  0.7779 -0.4741
  151SAPE   O3216722   1.083   4.693  10.193  0.3532  0.7570  0.1431
  151SAPE   C3216723   1.076   4.548   9.991  0.2262  0.1733 -0.8168
  151SAPE   H2X16724   1.056   4.444  10.025  0.1333  0.4514 -0.0028
  151SAPE   H2Y16725   1.184   4.576   9.990  0.8868 -2.1781 -1.5918
  151SAPE   C2316726   0.561   4.893   9.800 -0.2780 -0.2090 -0.3640
  151SAPE   H3R16727   0.472   4.857   9.744 -0.3564 -1.1106  0.3160
  151SAPE   H3S16728   0.645   4.822   9.784 -1.4900 -1.8438  0.2366
  151SAPE   C2416729   0.606   5.034   9.743 -0.3193 -0.2704  1.0226
  151SAPE   H4R16730   0.645   5.022   9.639 -2.1025 -0.2438  0.3003
  151SAPE   H4S16731   0.692   5.073   9.801  0.0404  2.2950 -1.0387
  151SAPE   C2516732   0.497   5.139   9.763 -0.1515  0.1035 -0.5349
  151SAPE   H5R16733   0.474   5.177   9.863  0.8743 -0.9027  0.1175
  151SAPE   C2616734   0.418   5.181   9.669 -0.2745  0.0709  0.1986
  151SAPE   H6R16735   0.330   5.241   9.693 -1.8580 -1.2326 -1.9412
  151SAPE   C2716736   0.432   5.138   9.523  0.0099 -0.0916 -0.1916
  151SAPE   H7R16737   0.337   5.151   9.467  1.1369  0.5561 -2.0233
  151SAPE   H7S16738   0.446   5.028   9.525 -0.1595 -0.1042  1.0064
  151SAPE   C2816739   0.537   5.224   9.450 -0.1187  0.4846 -0.1215
  151SAPE   H8R16740   0.585   5.302   9.511  3.1601 -1.3419 -0.1580
  151SAPE   C2916741   0.578   5.191   9.322 -0.0680  0.5232  1.0384
  151SAPE   H9R16742   0.638   5.269   9.273 -1.5549  1.3725  0.4738
  151SAPE  C21016743   0.550   5.070   9.242  0.0330  0.0886  0.4132
  151SAPE  H10R16744   0.475   4.998   9.281  0.5819  1.2484  4.0053
  151SAPE  H10S16745   0.633   4.996   9.234 -0.6295 -0.8671  1.8948
  151SAPE  C21116746   0.502   5.117   9.104 -0.7340  0.1597 -0.4020
  151SAPE  H11R16747   0.400   5.159   9.095 -1.0274 -0.4645 -0.0777
  151SAPE  C21216748   0.576   5.094   8.994  0.6612  0.4352 -0.6374
  151SAPE  H12R16749   0.530   5.127   8.899  0.7450  1.0362 -0.4734
  151SAPE  C21316750   0.712   5.031   8.981 -0.3415  0.3109 -0.8574
  151SAPE  H13R16751   0.732   4.966   9.069  1.5512  1.7269 -0.1884
  151SAPE  H13S16752   0.793   5.106   8.989  1.0009 -1.1465 -0.2197
  151SAPE  C21416753   0.751   4.964   8.860  0.0454  0.4589  0.3687
  151SAPE  H14R16754   0.829   5.011   8.798 -0.4424  0.2158 -0.4317
  151SAPE  C21516755   0.697   4.858   8.797 -0.2549 -0.0246  0.4561
  151SAPE  H15R16756   0.738   4.828   8.700  0.1570  0.8587  0.3490
  151SAPE  C21616757   0.584   4.779   8.851  0.2319  0.1790 -0.1327
  151SAPE  H16R16758   0.492   4.798   8.792 -0.6210  1.2768  1.4945
  151SAPE  H16S16759   0.562   4.812   8.955 -1.0364  0.7136 -0.5519
  151SAPE  C21716760   0.600   4.626   8.850 -0.4079  0.2443  0.2322
  151SAPE  H17R16761   0.516   4.574   8.901 -0.4049 -0.6512 -0.6490
  151SAPE  H17S16762   0.692   4.599   8.905 -0.7030 -0.7596  0.2476
  151SAPE  C21816763   0.613   4.576   8.708 -0.6416 -0.1979  0.0045
  151SAPE  H18R16764   0.710   4.619   8.676 -1.6408  1.8573 -0.4103
  151SAPE  H18S16765   0.524   4.608   8.649 -0.3455  0.9591  0.1561
  151SAPE  C21916766   0.622   4.428   8.701  0.6615 -0.1565  0.0714
  151SAPE  H19R16767   0.524   4.384   8.727  1.5540 -1.6713  1.0738
  151SAPE  H19S16768   0.691   4.391   8.781 -2.3570 -1.6481  2.1942
  151SAPE  C22016769   0.662   4.375   8.568  0.1824  0.0519  0.2957
  151SAPE  H20R16770   0.755   4.427   8.536  0.4813  0.3467  1.5841
  151SAPE  H20S16771   0.586   4.412   8.496 -0.4886  2.1649  1.9988
  151SAPE  H20T16772   0.685   4.266   8.565  0.1620  0.0198  1.1635
  151SAPE   C3316773   1.030   4.564   9.844 -0.0412 -0.2787 -0.0239
  151SAPE   H3X16774   0.924   4.530   9.842 -0.5818  1.3339 -0.6737
  151SAPE   H3Y16775   1.094   4.503   9.777  0.5503  0.1901  0.1025
  151SAPE   C3416776   1.050   4.703   9.800  0.4664 -0.8953  0.5358
  151SAPE   H4X16777   1.155   4.732   9.821  0.1091  1.4456 -0.5957
  151SAPE   H4Y16778   0.991   4.784   9.848  1.7706 -0.5669  1.6324
  151SAPE   C3516779   1.046   4.716   9.644 -0.1442  0.5263  0.1834
  151SAPE   H5X16780   0.952   4.666   9.612  1.0179 -0.1370 -2.4434
  151SAPE   H5Y16781   1.130   4.664   9.593  0.0736  0.7798  0.2805
  151SAPE   C3616782   1.034   4.865   9.587 -0.5129 -0.4514 -0.1574
  151SAPE   H6X16783   1.124   4.922   9.617 -1.2893  1.5764 -1.5124
  151SAPE   H6Y16784   0.951   4.921   9.634 -0.0196  0.7875 -0.7346
  151SAPE   C3716785   1.031   4.871   9.438  0.5315 -0.0980  0.2000
  151SAPE   H7X16786   0.938   4.822   9.400 -1.1681  2.7143  0.4416
  151SAPE   H7Y16787   1.112   4.804   9.402 -1.6619 -2.9257  0.0948
  151SAPE   C3816788   1.034   5.013   9.369 -0.5265  0.4975  0.8729
  151SAPE   H8X16789   1.124   5.057   9.415 -0.2087 -1.3885  2.1683
  151SAPE   H8Y16790   0.937   5.055   9.403 -1.9444 -1.0345 -1.0376
  151SAPE   C3916791   1.043   5.014   9.216 -0.2951 -0.0896  0.1531
  151SAPE   H9X16792   0.949   4.963   9.185 -2.2429  1.8862  2.3711
  151SAPE   H9Y16793   1.128   4.949   9.188 -1.3533 -1.2713 -0.4522
  151SAPE  C31016794   1.057   5.160   9.163  0.0530 -0.3785 -0.1431
  151SAPE  H10X16795   1.134   5.198   9.234  0.7544  0.4547 -1.3139
  151SAPE  H10Y16796   0.964   5.221   9.173 -0.9207 -1.9186  0.5929
  151SAPE  C31116797   1.105   5.170   9.018  0.5422  0.1483  0.0594
  151SAPE  H11X16798   1.054   5.089   8.961 -0.6705  1.2054 -0.3852
  151SAPE  H11Y16799   1.216   5.155   9.015  0.6205  0.1414  1.9335
  151SAPE  C31216800   1.070   5.307   8.959 -0.4304  0.4656  0.1078
  151SAPE  H12X16801   1.114   5.395   9.012 -0.4047  1.0457 -0.8404
  151SAPE  H12Y16802   0.961   5.323   8.972 -0.6290  0.3848 -1.2631
  151SAPE  C31316803   1.089   5.310   8.801  0.0033  0.2244  0.5285
  151SAPE  H13X16804   1.027   5.233   8.751 -1.4052  2.3593 -1.2162
  151SAPE  H13Y16805   1.194   5.297   8.767 -0.6809 -0.1589 -1.5799
  151SAPE  C31416806   1.056   5.444   8.736  0.5314  0.4283  0.2452
  151SAPE  H14X16807   1.112   5.524   8.789  0.0478  1.0045 -0.0995
  151SAPE  H14Y16808   0.948   5.461   8.754  0.4685  1.9216 -1.2470
  151SAPE  C31516809   1.085   5.450   8.584  0.1918 -0.1879  0.0277
  151SAPE  H15X16810   1.027   5.368   8.536 -0.1659  1.3295 -2.3179
  151SAPE  H15Y16811   1.195   5.438   8.574  0.2334  1.2637 -2.0446
  151SAPE  C31616812   1.032   5.576   8.520  0.2283  0.2517 -0.2682
  151SAPE  H16X16813   0.930   5.587   8.562 -0.4294  0.5048 -1.8461
  151SAPE  H16Y16814   1.026   5.568   8.409  1.5023  1.0458 -0.4130
  151SAPE  C31716815   1.106   5.707   8.551  0.3921  0.4156  0.0844
  151SAPE  H17X16816   1.214   5.697   8.529  0.5351  1.4719  0.2785
  151SAPE  H17Y16817   1.086   5.729   8.658 -2.2347  1.0142 -0.4575
  151SAPE  C31816818   1.047   5.810   8.454  0.2607  0.2800 -0.0536
  151SAPE  H18X16819   1.091   5.796   8.353  1.3790 -0.4928  0.5247
  151SAPE  H18Y16820   1.059   5.912   8.495  2.5866  0.5958 -1.3401
  151SAPE  H18Z16821   0.939   5.785   8.446  0.1700  0.6024  0.1715
  152SAPE     N16822   3.244   5.252  10.632  0.2503  0.2448  0.3254
  152SAPE   HN116823   3.341   5.286  10.619  0.2976  0.0122  0.0511
  152SAPE   HN216824   3.189   5.243  10.544 -0.4226 -1.2623  0.8746
  152SAPE   HN316825   3.194   5.309  10.703  0.5730 -0.3282  1.0312
  152SAPE   C1216826   3.277   5.110  10.664  0.0511  0.1156 -0.3909
  152SAPE  H12A16827   3.347   5.109  10.751 -2.8681 -0.9652  2.1451
  152SAPE  H12B16828   3.321   5.056  10.578 -0.5094  0.1116 -0.6771
  152SAPE   C1116829   3.145   5.043  10.706 -0.2007  0.0347 -0.4364
  152SAPE  H11A16830   3.106   5.092  10.798 -0.2128 -0.0397 -0.4008
  152SAPE  H11B16831   3.153   4.935  10.731 -2.2208  0.0773  0.6315
  152SAPE     P16832   3.023   4.952  10.498  0.0295 -0.4171  0.5387
  152SAPE   O1316833   3.023   4.831  10.582 -0.6687  0.3693 -0.1427
  152SAPE   O1416834   2.898   4.984  10.420  0.0259  0.3481  0.1204
  152SAPE   O1216835   3.051   5.073  10.600  0.0619 -0.1047 -0.2674
  152SAPE   O1116836   3.144   4.955  10.402 -0.5390  0.2084 -0.0746
  152SAPE    C116837   3.165   5.051  10.311 -0.1462  0.0375  0.0328
  152SAPE    HA16838   3.149   5.157  10.343  1.2622 -0.1334  1.4326
  152SAPE    HB16839   3.274   5.061  10.289 -0.5022  2.1512 -1.0880
  152SAPE    C216840   3.102   5.022  10.165 -0.4801  0.1286  0.0932
  152SAPE    HS16841   3.136   5.088  10.082  0.2725 -2.7314 -2.0139
  152SAPE   O2116842   2.960   5.026  10.156 -0.0799  0.0587 -0.5261
  152SAPE   C2116843   2.909   5.154  10.173 -0.7349 -0.0853 -0.0442
  152SAPE   O2216844   2.981   5.245  10.186 -0.0457 -0.0707 -0.4162
  152SAPE   C2216845   2.754   5.155  10.191 -0.7512  0.2521 -0.7914
  152SAPE   H2R16846   2.710   5.067  10.140 -0.0074 -0.7047  0.1791
  152SAPE   H2S16847   2.743   5.129  10.298  3.6860 -1.6939 -0.5876
  152SAPE    C316848   3.143   4.882  10.124 -0.3947  0.7270 -0.1887
  152SAPE    HX16849   3.088   4.882  10.027  1.5730  4.6218 -1.5508
  152SAPE    HY16850   3.100   4.805  10.192 -2.1716  0.3094 -1.7035
  152SAPE   O3116851   3.287   4.881  10.098 -0.2090  0.6942 -0.1029
  152SAPE   C3116852   3.357   4.784  10.151  0.2971  0.1583  0.2165
  152SAPE   O3216853   3.304   4.693  10.212  0.5798  0.2523 -0.2576
  152SAPE   C3216854   3.504   4.790  10.125  0.4549  0.5924  0.0903
  152SAPE   H2X16855   3.543   4.687  10.134  2.1765  1.2359  0.6002
  152SAPE   H2Y16856   3.541   4.850  10.212  0.3683  3.6595 -1.8375
  152SAPE   C2316857   2.671   5.281  10.162  0.3532 -0.3729 -1.2438
  152SAPE   H3R16858   2.713   5.374  10.206 -0.1685 -0.6188 -0.2138
  152SAPE   H3S16859   2.571   5.269  10.208  0.1367 -1.2359 -1.9050
  152SAPE   C2416860   2.642   5.306  10.010  0.1500 -0.4797  0.1823
  152SAPE   H4R16861   2.550   5.367  10.006 -1.1523 -2.4129 -0.4720
  152SAPE   H4S16862   2.606   5.208   9.973 -2.2261 -0.5200  2.3719
  152SAPE   C2516863   2.753   5.373   9.922 -0.1936  0.2815  0.4369
  152SAPE   H5R16864   2.777   5.473   9.960  1.4922 -0.0609  0.3548
  152SAPE   C2616865   2.804   5.330   9.808 -0.5948  0.0142 -0.1659
  152SAPE   H6R16866   2.888   5.385   9.766 -0.2375  0.2244  0.8036
  152SAPE   C2716867   2.775   5.198   9.742 -0.1582  0.1955  0.3926
  152SAPE   H7R16868   2.794   5.208   9.633 -0.5229  1.9647  0.4730
  152SAPE   H7S16869   2.668   5.171   9.738  0.0447 -0.5206 -1.5800
  152SAPE   C2816870   2.840   5.083   9.807 -0.0976 -0.7089 -0.1472
  152SAPE   H8R16871   2.833   5.085   9.917 -0.1718  0.6863 -0.1555
  152SAPE   C2916872   2.900   4.982   9.747 -0.0768 -0.8493  0.1221
  152SAPE   H9R16873   2.954   4.909   9.810  1.0719 -0.5301 -0.4725
  152SAPE  C21016874   2.903   4.949   9.604  0.1647 -0.4566  0.1327
  152SAPE  H10R16875   2.852   5.027   9.542  2.1087  2.7726  2.2957
  152SAPE  H10S16876   2.852   4.852   9.585  1.3772 -0.7301 -2.0337
  152SAPE  C21116877   3.044   4.935   9.552  0.1784 -0.9589  0.9802
  152SAPE  H11R16878   3.124   4.934   9.627 -0.1290 -0.2153  1.3313
  152SAPE  C21216879   3.074   4.896   9.418 -0.4996  0.4686 -1.0294
  152SAPE  H12R16880   3.181   4.884   9.393 -0.1883  2.8520 -1.0784
  152SAPE  C21316881   2.967   4.858   9.317 -0.3419 -0.6153 -0.0244
  152SAPE  H13R16882   2.921   4.955   9.286  1.2989  0.0374 -0.5469
  152SAPE  H13S16883   2.885   4.798   9.362  0.9862 -1.2237  1.7127
  152SAPE  C21416884   3.028   4.786   9.193 -0.0260 -0.4372 -0.8722
  152SAPE  H14R16885   3.041   4.680   9.216 -0.0254 -0.3312 -0.3814
  152SAPE  C21516886   3.068   4.833   9.075  0.0426 -0.4500  0.0850
  152SAPE  H15R16887   3.107   4.758   9.004 -1.3965 -0.5567 -0.6395
  152SAPE  C21616888   3.039   4.971   9.038 -0.6875 -0.4892  0.1451
  152SAPE  H16R16889   3.134   5.009   8.993 -1.3973  0.2759 -0.7513
  152SAPE  H16S16890   3.022   5.038   9.125  2.4084  0.9438 -0.1899
  152SAPE  C21716891   2.931   4.986   8.935 -0.7407  0.0836  0.4236
  152SAPE  H17R16892   2.897   5.092   8.937 -2.6285 -0.4779  1.1656
  152SAPE  H17S16893   2.841   4.936   8.978 -1.9013  3.1104  1.7955
  152SAPE  C21816894   2.963   4.928   8.796  0.7332 -0.0884  0.1309
  152SAPE  H18R16895   2.874   4.946   8.731  0.1527  2.4664  1.4801
  152SAPE  H18S16896   2.973   4.818   8.802 -2.3556 -0.4184  1.3434
  152SAPE  C21916897   3.077   4.998   8.725 -0.5897 -0.2410 -0.4355
  152SAPE  H19R16898   3.171   4.985   8.782 -0.1176 -0.6688 -1.3007
  152SAPE  H19S16899   3.067   5.108   8.738  0.1920 -0.4027  2.0531
  152SAPE  C22016900   3.088   4.957   8.575  0.3371 -0.4953  0.2243
  152SAPE  H20R16901   3.082   4.847   8.566 -0.3101 -0.4550  0.1147
  152SAPE  H20S16902   3.189   4.993   8.543 -0.5554  3.1766  1.0974
  152SAPE  H20T16903   3.015   5.010   8.510  1.3410  0.6511 -0.0059
  152SAPE   C3316904   3.538   4.849   9.980 -0.3079 -0.6017  0.0355
  152SAPE   H3X16905   3.647   4.856   9.958 -0.2341 -0.7609  0.3500
  152SAPE   H3Y16906   3.504   4.955   9.983  0.0285 -0.3435 -2.8125
  152SAPE   C3416907   3.473   4.767   9.864 -0.5065  0.5733 -0.5179
  152SAPE   H4X16908   3.364   4.746   9.874 -0.5254 -0.4245 -2.3696
  152SAPE   H4Y16909   3.512   4.663   9.872  1.2200  1.2639  0.5718
  152SAPE   C3516910   3.506   4.815   9.723  0.4138 -0.4753 -0.3985
  152SAPE   H5X16911   3.617   4.818   9.713  0.5475  2.0558  0.9489
  152SAPE   H5Y16912   3.463   4.916   9.710  2.1911  0.3643 -0.0022
  152SAPE   C3616913   3.449   4.713   9.629 -0.0075 -0.0584 -0.4353
  152SAPE   H6X16914   3.339   4.709   9.643 -0.1339  1.4544 -0.8792
  152SAPE   H6Y16915   3.478   4.613   9.667  0.8532  0.8319  1.4037
  152SAPE   C3716916   3.485   4.744   9.481  0.1017  0.8647 -0.0453
  152SAPE   H7X16917   3.595   4.749   9.463 -0.3416  1.5208 -3.2596
  152SAPE   H7Y16918   3.443   4.845   9.461  1.2568  0.9360 -2.4806
  152SAPE   C3816919   3.425   4.648   9.375  0.4376 -0.6941 -0.0725
  152SAPE   H8X16920   3.315   4.635   9.384  0.2407 -0.0546 -1.2828
  152SAPE   H8Y16921   3.471   4.551   9.402 -0.6799 -1.1839  0.1298
  152SAPE   C3916922   3.453   4.710   9.237  0.0012 -0.0099 -0.5453
  152SAPE   H9X16923   3.558   4.746   9.228 -0.0652  0.1949 -0.5104
  152SAPE   H9Y16924   3.386   4.798   9.226 -1.5878 -1.0500  0.3846
  152SAPE  C31016925   3.426   4.634   9.108 -0.0011  0.3667  0.0503
  152SAPE  H10X16926   3.317   4.614   9.103  0.3624 -1.5789 -1.2776
  152SAPE  H10Y16927   3.485   4.540   9.103  0.0574  0.4721 -3.0634
  152SAPE  C31116928   3.468   4.716   8.984 -0.6518 -0.2128  0.1687
  152SAPE  H11X16929   3.577   4.735   8.993 -1.0560  1.3635  2.6580
  152SAPE  H11Y16930   3.415   4.814   8.987  2.1777  1.4083  0.8785
  152SAPE  C31216931   3.438   4.660   8.844  0.0052  0.0643 -0.0326
  152SAPE  H12X16932   3.486   4.564   8.817  1.7305  1.5142 -2.4256
  152SAPE  H12Y16933   3.477   4.724   8.762 -2.2566 -0.5862 -1.7222
  152SAPE  C31316934   3.291   4.637   8.800  1.0904  0.2512  0.2730
  152SAPE  H13X16935   3.231   4.730   8.805 -1.4828 -1.3038 -0.2982
  152SAPE  H13Y16936   3.250   4.559   8.868  3.6514 -1.2610  0.2453
  152SAPE  C31416937   3.289   4.582   8.659 -0.4507 -0.2341 -0.4705
  152SAPE  H14X16938   3.365   4.502   8.646 -0.5534 -0.5326  0.6567
  152SAPE  H14Y16939   3.316   4.662   8.587 -1.2662 -1.1867 -1.8761
  152SAPE  C31516940   3.159   4.519   8.619 -0.5514  0.0112  0.2958
  152SAPE  H15X16941   3.080   4.597   8.606  0.3393  1.1260  1.2689
  152SAPE  H15Y16942   3.129   4.449   8.700  0.3305 -0.7276 -0.0040
  152SAPE  C31616943   3.180   4.437   8.492 -0.2480 -0.0841  0.3928
  152SAPE  H16X16944   3.267   4.372   8.515  0.6515  0.5784 -1.0022
  152SAPE  H16Y16945   3.199   4.510   8.410 -2.4482 -1.0888 -1.1180
  152SAPE  C31716946   3.060   4.359   8.441  0.5266  0.0620 -0.1515
  152SAPE  H17X16947   2.965   4.415   8.455  0.3453 -0.0310 -0.9554
  152SAPE  H17Y16948   3.051   4.262   8.494 -2.9210 -0.8159 -1.9808
  152SAPE  C31816949   3.074   4.321   8.293 -0.2841 -0.5042 -0.0419
  152SAPE  H18X16950   3.178   4.286   8.275 -0.0775 -0.0073  0.1833
  152SAPE  H18Y16951   3.046   4.401   8.220  0.6595 -0.9389 -0.9118
  152SAPE  H18Z16952   3.009   4.235   8.265 -0.2079 -0.6847  0.3378
  153SAPE     N16953   3.716   6.570  10.822 -0.3247  0.8834 -0.0615
  153SAPE   HN116954   3.704   6.672  10.802  3.8575  1.2611 -1.5540
  153SAPE   HN216955   3.819   6.561  10.825 -0.2214  1.8912 -0.0946
  153SAPE   HN316956   3.680   6.525  10.735 -1.3992  0.2700  0.6763
  153SAPE   C1216957   3.640   6.519  10.940 -0.1589 -0.2717  0.3993
  153SAPE  H12A16958   3.616   6.600  11.013  1.4322  0.8461 -0.2499
  153SAPE  H12B16959   3.700   6.436  10.983  0.9434  0.1807 -0.2185
  153SAPE   C1116960   3.504   6.466  10.893  0.3922  0.8528 -0.0851
  153SAPE  H11A16961   3.435   6.547  10.862  0.2549  0.7855  0.0470
  153SAPE  H11B16962   3.462   6.410  10.979  1.7703 -0.0124  0.0542
  153SAPE     P16963   3.395   6.312  10.706  0.2992 -0.0121 -0.1506
  153SAPE   O1316964   3.435   6.202  10.613 -0.2893  0.1550 -0.3120
  153SAPE   O1416965   3.306   6.268  10.816  0.6607 -0.6440 -0.5092
  153SAPE   O1216966   3.526   6.376  10.779  0.0661  1.0253  0.4651
  153SAPE   O1116967   3.323   6.426  10.622 -0.3943 -0.1388 -0.5031
  153SAPE    C116968   3.384   6.534  10.555 -0.1307  0.1489 -0.1670
  153SAPE    HA16969   3.298   6.603  10.537 -2.6627 -1.3013  4.6103
  153SAPE    HB16970   3.454   6.584  10.625 -2.0897  0.6845  1.5234
  153SAPE    C216971   3.462   6.494  10.423  0.6118 -0.4385 -0.4596
  153SAPE    HS16972   3.540   6.418  10.441  1.1987  0.6059  1.6950
  153SAPE   O2116973   3.522   6.611  10.372  0.1302  0.2211 -0.3470
  153SAPE   C2116974   3.643   6.628  10.430 -0.2995  0.8725 -0.7573
  153SAPE   O2216975   3.683   6.562  10.525 -0.4429 -0.0265  0.0429
  153SAPE   C2216976   3.719   6.742  10.365  0.2672  0.1479  0.0623
  153SAPE   H2R16977   3.655   6.790  10.287  0.2581  1.6628  0.9598
  153SAPE   H2S16978   3.749   6.816  10.442 -1.4514 -0.0258  0.9299
  153SAPE    C316979   3.361   6.442  10.326 -0.0136 -0.2517  0.0516
  153SAPE    HX16980   3.308   6.528  10.279 -1.2533 -2.3213 -2.5664
  153SAPE    HY16981   3.291   6.384  10.390  1.7393  0.2167  2.5290
  153SAPE   O3116982   3.415   6.358  10.225 -0.0709  1.0126  0.4211
  153SAPE   C3116983   3.328   6.302  10.143 -0.6680  0.0600 -1.0704
  153SAPE   O3216984   3.208   6.324  10.129  0.2971  0.1610 -0.0963
  153SAPE   C3216985   3.409   6.186  10.072  0.4214  0.1610 -0.7266
  153SAPE   H2X16986   3.395   6.108  10.150 -3.1422  0.5772 -0.7977
  153SAPE   H2Y16987   3.516   6.215  10.061  0.7262 -1.0589 -1.1480
  153SAPE   C2316988   3.848   6.690  10.305 -0.4698 -0.0606  0.2150
  153SAPE   H3R16989   3.924   6.645  10.372 -0.1540 -0.3733 -0.3469
  153SAPE   H3S16990   3.884   6.782  10.254  2.0247 -1.2226 -0.2710
  153SAPE   C2416991   3.826   6.585  10.186 -0.8044  0.1536 -0.2888
  153SAPE   H4R16992   3.797   6.490  10.235 -1.7936 -0.3345 -1.7562
  153SAPE   H4S16993   3.929   6.565  10.149 -0.8582  1.0483 -0.9870
  153SAPE   C2516994   3.724   6.623  10.078  0.2782 -0.9494  0.2500
  153SAPE   H5R16995   3.626   6.628  10.128 -0.0502 -0.8550 -0.3858
  153SAPE   C2616996   3.738   6.684   9.959 -0.3686  0.0089 -0.2568
  153SAPE   H6R16997   3.652   6.713   9.897  0.6990  1.4061 -1.1343
  153SAPE   C2716998   3.872   6.691   9.887 -0.0309 -0.0093 -0.0542
  153SAPE   H7R16999   3.957   6.650   9.947  0.3134 -0.2907 -0.7224
  153SAPE   H7S17000   3.908   6.792   9.858  3.5777  0.0228  3.5677
  153SAPE   C2817001   3.857   6.591   9.771 -1.4061 -0.4358  0.0450
  153SAPE   H8R17002   3.844   6.485   9.796  2.6213 -0.6897  1.8480
  153SAPE   C2917003   3.843   6.608   9.640  0.1973  0.1354 -0.5950
  153SAPE   H9R17004   3.817   6.514   9.589 -0.1806 -0.6091  0.9033
  153SAPE  C21017005   3.843   6.743   9.577 -0.2789 -0.8435 -0.0117
  153SAPE  H10R17006   3.905   6.743   9.485  0.6284  0.0377  0.5732
  153SAPE  H10S17007   3.878   6.821   9.648  0.6398 -0.0520 -1.2916
  153SAPE  C21117008   3.702   6.784   9.536  0.3816 -0.0222  0.4720
  153SAPE  H11R17009   3.648   6.842   9.612 -0.8196 -1.8309  1.0571
  153SAPE  C21217010   3.651   6.783   9.409  0.0984  1.0180 -0.6365
  153SAPE  H12R17011   3.553   6.827   9.383 -0.2157 -0.3964 -2.0224
  153SAPE  C21317012   3.720   6.737   9.284 -0.0357 -0.3073  0.0196
  153SAPE  H13R17013   3.820   6.691   9.296  0.5088  1.1672  1.7514
  153SAPE  H13S17014   3.747   6.831   9.232  0.1755  0.0654  0.7878
  153SAPE  C21417015   3.637   6.661   9.190 -0.4757  0.6989 -0.2786
  153SAPE  H14R17016   3.648   6.553   9.209 -0.4595  0.8264  0.4659
  153SAPE  C21517017   3.566   6.703   9.084 -0.7617 -0.3338 -0.1793
  153SAPE  H15R17018   3.521   6.629   9.016 -2.3642  2.1604 -2.0217
  153SAPE  C21617019   3.547   6.846   9.035  0.1904  0.0164  0.3773
  153SAPE  H16R17020   3.638   6.903   9.064 -0.6080  1.7814 -0.4342
  153SAPE  H16S17021   3.462   6.903   9.079 -1.5032 -2.1167 -0.0214
  153SAPE  C21717022   3.519   6.862   8.883  0.7369  0.1969  0.3014
  153SAPE  H17R17023   3.487   6.969   8.881  1.9547  0.6755  2.4788
  153SAPE  H17S17024   3.438   6.797   8.845  2.5653 -3.9551  2.8153
  153SAPE  C21817025   3.640   6.849   8.795  0.0989  0.3134 -0.4051
  153SAPE  H18R17026   3.695   6.756   8.820 -0.6446 -0.5836 -1.9257
  153SAPE  H18S17027   3.702   6.937   8.822 -2.8730  1.9245  1.6136
  153SAPE  C21917028   3.606   6.835   8.647 -0.0179  0.7777  0.9895
  153SAPE  H19R17029   3.532   6.754   8.627 -0.9642  2.1111 -1.2437
  153SAPE  H19S17030   3.699   6.813   8.591  0.0559  0.3691  1.2664
  153SAPE  C22017031   3.556   6.959   8.576  0.1730 -0.6457 -0.1310
  153SAPE  H20R17032   3.555   6.943   8.466 -2.6410  1.1080 -0.4585
  153SAPE  H20S17033   3.600   7.055   8.611 -0.1212  0.3393 -2.3043
  153SAPE  H20T17034   3.449   6.960   8.608 -0.9254 -0.4816 -3.4357
  153SAPE   C3317035   3.350   6.139   9.936 -0.2967  0.0936  0.2188
  153SAPE   H3X17036   3.242   6.118   9.954 -0.7933  1.0515 -1.4455
  153SAPE   H3Y17037   3.384   6.038   9.902 -3.5474 -0.0993 -3.0496
  153SAPE   C3417038   3.363   6.258   9.837 -0.3696 -0.2840 -0.1668
  153SAPE   H4X17039   3.340   6.354   9.887  0.1994 -0.1866 -0.0863
  153SAPE   H4Y17040   3.294   6.237   9.752  0.1426  0.4276 -0.7584
  153SAPE   C3517041   3.507   6.271   9.789  0.4160  0.4670 -0.4167
  153SAPE   H5X17042   3.528   6.169   9.748  0.2542 -0.1595  0.9965
  153SAPE   H5Y17043   3.567   6.292   9.880 -1.3664  0.2559  0.8545
  153SAPE   C3617044   3.520   6.374   9.671  0.1596  0.7825  0.7222
  153SAPE   H6X17045   3.631   6.380   9.662  0.2566 -0.7736  0.6402
  153SAPE   H6Y17046   3.487   6.478   9.690  1.0523  1.4832 -1.3174
  153SAPE   C3717047   3.450   6.333   9.534  0.1525  0.0023  0.0904
  153SAPE   H7X17048   3.340   6.340   9.547 -0.0674  2.7862 -2.1272
  153SAPE   H7Y17049   3.483   6.230   9.511 -0.8305 -0.3184  0.0870
  153SAPE   C3817050   3.494   6.418   9.410 -0.0709 -0.3890  0.5615
  153SAPE   H8X17051   3.602   6.421   9.388 -0.2749 -1.2490 -0.6875
  153SAPE   H8Y17052   3.456   6.521   9.425 -2.0466 -1.3107  2.5994
  153SAPE   C3917053   3.424   6.379   9.279 -0.1045 -0.3358  0.2316
  153SAPE   H9X17054   3.422   6.462   9.206  0.8048 -0.3133  0.2231
  153SAPE   H9Y17055   3.322   6.336   9.293 -0.1886 -1.2529 -2.5056
  153SAPE  C31017056   3.506   6.278   9.203  0.9039  0.1741  0.2725
  153SAPE  H10X17057   3.503   6.185   9.264 -1.5556  0.8102  1.2412
  153SAPE  H10Y17058   3.614   6.305   9.200  0.7419  1.3114  2.4865
  153SAPE  C31117059   3.446   6.239   9.063 -0.2841 -0.0016  0.1309
  153SAPE  H11X17060   3.336   6.223   9.068 -0.3488  0.7995  3.2635
  153SAPE  H11Y17061   3.486   6.141   9.032  0.0688  0.1700  0.0455
  153SAPE  C31217062   3.486   6.316   8.937  0.1236 -0.4952  0.1588
  153SAPE  H12X17063   3.425   6.408   8.921  1.6305  0.6350  0.6867
  153SAPE  H12Y17064   3.480   6.251   8.847  0.6631 -0.0269 -0.2295
  153SAPE  C31317065   3.633   6.362   8.922 -0.5152  0.5968 -0.1102
  153SAPE  H13X17066   3.701   6.274   8.929 -0.8674  0.4496  2.4471
  153SAPE  H13Y17067   3.667   6.420   9.011  2.5462 -1.3596  0.1522
  153SAPE  C31417068   3.673   6.408   8.778  0.7456 -0.4251  0.0452
  153SAPE  H14X17069   3.649   6.517   8.775  0.4919 -0.4423  1.0265
  153SAPE  H14Y17070   3.603   6.355   8.710 -1.3573  0.4952  1.3782
  153SAPE  C31517071   3.819   6.397   8.739  0.8455 -0.0967  0.4186
  153SAPE  H15X17072   3.851   6.291   8.728 -1.9181 -1.1688  1.7036
  153SAPE  H15Y17073   3.877   6.436   8.825  1.9904  0.4937 -0.5855
  153SAPE  C31617074   3.853   6.481   8.618  0.0599 -0.1034 -0.0414
  153SAPE  H16X17075   3.794   6.574   8.631  0.7425  0.0455  2.2683
  153SAPE  H16Y17076   3.818   6.435   8.523 -2.3383 -1.7213  1.5006
  153SAPE  C31717077   4.001   6.519   8.619 -0.9478  0.2315  0.4152
  153SAPE  H17X17078   4.028   6.567   8.715 -3.4144  0.2840  1.1463
  153SAPE  H17Y17079   4.011   6.596   8.540  1.9140  1.4678  1.8562
  153SAPE  C31817080   4.089   6.396   8.594  0.3614 -0.8324  0.2368
  153SAPE  H18X17081   4.036   6.314   8.648 -1.8802 -0.6198 -1.4535
  153SAPE  H18Y17082   4.192   6.427   8.620 -0.3578  1.8968  0.0532
  153SAPE  H18Z17083   4.084   6.367   8.487 -0.8642  0.2422 -0.0240
  154SAPE     N17084   2.410   4.508  10.427 -0.3622  0.1564 -0.3884
  154SAPE   HN117085   2.384   4.468  10.334 -2.4670 -2.8055  1.3316
  154SAPE   HN217086   2.499   4.466  10.460 -1.5101 -2.0070  0.1074
  154SAPE   HN317087   2.331   4.474  10.484 -1.5036  1.4893 -1.1243
  154SAPE   C1217088   2.407   4.662  10.421  0.4001  0.2209 -0.4420
  154SAPE  H12A17089   2.509   4.704  10.403 -0.8338  2.6198 -2.5562
  154SAPE  H12B17090   2.363   4.699  10.516  0.8580 -1.0124  0.2690
  154SAPE   C1117091   2.302   4.684  10.309 -0.4067  0.3944 -0.8386
  154SAPE  H11A17092   2.353   4.636  10.222  2.0503 -0.9762  1.2206
  154SAPE  H11B17093   2.300   4.791  10.278 -0.1517  0.9672  1.0289
  154SAPE     P17094   2.039   4.678  10.359 -0.2764  0.4537 -0.2535
  154SAPE   O1317095   1.926   4.603  10.296 -0.1171 -0.0730 -0.7328
  154SAPE   O1417096   2.033   4.715  10.503 -0.0417 -0.2983 -0.8020
  154SAPE   O1217097   2.181   4.613  10.333  0.4871 -0.4657  0.2325
  154SAPE   O1117098   2.051   4.813  10.284  0.3096  0.1822  0.2529
  154SAPE    C117099   2.078   4.839  10.149  0.0715 -0.0132 -0.2628
  154SAPE    HA17100   2.165   4.908  10.144  0.4316 -0.4948 -0.7194
  154SAPE    HB17101   2.111   4.747  10.096 -0.0069 -1.2052  1.6362
  154SAPE    C217102   1.950   4.899  10.082 -0.3043 -0.0000  0.0312
  154SAPE    HS17103   1.872   4.820  10.086 -0.6547  0.3900  0.9912
  154SAPE   O2117104   1.988   4.934   9.952  0.0751 -0.7225  0.1965
  154SAPE   C2117105   1.993   4.836   9.862 -0.3078 -0.2611 -0.2108
  154SAPE   O2217106   1.962   4.719   9.878 -0.5166  0.5018 -0.3014
  154SAPE   C2217107   2.037   4.896   9.729  0.2448 -0.1002 -0.1726
  154SAPE   H2R17108   2.028   5.007   9.720 -1.0573 -0.1888 -0.1950
  154SAPE   H2S17109   2.146   4.874   9.731 -0.0387 -1.6277  2.6327
  154SAPE    C317110   1.899   5.032  10.142  0.3679  0.1089 -0.2953
  154SAPE    HX17111   1.878   4.988  10.242 -0.2437 -0.8041 -0.8217
  154SAPE    HY17112   1.802   5.074  10.111  1.3974  1.2489 -2.1577
  154SAPE   O3117113   1.999   5.134  10.157 -0.6812 -0.8175 -0.1264
  154SAPE   C3117114   1.999   5.226  10.053 -0.3500 -0.2574  0.1832
  154SAPE   O3217115   1.905   5.241   9.974  0.1007  0.1686  0.2724
  154SAPE   C3217116   2.129   5.312  10.054 -0.7119  0.6466 -0.1507
  154SAPE   H2X17117   2.187   5.282  10.144  1.0483  2.9444 -0.4362
  154SAPE   H2Y17118   2.110   5.421  10.061 -1.9948  0.4734 -0.5060
  154SAPE   C2317119   1.978   4.816   9.619  0.1752 -0.2292 -0.1163
  154SAPE   H3R17120   1.872   4.848   9.614  0.9603  2.8465  0.5928
  154SAPE   H3S17121   1.980   4.707   9.641  1.1350  0.1106  1.6764
  154SAPE   C2417122   2.038   4.852   9.480  0.2705  0.7563 -0.0852
  154SAPE   H4R17123   2.148   4.854   9.491  0.2192 -0.2177  0.7689
  154SAPE   H4S17124   2.001   4.954   9.459 -0.4571  1.1725  2.8250
  154SAPE   C2517125   1.983   4.763   9.377  0.1240 -0.2043  0.1376
  154SAPE   H5R17126   1.937   4.672   9.417 -0.6836  1.0887  2.3270
  154SAPE   C2617127   1.998   4.786   9.243 -0.9643  0.0343  0.1420
  154SAPE   H6R17128   1.954   4.717   9.170 -0.6790  1.1510 -1.1173
  154SAPE   C2717129   2.071   4.908   9.179 -0.5567  0.2253  0.9735
  154SAPE   H7R17130   2.124   4.871   9.089 -0.8638  2.8924 -0.4101
  154SAPE   H7S17131   2.145   4.955   9.247 -0.7670 -0.7595  1.9242
  154SAPE   C2817132   1.962   4.997   9.125  0.7915 -0.7110  0.1273
  154SAPE   H8R17133   1.924   5.069   9.199 -2.9884 -1.4253 -0.9336
  154SAPE   C2917134   1.904   4.994   9.007 -0.5053 -0.5020  0.6226
  154SAPE   H9R17135   1.826   5.065   8.976  0.5812  0.2437 -0.4940
  154SAPE  C21017136   1.948   4.896   8.894  0.2509  0.5501 -0.5691
  154SAPE  H10R17137   1.861   4.845   8.848 -0.4009 -0.4161  1.6347
  154SAPE  H10S17138   1.993   4.804   8.936  1.9253  0.2222 -2.8124
  154SAPE  C21117139   2.041   4.958   8.787  0.4754  0.0151  0.4380
  154SAPE  H11R17140   2.019   5.066   8.782  0.9611  0.2476  2.2452
  154SAPE  C21217141   2.118   4.898   8.695  0.1810 -0.5111 -0.4692
  154SAPE  H12R17142   2.185   4.959   8.633 -2.2494  0.9146 -1.8774
  154SAPE  C21317143   2.138   4.746   8.690 -0.7722  0.1545  0.5506
  154SAPE  H13R17144   2.185   4.737   8.589  1.1351  0.6407  1.3546
  154SAPE  H13S17145   2.034   4.707   8.684 -0.0440 -1.7441 -1.2370
  154SAPE  C21417146   2.230   4.677   8.793  1.0032  0.7112  0.1213
  154SAPE  H14R17147   2.297   4.728   8.864  3.3886 -0.6435 -1.0379
  154SAPE  C21517148   2.252   4.544   8.794  1.0893  0.7262  0.4483
  154SAPE  H15R17149   2.319   4.500   8.870  2.5750 -0.2709 -1.3413
  154SAPE  C21617150   2.160   4.449   8.728 -0.9821  0.1971 -0.3169
  154SAPE  H16R17151   2.059   4.496   8.728 -1.1409  0.0411  2.5591
  154SAPE  H16S17152   2.156   4.353   8.783 -0.3023  0.9802  1.1591
  154SAPE  C21717153   2.197   4.424   8.582 -0.9453  0.3735  0.2338
  154SAPE  H17R17154   2.286   4.358   8.587 -2.0387 -1.1906 -0.0981
  154SAPE  H17S17155   2.224   4.515   8.524 -2.2851 -0.0463 -1.1432
  154SAPE  C21817156   2.080   4.365   8.496 -0.7921 -0.3964  0.2804
  154SAPE  H18R17157   1.994   4.431   8.518 -0.6674  0.2378 -1.0441
  154SAPE  H18S17158   2.065   4.264   8.541 -0.4031  0.1178  1.6033
  154SAPE  C21917159   2.107   4.356   8.344 -0.5507 -0.2042 -0.2985
  154SAPE  H19R17160   2.212   4.324   8.325 -0.9920 -0.9871 -1.5728
  154SAPE  H19S17161   2.112   4.462   8.311  1.2786  0.5233  2.0018
  154SAPE  C22017162   2.006   4.272   8.268  0.1521 -0.1056  0.1555
  154SAPE  H20R17163   2.013   4.168   8.307 -0.3885 -0.2573 -0.1379
  154SAPE  H20S17164   2.026   4.280   8.159 -1.7802  2.3977 -0.1183
  154SAPE  H20T17165   1.899   4.300   8.283  0.2454  1.4620 -1.7540
  154SAPE   C3317166   2.213   5.298   9.925 -0.5066  0.2411 -0.0426
  154SAPE   H3X17167   2.292   5.375   9.915 -0.8274  0.3816 -1.9450
  154SAPE   H3Y17168   2.143   5.317   9.840 -1.2905  3.3791  1.1675
  154SAPE   C3417169   2.281   5.163   9.922  0.7362 -0.4458 -0.0799
  154SAPE   H4X17170   2.205   5.082   9.913  1.0955 -0.7854 -0.1111
  154SAPE   H4Y17171   2.345   5.158  10.013  1.7309  0.4503 -0.7138
  154SAPE   C3517172   2.389   5.153   9.807  0.3076 -0.1688 -0.1162
  154SAPE   H5X17173   2.458   5.068   9.820 -0.3601 -0.6266  0.5519
  154SAPE   H5Y17174   2.448   5.246   9.825 -1.3433  0.5466  2.0693
  154SAPE   C3617175   2.337   5.145   9.661 -0.2376  0.2171  0.0414
  154SAPE   H6X17176   2.303   5.247   9.631  1.1187  0.0640 -2.2082
  154SAPE   H6Y17177   2.259   5.068   9.643 -0.5141  0.2271  1.1096
  154SAPE   C3717178   2.447   5.116   9.567 -0.6110  0.0639 -0.1243
  154SAPE   H7X17179   2.506   5.025   9.593  2.1216  2.1190  1.4604
  154SAPE   H7Y17180   2.516   5.200   9.589 -0.6657 -0.1582  0.9290
  154SAPE   C3817181   2.423   5.090   9.424  0.7932 -0.0901  0.3681
  154SAPE   H8X17182   2.353   5.168   9.386  0.9169  0.5720  1.4642
  154SAPE   H8Y17183   2.363   4.998   9.406 -0.4985  0.8112 -0.0894
  154SAPE   C3917184   2.556   5.064   9.349  0.4547  0.8485 -0.0504
  154SAPE   H9X17185   2.622   4.993   9.403  0.1464  0.0517 -0.6997
  154SAPE   H9Y17186   2.605   5.164   9.345 -1.7729  2.0618  1.1278
  154SAPE  C31017187   2.558   5.008   9.204  0.1203  0.8301 -0.1904
  154SAPE  H10X17188   2.521   4.903   9.207  0.0184  0.8116 -1.5071
  154SAPE  H10Y17189   2.664   5.002   9.171  0.0762  0.6369 -0.3005
  154SAPE  C31117190   2.462   5.087   9.109  0.0716 -0.5986 -0.2515
  154SAPE  H11X17191   2.500   5.191   9.095 -0.1290 -0.4873  0.0283
  154SAPE  H11Y17192   2.363   5.090   9.158 -0.0609  0.2096 -0.5598
  154SAPE  C31217193   2.451   5.021   8.970  0.0923 -0.2302 -0.1289
  154SAPE  H12X17194   2.393   4.929   8.996 -2.1803  1.7324  2.2804
  154SAPE  H12Y17195   2.552   4.991   8.936  0.1312 -1.6406  1.1244
  154SAPE  C31317196   2.382   5.112   8.863 -0.5779 -0.0052  0.2083
  154SAPE  H13X17197   2.406   5.219   8.885  0.6318 -0.0917 -0.5799
  154SAPE  H13Y17198   2.271   5.116   8.869 -0.6521  0.6011 -1.2023
  154SAPE  C31417199   2.435   5.074   8.721 -0.3030  0.3608  0.7578
  154SAPE  H14X17200   2.412   4.966   8.705 -0.7633  0.6039 -0.3102
  154SAPE  H14Y17201   2.546   5.069   8.718 -0.3205 -1.7049  1.8432
  154SAPE  C31517202   2.375   5.159   8.606 -0.0747 -0.7066  0.0438
  154SAPE  H15X17203   2.435   5.252   8.600 -1.1899 -0.0602 -1.7659
  154SAPE  H15Y17204   2.271   5.190   8.629 -0.3803 -1.0541 -0.8125
  154SAPE  C31617205   2.370   5.091   8.466  0.7027 -0.1445  0.0392
  154SAPE  H16X17206   2.301   5.005   8.453 -0.8303  1.1289 -0.5415
  154SAPE  H16Y17207   2.473   5.056   8.444  0.5083 -1.6427  1.2911
  154SAPE  C31717208   2.343   5.184   8.351  0.0001  0.3244 -0.3304
  154SAPE  H17X17209   2.432   5.176   8.285  1.1431  1.7906  0.9476
  154SAPE  H17Y17210   2.341   5.293   8.373  1.4543  0.8350 -2.4143
  154SAPE  C31817211   2.219   5.175   8.265  0.1523  0.0107  1.0142
  154SAPE  H18X17212   2.134   5.121   8.312 -0.1710  0.0858  0.5252
  154SAPE  H18Y17213   2.241   5.124   8.168 -0.1197 -0.8696  1.4037
  154SAPE  H18Z17214   2.181   5.275   8.234 -0.0552 -0.2409  0.4387
  155SAPE     N17215   5.171   1.478  11.189 -0.1075 -0.1200  0.8704
  155SAPE   HN117216   5.194   1.550  11.260  0.9396  0.1214  0.3069
  155SAPE   HN217217   5.131   1.389  11.225  0.1852 -1.3615 -1.6658
  155SAPE   HN317218   5.250   1.454  11.126 -0.9473 -0.2394 -0.1789
  155SAPE   C1217219   5.068   1.543  11.101 -0.1252 -0.4134 -0.3335
  155SAPE  H12A17220   5.089   1.524  10.994 -3.2695 -0.1400 -1.1005
  155SAPE  H12B17221   5.066   1.652  11.123  1.5176  0.1422 -2.5692
  155SAPE   C1117222   4.924   1.498  11.128  0.0958 -0.1613  0.0373
  155SAPE  H11A17223   4.854   1.566  11.075 -0.7812 -0.5497  0.6845
  155SAPE  H11B17224   4.914   1.498  11.238  3.3029 -2.2949  0.4528
  155SAPE     P17225   4.926   1.236  11.161  0.0265  0.2865  0.5594
  155SAPE   O1317226   5.024   1.266  11.269 -0.1549 -0.3853 -0.0492
  155SAPE   O1417227   4.790   1.197  11.206 -0.1613  0.5524 -0.9228
  155SAPE   O1217228   4.906   1.371  11.074 -0.3727  0.6181  0.2446
  155SAPE   O1117229   4.993   1.127  11.060 -0.3228  0.0895 -0.8961
  155SAPE    C117230   5.073   1.177  10.948  0.2322 -0.4587 -0.1735
  155SAPE    HA17231   5.132   1.265  10.979  1.3365 -1.5313  0.8557
  155SAPE    HB17232   5.144   1.100  10.911  0.3306 -0.0572 -0.8513
  155SAPE    C217233   4.981   1.224  10.827 -0.4744 -0.1791 -0.3863
  155SAPE    HS17234   4.900   1.282  10.876  1.0319  0.7266  1.1471
  155SAPE   O2117235   4.944   1.108  10.756  0.3987 -0.2702 -0.0490
  155SAPE   C2117236   4.822   1.116  10.707 -0.0118  0.0071  0.1954
  155SAPE   O2217237   4.744   1.204  10.731 -0.0542  0.0238  0.0959
  155SAPE   C2217238   4.805   0.995  10.610 -0.1115  0.1743  0.5115
  155SAPE   H2R17239   4.903   0.966  10.568 -0.8710 -0.3701 -0.9789
  155SAPE   H2S17240   4.790   0.906  10.674  1.6637 -2.6884 -2.7220
  155SAPE    C317241   5.054   1.322  10.732  0.0382 -0.4939  0.1452
  155SAPE    HX17242   5.152   1.287  10.693 -0.0702 -1.5298  0.7693
  155SAPE    HY17243   5.080   1.408  10.798  0.6864 -0.8334  0.3501
  155SAPE   O3117244   4.969   1.369  10.626 -0.6453  0.1672  0.5886
  155SAPE   C3117245   4.890   1.471  10.657 -0.0555 -0.6126  0.1419
  155SAPE   O3217246   4.890   1.521  10.765  0.0663 -0.0230  0.2726
  155SAPE   C3217247   4.837   1.534  10.526  0.1806 -0.5292 -0.6718
  155SAPE   H2X17248   4.902   1.624  10.520 -0.9678  0.6472  2.3816
  155SAPE   H2Y17249   4.735   1.567  10.554  0.5090 -0.5135  0.5325
  155SAPE   C2317250   4.694   1.021  10.504 -0.5649 -0.2463  0.1313
  155SAPE   H3R17251   4.729   1.106  10.441 -0.9824 -0.1926 -0.0290
  155SAPE   H3S17252   4.601   1.054  10.555  0.5373  1.9837  0.8674
  155SAPE   C2417253   4.673   0.906  10.400  0.1297 -0.0066  0.2919
  155SAPE   H4R17254   4.582   0.922  10.337  0.8912  0.0167 -0.8360
  155SAPE   H4S17255   4.669   0.808  10.452  2.8056 -0.5895 -0.4619
  155SAPE   C2517256   4.790   0.885  10.311  0.1052 -0.4364  0.0619
  155SAPE   H5R17257   4.883   0.852  10.360  1.0581  1.2567 -0.5038
  155SAPE   C2617258   4.795   0.893  10.176  0.7120  0.1394 -0.3975
  155SAPE   H6R17259   4.886   0.865  10.120  1.0774  1.3883 -0.4658
  155SAPE   C2717260   4.688   0.918  10.081 -0.0746  0.2463  0.3415
  155SAPE   H7R17261   4.597   0.869  10.123  0.5442 -1.3878 -0.1865
  155SAPE   H7S17262   4.696   0.865   9.984 -0.5837  1.7715 -0.5821
  155SAPE   C2817263   4.664   1.060  10.062 -0.0310 -0.6039 -0.1251
  155SAPE   H8R17264   4.685   1.120  10.151  0.9312 -0.1548 -0.6372
  155SAPE   C2917265   4.635   1.133   9.951 -0.3705 -0.3828  0.4477
  155SAPE   H9R17266   4.635   1.243   9.956 -0.3534 -0.4298  1.8716
  155SAPE  C21017267   4.604   1.079   9.814 -0.3444 -0.2015  0.9947
  155SAPE  H10R17268   4.520   1.146   9.785  1.1555  1.4209  0.1920
  155SAPE  H10S17269   4.564   0.976   9.821  2.9781 -1.7430 -0.4655
  155SAPE  C21117270   4.719   1.081   9.716 -0.5593  0.0642  0.9476
  155SAPE  H11R17271   4.813   1.042   9.759  0.4553  0.9134 -0.4216
  155SAPE  C21217272   4.725   1.131   9.591 -0.2926  0.6814 -0.0374
  155SAPE  H12R17273   4.827   1.132   9.549 -0.3670 -2.0728 -0.4569
  155SAPE  C21317274   4.619   1.195   9.512 -0.4845 -0.4394 -0.4480
  155SAPE  H13R17275   4.518   1.161   9.544  0.5816 -1.0794  2.4842
  155SAPE  H13S17276   4.644   1.154   9.411  0.1828 -1.2096  0.0215
  155SAPE  C21417277   4.624   1.345   9.537  0.4867 -0.0179  0.5204
  155SAPE  H14R17278   4.641   1.376   9.641  0.3453 -2.2538  1.2747
  155SAPE  C21517279   4.625   1.442   9.440  0.3378  0.6159  1.0654
  155SAPE  H15R17280   4.637   1.548   9.466  0.5084  0.5457  1.2762
  155SAPE  C21617281   4.627   1.417   9.290  0.6628  1.0385 -0.2394
  155SAPE  H16R17282   4.695   1.334   9.261  1.1299  1.4250 -0.2726
  155SAPE  H16S17283   4.659   1.509   9.236 -0.5432  0.8209 -1.3553
  155SAPE  C21717284   4.488   1.388   9.230 -0.0399 -0.5233  0.1479
  155SAPE  H17R17285   4.417   1.473   9.243  0.3083  0.4199 -3.0913
  155SAPE  H17S17286   4.435   1.299   9.271 -0.4809 -0.2881  0.0947
  155SAPE  C21817287   4.480   1.383   9.075  0.2894  0.6467  0.2935
  155SAPE  H18R17288   4.518   1.475   9.026  1.1330  0.1960  0.0703
  155SAPE  H18S17289   4.375   1.357   9.048  0.6353 -2.3208  1.3664
  155SAPE  C21917290   4.564   1.265   9.025 -0.7137  0.2371 -0.3816
  155SAPE  H19R17291   4.573   1.182   9.099  0.2287  0.8491  0.2188
  155SAPE  H19S17292   4.662   1.318   9.027  0.2837 -1.5498 -0.1952
  155SAPE  C22017293   4.545   1.218   8.879  0.4841  0.2258 -0.1669
  155SAPE  H20R17294   4.450   1.160   8.877  1.6855 -1.8704 -0.3626
  155SAPE  H20S17295   4.625   1.146   8.851 -1.1081 -1.3351 -0.8815
  155SAPE  H20T17296   4.543   1.300   8.805 -0.8209  0.2116 -0.1730
  155SAPE   C3317297   4.851   1.454  10.398 -0.1716 -0.1367  0.8880
  155SAPE   H3X17298   4.822   1.349  10.418 -0.2779  0.3001  3.3250
  155SAPE   H3Y17299   4.960   1.448  10.376 -0.6350 -1.2743 -1.4452
  155SAPE   C3417300   4.774   1.512  10.277 -0.1040  0.3263 -0.0634
  155SAPE   H4X17301   4.826   1.609  10.259 -2.0511  1.7279  1.3697
  155SAPE   H4Y17302   4.669   1.543  10.295 -0.3475  0.6903 -1.8809
  155SAPE   C3517303   4.771   1.428  10.154 -0.0250 -0.4445  0.0602
  155SAPE   H5X17304   4.674   1.455  10.105 -0.4350 -2.6144 -0.4201
  155SAPE   H5Y17305   4.771   1.320  10.180  0.6117 -1.1253 -2.4683
  155SAPE   C3617306   4.906   1.447  10.073  0.0093 -0.0530  0.3732
  155SAPE   H6X17307   4.993   1.419  10.135  0.2519  1.5953  0.8169
  155SAPE   H6Y17308   4.906   1.555  10.050 -1.6326  0.5443  2.7817
  155SAPE   C3717309   4.911   1.354   9.952 -0.0457  0.5274  0.3905
  155SAPE   H7X17310   4.813   1.369   9.902 -0.1830  1.2506  0.8627
  155SAPE   H7Y17311   4.911   1.248   9.987  0.2539 -0.0226 -1.1954
  155SAPE   C3817312   5.026   1.386   9.851 -0.5041  0.5259  0.0322
  155SAPE   H8X17313   5.129   1.363   9.887 -1.1673 -0.3232  1.4618
  155SAPE   H8Y17314   5.020   1.495   9.831 -3.9323  0.2054 -1.3404
  155SAPE   C3917315   5.036   1.317   9.715 -0.0715 -0.1653  0.0837
  155SAPE   H9X17316   4.942   1.343   9.662 -0.6056 -3.0046 -0.5613
  155SAPE   H9Y17317   5.038   1.206   9.719  0.8498 -0.1337  1.0218
  155SAPE  C31017318   5.163   1.365   9.638  0.1318 -0.5232 -0.0315
  155SAPE  H10X17319   5.249   1.321   9.691 -0.2147 -0.5316  0.5277
  155SAPE  H10Y17320   5.162   1.474   9.657 -1.7931 -0.5660  0.3196
  155SAPE  C31117321   5.155   1.322   9.485 -0.0205  0.3016  0.0882
  155SAPE  H11X17322   5.063   1.371   9.447 -1.0822 -1.1569  0.6507
  155SAPE  H11Y17323   5.138   1.213   9.501 -0.4954  0.4873  0.9383
  155SAPE  C31217324   5.276   1.329   9.389  0.0675  0.3510 -1.2268
  155SAPE  H12X17325   5.369   1.288   9.433  0.2576  2.2999  0.3262
  155SAPE  H12Y17326   5.303   1.435   9.368  3.3293  0.1667  1.2232
  155SAPE  C31317327   5.253   1.250   9.256  0.3353 -0.4183 -0.1397
  155SAPE  H13X17328   5.150   1.266   9.217  0.2520 -1.1393 -0.2368
  155SAPE  H13Y17329   5.257   1.144   9.290 -1.0067 -0.2345  0.6689
  155SAPE  C31417330   5.352   1.293   9.149 -0.7572 -0.1291  1.0314
  155SAPE  H14X17331   5.457   1.299   9.185 -0.3735 -0.2103 -0.0588
  155SAPE  H14Y17332   5.324   1.398   9.127  0.3195 -0.3804 -1.9375
  155SAPE  C31517333   5.351   1.212   9.015  0.1584 -0.1125  0.0155
  155SAPE  H15X17334   5.372   1.279   8.929  1.7439 -1.0961 -0.4032
  155SAPE  H15Y17335   5.247   1.178   8.992 -0.2041  0.9427  0.0258
  155SAPE  C31617336   5.453   1.094   9.016 -0.0964 -0.0304  0.5533
  155SAPE  H16X17337   5.436   1.005   9.080  1.9861 -1.2138 -0.4389
  155SAPE  H16Y17338   5.552   1.132   9.049 -0.1414 -0.2288  0.9170
  155SAPE  C31717339   5.481   1.049   8.867  0.5777 -0.5383 -0.0035
  155SAPE  H17X17340   5.498   1.139   8.805 -0.1793  1.2329  2.2278
  155SAPE  H17Y17341   5.383   1.013   8.829  0.7947 -0.4008 -0.7121
  155SAPE  C31817342   5.580   0.932   8.846 -1.0090 -0.7248  0.1159
  155SAPE  H18X17343   5.679   0.961   8.889 -1.3557  0.6199  0.0583
  155SAPE  H18Y17344   5.587   0.929   8.735 -2.2806  1.1531 -0.0659
  155SAPE  H18Z17345   5.533   0.844   8.894  0.6079 -1.9397 -0.4375
  156SAPE     N17346   1.359   4.105  10.524 -0.1159  0.7375  0.0272
  156SAPE   HN117347   1.296   4.184  10.501 -1.1914  0.5893  2.1857
  156SAPE   HN217348   1.411   4.120  10.612 -2.4925  0.6403  1.5260
  156SAPE   HN317349   1.435   4.106  10.453  1.0987 -0.2682  1.2720
  156SAPE   C1217350   1.288   3.968  10.526  0.1873 -0.2349 -0.5464
  156SAPE  H12A17351   1.246   3.956  10.424  0.0795  0.4111 -0.5842
  156SAPE  H12B17352   1.211   3.974  10.606  0.0446  1.1224 -0.7658
  156SAPE   C1117353   1.390   3.861  10.567 -0.7903 -0.1292 -0.9222
  156SAPE  H11A17354   1.323   3.774  10.583 -1.9734  0.7847 -0.7157
  156SAPE  H11B17355   1.443   3.912  10.650 -1.3858 -1.4562  0.3167
  156SAPE     P17356   1.596   3.731  10.502  0.0328  0.1566 -0.1212
  156SAPE   O1317357   1.593   3.689  10.647 -0.3453  0.0144  0.2618
  156SAPE   O1417358   1.590   3.627  10.398 -0.0017  0.5971 -0.4789
  156SAPE   O1217359   1.488   3.843  10.463 -0.0574  0.0412  0.6696
  156SAPE   O1117360   1.736   3.807  10.483 -0.7688  0.0009  0.1588
  156SAPE    C117361   1.740   3.946  10.447 -0.3677  0.4644  0.6581
  156SAPE    HA17362   1.667   4.008  10.503  1.9175  1.2350  2.9798
  156SAPE    HB17363   1.838   3.998  10.458 -0.5778  0.7332  1.3169
  156SAPE    C217364   1.709   3.970  10.293  0.0168  0.5950  0.4976
  156SAPE    HS17365   1.607   3.929  10.277 -0.4723  1.9181  0.0736
  156SAPE   O2117366   1.803   3.902  10.211  0.2560  0.3637 -0.2778
  156SAPE   C2117367   1.761   3.861  10.087 -0.1629 -0.0271  0.6877
  156SAPE   O2217368   1.645   3.859  10.049 -0.2968 -0.5828 -0.3845
  156SAPE   C2217369   1.884   3.842   9.995 -0.1131 -0.3966 -1.2613
  156SAPE   H2R17370   1.922   3.935   9.947 -2.3224  1.7592  0.8968
  156SAPE   H2S17371   1.966   3.805  10.060 -0.2162 -0.1874 -1.0121
  156SAPE    C317372   1.706   4.117  10.252 -0.0900 -0.0523 -0.0211
  156SAPE    HX17373   1.807   4.160  10.237  0.2847 -1.6629 -2.5280
  156SAPE    HY17374   1.659   4.171  10.338 -0.7049 -1.7908  0.7807
  156SAPE   O3117375   1.624   4.140  10.136 -0.2639 -0.2633  0.1358
  156SAPE   C3117376   1.491   4.128  10.164  0.1003 -0.2374 -0.2816
  156SAPE   O3217377   1.448   4.120  10.277 -0.5361  0.0907  0.3207
  156SAPE   C3217378   1.411   4.142  10.037  0.2322 -0.0717 -0.0032
  156SAPE   H2X17379   1.434   4.059   9.967  0.6638  1.5680 -1.8961
  156SAPE   H2Y17380   1.449   4.233   9.987 -1.1861 -0.4796 -1.9263
  156SAPE   C2317381   1.847   3.747   9.880 -0.0397  0.1753 -0.7786
  156SAPE   H3R17382   1.794   3.656   9.916 -0.8014 -0.6344 -3.6236
  156SAPE   H3S17383   1.943   3.718   9.833  1.2794  2.5515  0.2749
  156SAPE   C2417384   1.777   3.830   9.758  0.5087  0.1363  0.8536
  156SAPE   H4R17385   1.846   3.908   9.720 -0.5909  0.1812 -1.1454
  156SAPE   H4S17386   1.686   3.881   9.796  0.2000 -0.8531  1.4851
  156SAPE   C2517387   1.732   3.735   9.648  0.3063  0.1729  0.1768
  156SAPE   H5R17388   1.657   3.659   9.675 -1.8901  0.8333 -3.2788
  156SAPE   C2617389   1.769   3.725   9.515 -0.1944 -0.0069 -0.3501
  156SAPE   H6R17390   1.730   3.642   9.455  0.7107 -0.4598 -0.3304
  156SAPE   C2717391   1.873   3.816   9.439  0.7003 -0.1762 -0.1404
  156SAPE   H7R17392   1.951   3.853   9.508  0.3906  1.7428 -0.7674
  156SAPE   H7S17393   1.835   3.913   9.401 -0.6644 -0.4441  0.4979
  156SAPE   C2817394   1.942   3.744   9.325 -0.2476  0.0218  0.5177
  156SAPE   H8R17395   2.042   3.703   9.349 -0.1597  0.1542  0.3838
  156SAPE   C2917396   1.889   3.719   9.204 -0.0101  0.2698 -0.0626
  156SAPE   H9R17397   1.943   3.653   9.134 -2.7939 -0.8909 -1.2575
  156SAPE  C21017398   1.762   3.781   9.151  0.1431 -0.2938 -0.6780
  156SAPE  H10R17399   1.707   3.847   9.221  0.0796 -0.5622 -0.4742
  156SAPE  H10S17400   1.692   3.701   9.120 -0.9529  0.3231  0.1202
  156SAPE  C21117401   1.790   3.877   9.032  0.6893  0.3005  0.1556
  156SAPE  H11R17402   1.818   3.980   9.056 -0.8930  1.0956 -1.2236
  156SAPE  C21217403   1.783   3.837   8.906  0.6876 -0.0640 -0.3834
  156SAPE  H12R17404   1.801   3.913   8.830  0.1889 -1.1041 -1.5818
  156SAPE  C21317405   1.749   3.700   8.853  1.1966 -0.3497  0.1562
  156SAPE  H13R17406   1.661   3.708   8.786  2.3477  0.2684 -1.3555
  156SAPE  H13S17407   1.731   3.620   8.929  0.3019 -1.8453 -1.5483
  156SAPE  C21417408   1.855   3.658   8.762 -0.2616  0.3721 -1.1673
  156SAPE  H14R17409   1.935   3.730   8.739  1.6543 -1.4800 -0.6702
  156SAPE  C21517410   1.868   3.540   8.705 -0.2556 -0.3649  0.2431
  156SAPE  H15R17411   1.959   3.525   8.644  0.0331  1.4757  0.1782
  156SAPE  C21617412   1.785   3.418   8.731 -0.1592  0.4318 -0.7179
  156SAPE  H16R17413   1.778   3.368   8.632 -0.3701 -0.2291 -0.3732
  156SAPE  H16S17414   1.681   3.446   8.758 -0.3777 -1.1932  0.2226
  156SAPE  C21717415   1.835   3.324   8.841  0.0053  0.3583 -0.6546
  156SAPE  H17R17416   1.943   3.304   8.826  0.8309  2.8405  1.2851
  156SAPE  H17S17417   1.770   3.235   8.826 -1.7681  1.8280 -2.1532
  156SAPE  C21817418   1.830   3.374   8.996  0.0128 -0.0832 -0.0025
  156SAPE  H18R17419   1.737   3.434   9.006  0.8926  1.4824 -0.8033
  156SAPE  H18S17420   1.905   3.446   9.035 -0.8050  0.9857 -0.3438
  156SAPE  C21917421   1.835   3.263   9.100  0.3844  0.2110  0.3844
  156SAPE  H19R17422   1.934   3.213   9.092  0.2686  0.2196 -1.3424
  156SAPE  H19S17423   1.770   3.175   9.078 -2.2617  2.2477 -0.4602
  156SAPE  C22017424   1.814   3.313   9.248  0.8101  0.2729 -0.1237
  156SAPE  H20R17425   1.707   3.343   9.249  0.4022 -1.1015  1.0540
  156SAPE  H20S17426   1.873   3.400   9.285  0.4556 -0.4176  2.2588
  156SAPE  H20T17427   1.832   3.227   9.316 -1.9839 -0.4973 -0.2444
  156SAPE   C3317428   1.259   4.150  10.042 -0.0193 -0.2902  0.2101
  156SAPE   H3X17429   1.231   4.255  10.065  0.3429 -0.3457  0.9366
  156SAPE   H3Y17430   1.222   4.090  10.128  0.8874  1.0891  1.6003
  156SAPE   C3417431   1.202   4.103   9.903 -0.2089 -0.3047 -0.3268
  156SAPE   H4X17432   1.092   4.117   9.906  0.1208  3.0776  1.3492
  156SAPE   H4Y17433   1.223   3.998   9.874 -0.2337 -0.0298 -1.3904
  156SAPE   C3517434   1.252   4.190   9.790 -0.1298  0.2246  0.5339
  156SAPE   H5X17435   1.352   4.153   9.757 -1.0175 -0.8744 -1.0627
  156SAPE   H5Y17436   1.256   4.296   9.821  1.8233  0.4505 -0.3122
  156SAPE   C3617437   1.155   4.174   9.662  0.5360 -0.6652  0.1186
  156SAPE   H6X17438   1.151   4.065   9.641  2.7779 -0.5843 -1.2064
  156SAPE   H6Y17439   1.213   4.219   9.578  1.0951  0.4200  1.0571
  156SAPE   C3717440   1.013   4.224   9.680 -0.3863  0.2277 -0.0437
  156SAPE   H7X17441   1.012   4.293   9.767 -0.4599 -1.6352  1.5028
  156SAPE   H7Y17442   0.961   4.136   9.723  0.5281  1.1292  3.1584
  156SAPE   C3817443   0.942   4.265   9.547 -0.1079  0.1556 -1.2422
  156SAPE   H8X17444   0.834   4.259   9.571  0.1177 -0.2281 -0.2919
  156SAPE   H8Y17445   0.947   4.182   9.473  0.0929  1.7777 -3.1290
  156SAPE   C3917446   0.990   4.396   9.485  0.4339 -0.2888 -0.5835
  156SAPE   H9X17447   1.098   4.380   9.463  0.7114 -1.1679  1.2413
  156SAPE   H9Y17448   0.985   4.474   9.564  1.0587  0.2473 -1.0585
  156SAPE  C31017449   0.923   4.421   9.348 -0.5426 -0.0888  0.6357
  156SAPE  H10X17450   0.825   4.468   9.371 -0.3997  0.3411  0.3812
  156SAPE  H10Y17451   0.916   4.326   9.291  2.1217 -1.0201  1.7216
  156SAPE  C31117452   1.012   4.503   9.259  0.0218 -0.8142 -0.1862
  156SAPE  H11X17453   1.118   4.469   9.259  0.1563 -0.7795  3.8338
  156SAPE  H11Y17454   1.008   4.607   9.297 -1.1684 -0.2242 -1.8002
  156SAPE  C31217455   0.960   4.520   9.122 -0.3499  0.5147 -0.1631
  156SAPE  H12X17456   0.859   4.566   9.133 -0.8278 -0.1330 -1.6039
  156SAPE  H12Y17457   0.947   4.418   9.080 -1.0662  0.9177 -0.9519
  156SAPE  C31317458   1.048   4.602   9.031 -0.3675  0.3105  0.0869
  156SAPE  H13X17459   1.156   4.590   9.056 -0.4949  1.0716  1.0670
  156SAPE  H13Y17460   1.024   4.710   9.042 -1.1903  0.2377 -0.8543
  156SAPE  C31417461   1.032   4.555   8.875 -0.6471  0.4923  0.2955
  156SAPE  H14X17462   0.925   4.566   8.850 -0.3155  0.1508 -1.3754
  156SAPE  H14Y17463   1.072   4.451   8.870 -0.0612  0.6803  0.8576
  156SAPE  C31517464   1.114   4.637   8.773 -0.0328 -0.3384 -0.9438
  156SAPE  H15X17465   1.208   4.659   8.829 -1.7274  1.2893  1.5068
  156SAPE  H15Y17466   1.071   4.739   8.763  0.6090  0.1015  0.4037
  156SAPE  C31617467   1.150   4.557   8.640 -0.3936 -0.5018  0.1177
  156SAPE  H16X17468   1.210   4.470   8.674  3.5866  2.7114  2.0494
  156SAPE  H16Y17469   1.221   4.619   8.581  0.2451  0.3759  1.7705
  156SAPE  C31717470   1.034   4.511   8.550 -0.3829 -0.0779 -0.1895
  156SAPE  H17X17471   0.957   4.591   8.547  0.9432  1.3235  1.6305
  156SAPE  H17Y17472   0.998   4.411   8.582 -1.0292 -0.2152 -1.2984
  156SAPE  C31817473   1.063   4.507   8.395  0.3263 -0.1826  0.4239
  156SAPE  H18X17474   1.148   4.442   8.366  2.0712  2.6391 -1.3392
  156SAPE  H18Y17475   1.108   4.603   8.361  2.1755 -0.5027  1.8395
  156SAPE  H18Z17476   0.978   4.476   8.329  0.4814  4.4016 -2.3819
  157SAPE     N17477   6.336   4.630  10.965 -0.2730  0.4670 -1.2048
  157SAPE   HN117478   6.429   4.600  11.000 -1.2520  0.0245  1.1937
  157SAPE   HN217479   6.284   4.700  11.021 -1.3958  0.5538 -2.3072
  157SAPE   HN317480   6.284   4.540  10.965 -0.0276  0.3239 -1.6261
  157SAPE   C1217481   6.345   4.684  10.829 -0.0952 -0.3576  0.1497
  157SAPE  H12A17482   6.407   4.776  10.834  0.0544 -0.2830 -2.0523
  157SAPE  H12B17483   6.247   4.724  10.795 -0.1037  0.0833  0.6723
  157SAPE   C1117484   6.416   4.580  10.737  0.1726 -0.4800  0.0744
  157SAPE  H11A17485   6.429   4.624  10.635  0.9410  1.5129  0.9711
  157SAPE  H11B17486   6.358   4.486  10.728 -0.3425 -0.2000  0.4164
  157SAPE     P17487   6.687   4.578  10.746 -0.2288  0.0157 -0.2472
  157SAPE   O1317488   6.760   4.649  10.848  0.0433 -0.1574 -0.7730
  157SAPE   O1417489   6.750   4.453  10.695  0.7015 -0.2867  0.1510
  157SAPE   O1217490   6.539   4.546  10.796 -0.0020 -0.4904 -0.0073
  157SAPE   O1117491   6.666   4.679  10.625 -0.1083 -0.5858 -0.3029
  157SAPE    C117492   6.774   4.724  10.551 -0.3072  0.7155  0.1415
  157SAPE    HA17493   6.781   4.835  10.557 -2.3738  0.8515  0.9075
  157SAPE    HB17494   6.874   4.683  10.574 -0.1620  1.5183  1.0200
  157SAPE    C217495   6.742   4.682  10.402  0.6788 -1.0331 -0.2068
  157SAPE    HS17496   6.650   4.737  10.374  0.1100 -1.3382  1.0046
  157SAPE   O2117497   6.738   4.537  10.385 -0.6958 -0.5508 -0.7134
  157SAPE   C2117498   6.621   4.486  10.398 -0.3013 -0.1983  0.1454
  157SAPE   O2217499   6.514   4.547  10.414  0.4757  0.3786  0.3595
  157SAPE   C2217500   6.639   4.338  10.398 -0.4651 -0.3555 -0.5585
  157SAPE   H2R17501   6.716   4.316  10.474  0.0974  1.7457 -0.4716
  157SAPE   H2S17502   6.541   4.299  10.432 -1.2348  0.7002 -1.5076
  157SAPE    C317503   6.854   4.726  10.298  0.8554  0.0581  0.0325
  157SAPE    HX17504   6.923   4.639  10.296 -0.7079 -1.2811  1.1203
  157SAPE    HY17505   6.904   4.816  10.340 -1.6293  0.7558  1.7573
  157SAPE   O3117506   6.792   4.741  10.166  0.1599 -0.5658  0.3837
  157SAPE   C3117507   6.867   4.818  10.086 -0.8233  0.1315 -0.8815
  157SAPE   O3217508   6.975   4.865  10.116  0.2704 -0.1280 -0.6188
  157SAPE   C3217509   6.793   4.839   9.950  0.2358  0.5925 -0.4750
  157SAPE   H2X17510   6.689   4.861   9.982 -0.8005 -3.8410 -0.2017
  157SAPE   H2Y17511   6.780   4.736   9.912 -0.6789  0.4964  0.0711
  157SAPE   C2317512   6.676   4.277  10.257 -0.7783 -0.1174 -0.3595
  157SAPE   H3R17513   6.780   4.306  10.229 -1.2730  1.5905 -0.5192
  157SAPE   H3S17514   6.621   4.330  10.176 -1.9155 -1.5283 -0.5574
  157SAPE   C2417515   6.667   4.122  10.251  0.1110 -0.8545 -0.1910
  157SAPE   H4R17516   6.561   4.089  10.256 -0.1717 -0.2498 -1.6258
  157SAPE   H4S17517   6.717   4.081  10.341  2.4189  1.1305 -0.4606
  157SAPE   C2517518   6.737   4.063  10.130  0.0640  0.2756 -0.2217
  157SAPE   H5R17519   6.792   4.132  10.065 -0.2942  0.8708  0.0906
  157SAPE   C2617520   6.702   3.940  10.092  0.0283  0.5834  0.7586
  157SAPE   H6R17521   6.741   3.895   9.999 -1.3310 -0.3343  0.5981
  157SAPE   C2717522   6.606   3.839  10.148  1.0903 -0.3764 -0.7857
  157SAPE   H7R17523   6.523   3.848  10.075  1.8466  3.4913 -1.3782
  157SAPE   H7S17524   6.572   3.869  10.249 -0.6163 -1.8460 -0.8735
  157SAPE   C2817525   6.665   3.701  10.168 -0.0111 -0.4821 -0.2090
  157SAPE   H8R17526   6.733   3.711  10.253 -1.9852 -0.4593  1.4526
  157SAPE   C2917527   6.639   3.590  10.095 -0.1737 -0.0625 -0.8025
  157SAPE   H9R17528   6.702   3.502  10.116 -0.0280  0.4541  1.0406
  157SAPE  C21017529   6.550   3.578   9.980  0.3848 -0.9773 -0.1873
  157SAPE  H10R17530   6.452   3.619  10.010  1.0397 -0.2583  1.0511
  157SAPE  H10S17531   6.530   3.471   9.956 -4.1397 -0.6644  1.3764
  157SAPE  C21117532   6.608   3.640   9.852 -0.5586  0.0458  0.3834
  157SAPE  H11R17533   6.716   3.630   9.835 -0.1970  4.2523 -0.9818
  157SAPE  C21217534   6.542   3.717   9.767 -0.6802 -0.4689 -1.0451
  157SAPE  H12R17535   6.600   3.748   9.678  3.2376  1.2768  1.8332
  157SAPE  C21317536   6.394   3.741   9.767 -0.5207  0.0738 -0.7013
  157SAPE  H13R17537   6.358   3.781   9.864 -1.3298  0.8143 -1.2912
  157SAPE  H13S17538   6.348   3.640   9.753 -0.4377 -0.2818  1.3268
  157SAPE  C21417539   6.349   3.827   9.654 -0.1653  0.4172 -0.1779
  157SAPE  H14R17540   6.302   3.920   9.687  0.5611  0.0433  2.0821
  157SAPE  C21517541   6.365   3.798   9.517 -0.4589 -0.0599 -0.0018
  157SAPE  H15R17542   6.309   3.864   9.450  0.4288 -0.5838 -1.3051
  157SAPE  C21617543   6.430   3.677   9.454  0.1087 -0.1285  0.2747
  157SAPE  H16R17544   6.359   3.623   9.388  2.1647 -2.3045 -0.2927
  157SAPE  H16S17545   6.455   3.599   9.529 -3.0655 -0.7026  0.8902
  157SAPE  C21717546   6.555   3.710   9.375 -0.0666  0.2370  0.5517
  157SAPE  H17R17547   6.626   3.766   9.441 -1.3520 -0.1246  2.3083
  157SAPE  H17S17548   6.534   3.778   9.290  1.4600 -1.0998 -0.9635
  157SAPE  C21817549   6.625   3.587   9.311  0.5281  0.1519 -0.5494
  157SAPE  H18R17550   6.558   3.542   9.235 -0.3209 -1.2527  0.9702
  157SAPE  H18S17551   6.631   3.510   9.390 -4.3792  2.1394  2.2106
  157SAPE  C21917552   6.756   3.616   9.249 -0.0414  0.0297  1.1168
  157SAPE  H19R17553   6.823   3.528   9.238  0.0921  0.2772 -0.2220
  157SAPE  H19S17554   6.810   3.692   9.309  0.6872  0.2040  0.2647
  157SAPE  C22017555   6.741   3.679   9.106 -0.6345 -0.1979 -0.0963
  157SAPE  H20R17556   6.840   3.709   9.064 -1.3922 -1.5046 -3.0798
  157SAPE  H20S17557   6.675   3.768   9.099 -0.4600 -0.0845 -0.3095
  157SAPE  H20T17558   6.726   3.596   9.034  2.2989 -2.0137  1.1689
  157SAPE   C3317559   6.851   4.951   9.858 -0.0744 -0.2413 -0.0071
  157SAPE   H3X17560   6.946   4.900   9.834 -0.1098 -1.2040  1.7491
  157SAPE   H3Y17561   6.868   5.042   9.919 -1.5924  0.7002 -0.9231
  157SAPE   C3417562   6.780   4.976   9.724  0.2125  0.0935 -0.8282
  157SAPE   H4X17563   6.829   5.069   9.690  1.3393  0.0359  0.5289
  157SAPE   H4Y17564   6.682   5.016   9.758 -0.4684 -2.1700  0.0649
  157SAPE   C3517565   6.790   4.865   9.633 -0.0215 -0.0286  0.4023
  157SAPE   H5X17566   6.735   4.780   9.680 -0.0373 -0.5257 -0.4969
  157SAPE   H5Y17567   6.895   4.830   9.624 -0.1087 -0.4018  0.7852
  157SAPE   C3617568   6.720   4.894   9.500  0.0790 -0.4348 -0.4484
  157SAPE   H6X17569   6.637   4.958   9.536  1.0289  0.6788 -0.1700
  157SAPE   H6Y17570   6.677   4.802   9.457 -0.9469 -0.1893  0.0405
  157SAPE   C3717571   6.807   4.972   9.397 -0.4932 -0.3122 -0.3636
  157SAPE   H7X17572   6.898   4.912   9.378  0.6561  1.3789 -0.3736
  157SAPE   H7Y17573   6.822   5.074   9.437 -1.9797 -1.0565  2.3537
  157SAPE   C3817574   6.740   4.979   9.264 -0.8242  0.0610  0.3485
  157SAPE   H8X17575   6.637   5.016   9.279 -0.7988 -0.0687  0.8549
  157SAPE   H8Y17576   6.739   4.877   9.220  1.3138  0.5642 -1.0161
  157SAPE   C3917577   6.829   5.052   9.154 -0.0504 -0.5092  0.1733
  157SAPE   H9X17578   6.925   5.005   9.125 -0.7052 -0.8521 -1.6045
  157SAPE   H9Y17579   6.852   5.153   9.194 -0.8992  0.5579 -1.8696
  157SAPE  C31017580   6.762   5.067   9.012 -1.0934 -0.5102 -0.3927
  157SAPE  H10X17581   6.698   5.156   9.032 -0.5872 -0.7416  2.8477
  157SAPE  H10Y17582   6.712   4.974   8.979 -0.8625 -0.8633  0.2219
  157SAPE  C31117583   6.871   5.112   8.916  0.5683  0.7307 -0.6427
  157SAPE  H11X17584   6.936   5.022   8.909  1.3781  1.1990  0.6748
  157SAPE  H11Y17585   6.928   5.199   8.954  0.3520 -0.4376  2.7031
  157SAPE  C31217586   6.810   5.133   8.778  0.1452  0.4057 -0.6655
  157SAPE  H12X17587   6.877   5.197   8.716  1.9930  0.8015  1.5941
  157SAPE  H12Y17588   6.720   5.196   8.793  0.3314  0.2025  1.7004
  157SAPE  C31317589   6.768   5.015   8.692  0.1384  0.4255 -0.8293
  157SAPE  H13X17590   6.741   5.054   8.592 -0.0317  0.1542 -0.8910
  157SAPE  H13Y17591   6.671   4.980   8.735  0.5580 -0.1255 -0.3112
  157SAPE  C31417592   6.872   4.910   8.680  0.2981 -0.4416 -0.5233
  157SAPE  H14X17593   6.870   4.843   8.769 -0.8976  0.1725 -0.0640
  157SAPE  H14Y17594   6.972   4.954   8.662 -0.4854  1.7601  0.1553
  157SAPE  C31517595   6.848   4.813   8.564 -0.3628  0.1172  0.1650
  157SAPE  H15X17596   6.866   4.869   8.471 -1.9731  0.0104 -0.2543
  157SAPE  H15Y17597   6.743   4.780   8.548 -0.0228 -0.9981  0.1268
  157SAPE  C31617598   6.930   4.680   8.576  0.0061 -0.5832 -0.4010
  157SAPE  H16X17599   6.930   4.634   8.677 -1.0325  1.1406  0.4305
  157SAPE  H16Y17600   7.035   4.709   8.559 -0.2327  0.3208 -0.4020
  157SAPE  C31717601   6.864   4.572   8.486 -0.5094 -0.0447 -0.1638
  157SAPE  H17X17602   6.902   4.585   8.382  1.6883  2.1363  0.8106
  157SAPE  H17Y17603   6.753   4.562   8.489 -0.6411  0.8871 -1.1861
  157SAPE  C31817604   6.914   4.435   8.530 -0.4035 -0.1277  0.1402
  157SAPE  H18X17605   6.905   4.353   8.455  0.8214  0.4005 -0.6145
  157SAPE  H18Y17606   6.867   4.403   8.626  2.4400  0.2402  1.7769
  157SAPE  H18Z17607   7.023   4.452   8.542 -0.1737 -0.8441 -0.8489
  158SAPE     N17608   1.547   4.676  10.696  0.3052  0.0547  0.3383
  158SAPE   HN117609   1.650   4.665  10.698  0.2965 -0.0809  0.1153
  158SAPE   HN217610   1.526   4.762  10.752 -1.7393 -0.4320  0.4161
  158SAPE   HN317611   1.507   4.602  10.757  0.2565  0.3721  0.6953
  158SAPE   C1217612   1.466   4.698  10.573 -0.1166  0.5807 -0.0063
  158SAPE  H12A17613   1.365   4.657  10.593 -0.6327  2.1934  0.8784
  158SAPE  H12B17614   1.512   4.637  10.493 -0.7513 -0.2572  0.2630
  158SAPE   C1117615   1.457   4.852  10.550 -0.2131 -0.2431  0.1255
  158SAPE  H11A17616   1.374   4.851  10.476 -0.8026 -2.1629  0.7512
  158SAPE  H11B17617   1.554   4.891  10.514 -0.1381 -0.7828 -0.2753
  158SAPE     P17618   1.388   5.073  10.644 -0.1118 -0.0738  0.0164
  158SAPE   O1317619   1.328   5.139  10.764  0.4386  0.4084  0.5081
  158SAPE   O1417620   1.524   5.118  10.602  0.4301  0.5961 -0.0370
  158SAPE   O1217621   1.407   4.920  10.661  0.3301  0.6630  0.8050
  158SAPE   O1117622   1.291   5.083  10.525  0.1982  0.2482 -0.0914
  158SAPE    C117623   1.279   5.203  10.449 -0.0263 -0.6931 -0.3366
  158SAPE    HA17624   1.173   5.236  10.444 -0.0526  0.0611  2.8280
  158SAPE    HB17625   1.332   5.293  10.487 -0.6722 -0.7143  0.6705
  158SAPE    C217626   1.333   5.187  10.305 -0.3863 -1.1793 -0.2186
  158SAPE    HS17627   1.314   5.288  10.261 -1.9153 -2.2582 -2.2023
  158SAPE   O2117628   1.266   5.088  10.220  0.1014 -0.2158  0.0909
  158SAPE   C2117629   1.143   5.125  10.169  0.2993  0.3965 -0.4653
  158SAPE   O2217630   1.086   5.233  10.196  0.8349 -0.2180  0.1319
  158SAPE   C2217631   1.088   5.014  10.086  0.1604 -0.0532  0.0829
  158SAPE   H2R17632   1.176   4.998  10.021  0.8205 -1.6714  1.2916
  158SAPE   H2S17633   1.064   4.927  10.152  0.9372 -1.6832 -1.6872
  158SAPE    C317634   1.492   5.169  10.299 -0.3877  0.9591  0.5711
  158SAPE    HX17635   1.530   5.074  10.342  1.1728  1.1577 -0.3041
  158SAPE    HY17636   1.554   5.243  10.354  0.4257  1.7434 -1.3236
  158SAPE   O3117637   1.536   5.170  10.161 -0.0286  0.3843 -0.1231
  158SAPE   C3117638   1.557   5.289  10.110 -0.3575  0.4496 -0.4513
  158SAPE   O3217639   1.543   5.391  10.179 -0.2018  0.1397  0.0159
  158SAPE   C3217640   1.580   5.282   9.964 -0.0213 -0.0254 -0.5629
  158SAPE   H2X17641   1.481   5.265   9.915  0.3951 -3.9544 -0.3546
  158SAPE   H2Y17642   1.649   5.201   9.932 -1.4916 -1.5644  0.0012
  158SAPE   C2317643   0.963   5.058  10.005 -0.9560 -0.6412 -1.0466
  158SAPE   H3R17644   0.889   5.083  10.084  2.2803  0.4272  1.8750
  158SAPE   H3S17645   0.918   4.972   9.951  0.0046 -2.8435  1.4176
  158SAPE   C2417646   0.981   5.173   9.907 -0.7898  0.3017  0.1559
  158SAPE   H4R17647   1.004   5.264   9.966  2.1095 -0.9827  1.1934
  158SAPE   H4S17648   0.886   5.193   9.854 -0.8773 -1.1313 -0.2869
  158SAPE   C2517649   1.086   5.158   9.802  0.4431 -0.2160 -0.5260
  158SAPE   H5R17650   1.071   5.071   9.736  1.1558 -0.4910 -0.3304
  158SAPE   C2617651   1.188   5.243   9.774  0.4149 -0.1056  0.2051
  158SAPE   H6R17652   1.253   5.216   9.690  2.0847  0.6117  1.2075
  158SAPE   C2717653   1.210   5.378   9.834 -0.5368 -0.3654 -0.0658
  158SAPE   H7R17654   1.311   5.412   9.802  0.6313 -2.1522  1.4509
  158SAPE   H7S17655   1.215   5.371   9.945 -1.1489 -0.1224 -0.0190
  158SAPE   C2817656   1.109   5.476   9.787  0.1315 -0.3079 -0.0157
  158SAPE   H8R17657   1.031   5.500   9.860  0.3136  2.0427 -0.5010
  158SAPE   C2917658   1.112   5.536   9.661 -0.2549  0.1604 -0.7202
  158SAPE   H9R17659   1.034   5.612   9.643 -0.5059  0.0897  0.0035
  158SAPE  C21017660   1.215   5.509   9.550  0.2585 -0.6743  0.3201
  158SAPE  H10R17661   1.300   5.446   9.584  1.2763  0.2006 -0.5232
  158SAPE  H10S17662   1.262   5.605   9.521  0.5277 -0.7627  0.4661
  158SAPE  C21117663   1.158   5.442   9.423  0.5850 -0.3034 -0.3980
  158SAPE  H11R17664   1.066   5.385   9.442 -0.1251  0.6932 -0.7283
  158SAPE  C21217665   1.198   5.456   9.294  0.8677 -0.7724  0.1010
  158SAPE  H12R17666   1.132   5.419   9.213 -1.1005  2.4633  0.0599
  158SAPE  C21317667   1.320   5.522   9.246  0.5180  0.1566  0.1987
  158SAPE  H13R17668   1.377   5.438   9.200 -1.0271 -0.0139 -1.5589
  158SAPE  H13S17669   1.363   5.566   9.338 -2.1006  1.0568  1.0863
  158SAPE  C21417670   1.299   5.634   9.147 -0.0192  0.1599 -0.1749
  158SAPE  H14R17671   1.268   5.730   9.191 -0.6182  0.4119 -1.1126
  158SAPE  C21517672   1.331   5.629   9.017 -0.4248 -0.8918  0.0497
  158SAPE  H15R17673   1.310   5.713   8.950 -0.6896  0.4202  1.7181
  158SAPE  C21617674   1.395   5.516   8.938 -0.0501  0.3470 -0.4822
  158SAPE  H16R17675   1.321   5.444   8.896 -0.4299  1.0397 -1.0378
  158SAPE  H16S17676   1.461   5.469   9.014  0.5450  1.7026 -0.1301
  158SAPE  C21717677   1.494   5.565   8.836 -0.2620 -0.1403 -0.0404
  158SAPE  H17R17678   1.582   5.499   8.821  0.8060  1.7649 -3.0285
  158SAPE  H17S17679   1.538   5.659   8.874 -1.6328  1.0058 -1.1831
  158SAPE  C21817680   1.440   5.560   8.691 -0.2563  0.0221 -0.0234
  158SAPE  H18R17681   1.350   5.626   8.690 -0.3259 -0.0003  1.6354
  158SAPE  H18S17682   1.414   5.454   8.672  1.5775 -0.1706 -1.7161
  158SAPE  C21917683   1.535   5.588   8.576 -0.0889  0.9558  0.0298
  158SAPE  H19R17684   1.499   5.534   8.486  2.9524  0.7156 -1.1810
  158SAPE  H19S17685   1.628   5.534   8.603 -1.8976 -2.1260  0.5554
  158SAPE  C22017686   1.549   5.739   8.538  0.3269  0.7427 -0.6411
  158SAPE  H20R17687   1.640   5.745   8.475 -0.5397 -0.5171 -2.0626
  158SAPE  H20S17688   1.572   5.800   8.628 -1.2290 -1.4939  1.3778
  158SAPE  H20T17689   1.452   5.778   8.499  0.7576  2.6061  0.0474
  158SAPE   C3317690   1.631   5.418   9.913  0.4428 -0.6402 -0.1583
  158SAPE   H3X17691   1.727   5.443   9.963 -1.0610  1.4267  1.9306
  158SAPE   H3Y17692   1.559   5.497   9.945  0.8792 -0.0457 -0.6063
  158SAPE   C3417693   1.644   5.423   9.756  0.1609  0.1169 -0.6650
  158SAPE   H4X17694   1.678   5.523   9.723  0.0508  1.1815  2.1962
  158SAPE   H4Y17695   1.543   5.409   9.711 -0.3806  2.5209 -0.3089
  158SAPE   C3517696   1.752   5.326   9.707  0.1178  0.6638 -0.1179
  158SAPE   H5X17697   1.745   5.230   9.763 -0.2344  0.1338 -1.0396
  158SAPE   H5Y17698   1.846   5.373   9.743  0.2893 -0.3709  0.8331
  158SAPE   C3617699   1.759   5.296   9.560 -0.5456  0.2453 -0.0688
  158SAPE   H6X17700   1.765   5.390   9.501 -1.5328 -0.6929 -1.7617
  158SAPE   H6Y17701   1.667   5.240   9.531 -0.5091  0.3096 -0.3095
  158SAPE   C3717702   1.867   5.195   9.515 -0.4614  0.2344 -0.4758
  158SAPE   H7X17703   1.855   5.164   9.409 -1.6616 -0.6565 -0.0966
  158SAPE   H7Y17704   1.861   5.111   9.587  0.7693 -0.3253 -0.9940
  158SAPE   C3817705   2.012   5.239   9.532 -0.3530  0.0129  0.7272
  158SAPE   H8X17706   2.091   5.162   9.524 -1.2087 -0.8094 -0.0341
  158SAPE   H8Y17707   2.030   5.271   9.637  2.3716 -0.2249  0.3880
  158SAPE   C3917708   2.059   5.354   9.444 -0.1455  0.7797 -0.1440
  158SAPE   H9X17709   2.143   5.409   9.492 -0.9529  0.6225  1.4814
  158SAPE   H9Y17710   1.974   5.424   9.433 -0.4998  0.0713 -2.8629
  158SAPE  C31017711   2.095   5.308   9.303 -0.3622 -0.3154  0.0102
  158SAPE  H10X17712   1.999   5.272   9.260 -0.8113 -1.3135  1.7365
  158SAPE  H10Y17713   2.176   5.233   9.314  1.5857  1.6284 -0.4585
  158SAPE  C31117714   2.152   5.421   9.208 -0.3308 -0.3151 -0.4593
  158SAPE  H11X17715   2.245   5.457   9.257 -0.1754 -1.5491  0.1904
  158SAPE  H11Y17716   2.090   5.512   9.204  0.7962  0.7010  2.4153
  158SAPE  C31217717   2.179   5.374   9.062 -0.1095  0.1583 -0.3524
  158SAPE  H12X17718   2.231   5.276   9.057  0.7232  0.6411 -2.3097
  158SAPE  H12Y17719   2.244   5.449   9.011 -1.0448  1.0776 -0.2194
  158SAPE  C31317720   2.055   5.385   8.973 -0.4273  0.3687 -0.2367
  158SAPE  H13X17721   2.010   5.484   8.997 -0.6914 -0.4266  3.0389
  158SAPE  H13Y17722   1.982   5.308   9.003  0.5684  0.2694  2.1792
  158SAPE  C31417723   2.086   5.369   8.828  0.1818  0.1563  0.4888
  158SAPE  H14X17724   2.129   5.267   8.814  0.2145 -0.2591  3.1509
  158SAPE  H14Y17725   2.169   5.439   8.808  1.7740 -1.3337  1.5633
  158SAPE  C31517726   1.965   5.387   8.739 -0.7133 -0.6515 -0.7526
  158SAPE  H15X17727   1.933   5.491   8.762 -1.5491 -0.8145 -1.1712
  158SAPE  H15Y17728   1.883   5.317   8.765 -1.0525 -0.8336 -2.2032
  158SAPE  C31617729   1.998   5.372   8.584  0.3238  0.3943 -0.1375
  158SAPE  H16X17730   2.023   5.264   8.574  0.2753  0.5205 -2.0218
  158SAPE  H16Y17731   2.081   5.444   8.577  1.2818 -0.6346  0.3628
  158SAPE  C31717732   1.879   5.393   8.493  0.0887  0.3987 -0.1501
  158SAPE  H17X17733   1.808   5.475   8.518  1.0826  1.6220 -1.1920
  158SAPE  H17Y17734   1.822   5.298   8.500 -0.5978  0.8683  0.9671
  158SAPE  C31817735   1.918   5.420   8.348  0.0756  0.1584 -0.1358
  158SAPE  H18X17736   2.006   5.488   8.344  1.9993 -1.9984  2.0797
  158SAPE  H18Y17737   1.825   5.467   8.310 -2.3721 -1.9897  2.7123
  158SAPE  H18Z17738   1.948   5.331   8.289  1.5477  0.2876  0.3760
  159SAPE     N17739   4.231   3.349   6.052  0.0322  0.3937 -0.5226
  159SAPE   HN117740   4.306   3.339   6.123 -0.6910  0.9037  0.3315
  159SAPE   HN217741   4.183   3.260   6.027  1.4440 -0.4745 -0.2485
  159SAPE   HN317742   4.276   3.373   5.961 -2.1328 -1.0296 -2.0681
  159SAPE   C1217743   4.113   3.428   6.088 -0.1300 -0.2195 -0.0022
  159SAPE  H12A17744   4.033   3.423   6.011 -1.6220 -0.1035  1.4917
  159SAPE  H12B17745   4.146   3.534   6.096 -0.3672 -0.2251  1.1287
  159SAPE   C1117746   4.050   3.393   6.229 -0.4762  0.0256  0.7855
  159SAPE  H11A17747   3.988   3.477   6.266 -2.6657 -0.7211 -0.9689
  159SAPE  H11B17748   4.132   3.376   6.302  0.5744  1.6918  0.0528
  159SAPE     P17749   3.825   3.254   6.258  0.2283  0.2153  0.0250
  159SAPE   O1317750   3.759   3.389   6.259 -0.0782 -0.0634  0.5561
  159SAPE   O1417751   3.767   3.139   6.184 -0.0350  0.0393 -0.1181
  159SAPE   O1217752   3.976   3.276   6.206 -0.0888  0.0640 -0.6698
  159SAPE   O1117753   3.831   3.203   6.404 -0.3630  0.7990  0.0101
  159SAPE    C117754   3.948   3.161   6.471 -0.0706 -0.1898  0.0978
  159SAPE    HA17755   3.982   3.066   6.424 -1.7037 -1.0696  0.6034
  159SAPE    HB17756   4.026   3.240   6.466 -1.2575  1.0048  0.0424
  159SAPE    C217757   3.931   3.142   6.620  1.0816 -0.1032 -0.4852
  159SAPE    HS17758   3.847   3.073   6.641  1.5546 -1.4769 -2.7885
  159SAPE   O2117759   3.892   3.272   6.673  0.0996  0.0071  0.1575
  159SAPE   C2117760   3.840   3.280   6.794  0.3726 -0.3255  0.4401
  159SAPE   O2217761   3.773   3.197   6.852  0.6674  0.0704 -0.6533
  159SAPE   C2217762   3.861   3.418   6.848 -1.1310 -0.0066  0.0592
  159SAPE   H2R17763   3.934   3.465   6.779  0.8855 -0.8096  1.5419
  159SAPE   H2S17764   3.769   3.479   6.840 -1.4374 -0.6160 -1.3464
  159SAPE    C317765   4.066   3.094   6.699  0.4937 -0.2522 -0.2461
  159SAPE    HX17766   4.131   3.183   6.685  2.0365 -1.1610  0.8844
  159SAPE    HY17767   4.120   3.008   6.654  0.8772  0.1148 -0.4915
  159SAPE   O3117768   4.042   3.073   6.835 -0.3765  0.1745 -1.0016
  159SAPE   C3117769   3.992   2.950   6.874 -0.5923 -0.4302  0.1916
  159SAPE   O3217770   3.990   2.855   6.798  0.3576  0.4461 -0.0185
  159SAPE   C3217771   3.933   2.955   7.014 -0.0473  1.0034 -0.2057
  159SAPE   H2X17772   3.863   3.041   7.019 -1.5079  0.0350 -2.4476
  159SAPE   H2Y17773   4.024   2.977   7.073  1.7328 -1.8450 -1.6899
  159SAPE   C2317774   3.925   3.415   6.991  0.1602 -0.1022 -0.2517
  159SAPE   H3R17775   4.020   3.358   6.998  0.7301  0.9732  1.5241
  159SAPE   H3S17776   3.851   3.360   7.053  0.4019  1.2461  1.3020
  159SAPE   C2417777   3.954   3.554   7.061  0.7242  0.2835  0.2725
  159SAPE   H4R17778   3.961   3.539   7.171 -0.1963  0.8003  0.4139
  159SAPE   H4S17779   3.866   3.620   7.042  1.4028  1.3033  0.5899
  159SAPE   C2517780   4.077   3.631   7.004 -0.3499  1.0565  0.9165
  159SAPE   H5R17781   4.080   3.638   6.894  2.5090 -1.2773  0.7290
  159SAPE   C2617782   4.184   3.664   7.070 -0.9235 -0.1963 -0.1129
  159SAPE   H6R17783   4.268   3.715   7.020 -1.6670  0.4112 -0.7670
  159SAPE   C2717784   4.203   3.646   7.220 -1.1009 -0.1975  0.1951
  159SAPE   H7R17785   4.116   3.597   7.269 -1.6786  1.0906  0.5066
  159SAPE   H7S17786   4.192   3.752   7.251  1.7207  0.4806 -0.8694
  159SAPE   C2817787   4.346   3.613   7.267  0.0133 -0.0922 -0.8977
  159SAPE   H8R17788   4.427   3.631   7.195  1.9540  1.6825  1.5439
  159SAPE   C2917789   4.383   3.566   7.389  0.0659 -0.4917 -0.5020
  159SAPE   H9R17790   4.485   3.530   7.409  0.0476 -0.5460 -0.5043
  159SAPE  C21017791   4.282   3.536   7.500  0.0970 -0.2576 -0.5749
  159SAPE  H10R17792   4.311   3.436   7.537  3.4488  0.6747 -0.3084
  159SAPE  H10S17793   4.182   3.512   7.457  1.0426 -1.6238 -2.1407
  159SAPE  C21117794   4.260   3.638   7.605 -0.1503 -0.2727 -0.0254
  159SAPE  H11R17795   4.249   3.744   7.575  0.4241 -0.1708  0.0966
  159SAPE  C21217796   4.260   3.608   7.738  0.1637  0.4011  0.5660
  159SAPE  H12R17797   4.240   3.686   7.813 -2.9020 -2.3203  2.8565
  159SAPE  C21317798   4.268   3.479   7.806  0.1208  0.0603 -0.2765
  159SAPE  H13R17799   4.332   3.483   7.897 -2.6531 -0.5656  1.8667
  159SAPE  H13S17800   4.318   3.405   7.740 -1.3382  0.6341 -2.1191
  159SAPE  C21417801   4.133   3.403   7.839  0.0969  0.0496  0.0209
  159SAPE  H14R17802   4.085   3.371   7.745  0.4046  0.5711 -0.3200
  159SAPE  C21517803   4.095   3.341   7.955  0.3149 -0.6604  0.4507
  159SAPE  H15R17804   4.001   3.284   7.963  1.1584 -1.8259  4.0991
  159SAPE  C21617805   4.156   3.337   8.090 -0.3844  0.1310 -0.2411
  159SAPE  H16R17806   4.249   3.398   8.096 -0.8643  0.8539 -0.0540
  159SAPE  H16S17807   4.191   3.233   8.105  2.7066  0.1325 -5.1527
  159SAPE  C21717808   4.075   3.371   8.216  0.4692 -0.3778 -0.3951
  159SAPE  H17R17809   3.974   3.325   8.213 -0.2696  0.9770  1.8005
  159SAPE  H17S17810   4.047   3.479   8.220 -1.7440 -0.7447 -2.8775
  159SAPE  C21817811   4.145   3.327   8.347 -0.4513 -0.2392  0.2651
  159SAPE  H18R17812   4.162   3.218   8.345 -0.6906 -0.2741  0.1322
  159SAPE  H18S17813   4.079   3.360   8.431  0.2406 -1.6226  1.3855
  159SAPE  C21917814   4.280   3.399   8.372  0.3116 -0.7608  0.5321
  159SAPE  H19R17815   4.260   3.508   8.362 -0.9484 -1.0162  0.1049
  159SAPE  H19S17816   4.356   3.377   8.293  1.3001 -2.0626  1.7894
  159SAPE  C22017817   4.351   3.358   8.506 -0.2625  0.3033  1.4988
  159SAPE  H20R17818   4.429   3.435   8.527  0.6160 -1.0515  3.4501
  159SAPE  H20S17819   4.406   3.262   8.497  0.4441  0.8853 -1.8550
  159SAPE  H20T17820   4.286   3.362   8.595  1.3975  1.0063  2.7366
  159SAPE   C3317821   3.858   2.823   7.049  0.3523  0.3397  0.2034
  159SAPE   H3X17822   3.927   2.737   7.034 -1.4374 -1.0529 -0.4279
  159SAPE   H3Y17823   3.781   2.813   6.970 -0.8491 -0.6885  1.4337
  159SAPE   C3417824   3.780   2.812   7.183 -0.0550  0.7356  0.0442
  159SAPE   H4X17825   3.713   2.900   7.189 -0.7130  0.2903 -0.6421
  159SAPE   H4Y17826   3.844   2.814   7.274 -1.6462  1.0617  1.1949
  159SAPE   C3517827   3.687   2.688   7.183  0.3942 -0.8559 -0.1134
  159SAPE   H5X17828   3.747   2.596   7.200  1.7161  0.2389  1.4430
  159SAPE   H5Y17829   3.638   2.697   7.084  1.7699  0.5422 -0.7241
  159SAPE   C3617830   3.582   2.693   7.292  0.4109  0.5106 -0.0068
  159SAPE   H6X17831   3.523   2.599   7.288  0.3953  0.4864  0.7336
  159SAPE   H6Y17832   3.524   2.786   7.277  0.8440  1.1406  1.9908
  159SAPE   C3717833   3.631   2.700   7.436  0.0906 -0.7451  0.0994
  159SAPE   H7X17834   3.687   2.793   7.458  0.3476 -0.5263 -1.3735
  159SAPE   H7Y17835   3.699   2.617   7.463  2.6471  1.6828  1.6102
  159SAPE   C3817836   3.516   2.690   7.535  0.3972  0.6097 -0.2510
  159SAPE   H8X17837   3.482   2.584   7.535  2.3215 -0.0456 -1.1892
  159SAPE   H8Y17838   3.429   2.759   7.530  0.3955  0.8140  1.6016
  159SAPE   C3917839   3.576   2.711   7.680  0.5008 -0.0567 -0.0081
  159SAPE   H9X17840   3.589   2.821   7.687 -1.6867  0.3550 -1.2438
  159SAPE   H9Y17841   3.678   2.667   7.678 -0.4703 -2.4313 -1.0108
  159SAPE  C31017842   3.484   2.647   7.789 -0.8443 -0.0772 -0.9130
  159SAPE  H10X17843   3.487   2.536   7.781  3.9030 -0.2970  0.7707
  159SAPE  H10Y17844   3.380   2.682   7.772 -1.6124 -1.0470  1.4405
  159SAPE  C31117845   3.523   2.683   7.939 -0.1700 -0.5875  0.3416
  159SAPE  H11X17846   3.428   2.693   7.995 -1.5224  0.8927 -2.0370
  159SAPE  H11Y17847   3.554   2.789   7.926 -4.5132  0.6776 -1.7109
  159SAPE  C31217848   3.636   2.589   7.993 -0.5700  0.3691 -0.1987
  159SAPE  H12X17849   3.685   2.642   8.077 -2.0285  2.0788 -0.3663
  159SAPE  H12Y17850   3.710   2.553   7.918 -0.9678  0.7832 -0.8040
  159SAPE  C31317851   3.571   2.467   8.065  0.7681  0.1919  0.0125
  159SAPE  H13X17852   3.648   2.387   8.065  0.3516 -0.2421 -1.3756
  159SAPE  H13Y17853   3.481   2.439   8.007 -1.5125  0.5628  3.1381
  159SAPE  C31417854   3.517   2.489   8.206 -0.0278 -0.5091 -0.2982
  159SAPE  H14X17855   3.419   2.540   8.200 -0.0644 -0.7167 -2.3067
  159SAPE  H14Y17856   3.592   2.550   8.262  1.1723  0.6554 -2.9816
  159SAPE  C31517857   3.504   2.355   8.276 -0.5955  0.9163 -0.1448
  159SAPE  H15X17858   3.599   2.297   8.269  0.2686  1.9211  2.2680
  159SAPE  H15Y17859   3.417   2.303   8.230 -0.1769 -0.7814  0.8675
  159SAPE  C31617860   3.488   2.366   8.425 -0.2081 -0.1992  0.4925
  159SAPE  H16X17861   3.392   2.419   8.446  0.0111 -0.2298  1.6589
  159SAPE  H16Y17862   3.569   2.435   8.457  1.0474 -1.4339  0.0892
  159SAPE  C31717863   3.500   2.235   8.502  1.5164  0.5381 -0.0709
  159SAPE  H17X17864   3.507   2.244   8.612  1.1479 -3.4003  0.4025
  159SAPE  H17Y17865   3.592   2.184   8.466  2.0812 -0.2128  2.2732
  159SAPE  C31817866   3.375   2.144   8.476  0.5025 -0.1214 -0.4173
  159SAPE  H18X17867   3.387   2.050   8.534  0.1749 -0.1264 -0.3540
  159SAPE  H18Y17868   3.364   2.124   8.367 -0.3127 -0.6395 -0.2468
  159SAPE  H18Z17869   3.284   2.191   8.519  0.9929 -0.2922  0.8581
  160SAPE     N17870   2.975   3.867   6.535 -0.0228 -0.2374  0.8474
  160SAPE   HN117871   3.056   3.931   6.549 -0.8543  0.4891  2.5862
  160SAPE   HN217872   2.924   3.874   6.626 -0.2419 -0.2521  0.7248
  160SAPE   HN317873   3.010   3.770   6.517  0.6597 -0.0939  1.3390
  160SAPE   C1217874   2.898   3.915   6.416 -0.0111 -0.1597 -1.0552
  160SAPE  H12A17875   2.789   3.898   6.430 -0.2612  1.8143 -0.3296
  160SAPE  H12B17876   2.922   3.846   6.332 -0.3643 -1.3296 -0.2338
  160SAPE   C1117877   2.927   4.055   6.370 -0.1662  0.9326 -0.3299
  160SAPE  H11A17878   2.923   4.127   6.454  0.0691 -0.6981  1.1176
  160SAPE  H11B17879   2.851   4.083   6.294  0.7133 -0.9667 -2.0223
  160SAPE     P17880   3.180   4.126   6.350 -0.0018 -0.0771 -0.3540
  160SAPE   O1317881   3.302   4.073   6.278 -0.0043 -0.0604 -0.5253
  160SAPE   O1417882   3.166   4.274   6.346 -0.9212  0.3879 -0.2344
  160SAPE   O1217883   3.051   4.057   6.293  0.2173  0.5667 -0.5147
  160SAPE   O1117884   3.172   4.065   6.505 -0.0824 -0.5480  0.1666
  160SAPE    C117885   3.284   4.071   6.598  0.1439  0.4131  0.6058
  160SAPE    HA17886   3.336   4.169   6.596  0.5462  0.2870 -3.2073
  160SAPE    HB17887   3.233   4.069   6.697 -1.3072 -0.7227 -0.1337
  160SAPE    C217888   3.368   3.943   6.586 -0.7717  0.2932 -0.1573
  160SAPE    HS17889   3.388   3.936   6.477 -1.8842  3.4662 -0.6717
  160SAPE   O2117890   3.279   3.832   6.634 -1.1413  0.3182  0.5141
  160SAPE   C2117891   3.323   3.714   6.641 -0.1839 -0.0748  0.1350
  160SAPE   O2217892   3.407   3.665   6.567  0.6949  0.0539  0.1429
  160SAPE   C2217893   3.258   3.646   6.768 -0.4888 -0.6769  0.4920
  160SAPE   H2R17894   3.187   3.713   6.820  1.4451  0.4103  1.8950
  160SAPE   H2S17895   3.198   3.556   6.742  0.2219 -0.8751 -0.5075
  160SAPE    C317896   3.492   3.944   6.673 -0.4431  0.2066  0.2502
  160SAPE    HX17897   3.559   4.029   6.651  0.0027 -0.2686 -0.2719
  160SAPE    HY17898   3.562   3.858   6.656  0.5954  1.0837 -0.0147
  160SAPE   O3117899   3.456   3.936   6.814 -0.0179  0.0764 -0.5951
  160SAPE   C3117900   3.476   4.047   6.895  0.1832 -0.0987 -0.4804
  160SAPE   O3217901   3.516   4.159   6.866  1.0194 -0.3321 -0.3464
  160SAPE   C3217902   3.399   4.010   7.024  0.3497 -0.1033  0.1501
  160SAPE   H2X17903   3.354   3.910   7.009 -0.3846  0.1504  0.6067
  160SAPE   H2Y17904   3.310   4.076   7.029 -0.7099 -0.9290 -3.9829
  160SAPE   C2317905   3.367   3.626   6.879  0.4154  1.0789  0.4939
  160SAPE   H3R17906   3.410   3.725   6.903  1.5651  0.5502  0.7034
  160SAPE   H3S17907   3.443   3.575   6.816  0.5252  0.1625  1.3514
  160SAPE   C2417908   3.320   3.548   7.005  0.4980 -0.1671 -0.5018
  160SAPE   H4R17909   3.284   3.446   6.978 -1.5880  0.6216 -0.9028
  160SAPE   H4S17910   3.228   3.596   7.045 -0.5026 -1.4710 -1.1634
  160SAPE   C2517911   3.416   3.544   7.122  0.3376 -0.2571 -0.5843
  160SAPE   H5R17912   3.415   3.636   7.182  1.3099  0.8124 -2.1378
  160SAPE   C2617913   3.502   3.444   7.157  0.0848 -0.7849 -0.8333
  160SAPE   H6R17914   3.561   3.461   7.248  1.2999 -0.7649 -1.5974
  160SAPE   C2717915   3.538   3.330   7.067 -0.5112 -0.1034 -0.5622
  160SAPE   H7R17916   3.618   3.363   6.998 -1.6311  1.4141 -1.1861
  160SAPE   H7S17917   3.450   3.314   7.001 -0.5928  0.4844 -0.6048
  160SAPE   C2817918   3.585   3.212   7.147 -0.0515  0.5724  0.1744
  160SAPE   H8R17919   3.532   3.118   7.124 -2.0593  1.4255  1.1332
  160SAPE   C2917920   3.682   3.201   7.243 -0.3295  0.0540 -0.3695
  160SAPE   H9R17921   3.688   3.110   7.304 -0.7863  0.7382  0.7316
  160SAPE  C21017922   3.767   3.312   7.290 -0.5825  0.2917  0.8715
  160SAPE  H10R17923   3.757   3.400   7.223 -0.2568  1.4431  2.2704
  160SAPE  H10S17924   3.872   3.291   7.263 -0.2323  1.3391  1.3770
  160SAPE  C21117925   3.764   3.350   7.437  0.4852 -0.5476  0.7417
  160SAPE  H11R17926   3.775   3.271   7.513  1.5937 -0.9417  0.1948
  160SAPE  C21217927   3.747   3.477   7.485  0.4158  0.2546 -0.4596
  160SAPE  H12R17928   3.768   3.493   7.591  0.3438  1.9316 -0.6792
  160SAPE  C21317929   3.747   3.612   7.419 -0.0694 -0.4094 -0.2141
  160SAPE  H13R17930   3.727   3.603   7.310  0.4915  0.8763 -0.4351
  160SAPE  H13S17931   3.845   3.660   7.436 -1.6926  2.1568  3.0933
  160SAPE  C21417932   3.646   3.713   7.480 -0.8080 -0.8638 -0.5992
  160SAPE  H14R17933   3.543   3.687   7.450 -1.1141 -1.3421  0.8149
  160SAPE  C21517934   3.673   3.814   7.559 -0.3585 -0.5050  0.5850
  160SAPE  H15R17935   3.589   3.879   7.587 -1.1856 -0.9803 -0.7366
  160SAPE  C21617936   3.800   3.870   7.616 -0.1590 -0.2231  0.1969
  160SAPE  H16R17937   3.782   3.962   7.676 -1.3776 -0.2248 -0.1345
  160SAPE  H16S17938   3.873   3.871   7.532  0.0931 -2.6016  0.3367
  160SAPE  C21717939   3.885   3.778   7.718  0.1355 -0.4075  0.5270
  160SAPE  H17R17940   3.986   3.819   7.737  1.0515 -2.4849  0.4127
  160SAPE  H17S17941   3.911   3.681   7.671 -0.3026  0.5177 -1.8084
  160SAPE  C21817942   3.814   3.756   7.853  1.1637  1.0711  0.6086
  160SAPE  H18R17943   3.767   3.656   7.858  1.6546  0.8204  0.2928
  160SAPE  H18S17944   3.732   3.830   7.868 -1.5766 -0.8789 -3.0323
  160SAPE  C21917945   3.905   3.761   7.976 -0.8086  0.2411 -0.1622
  160SAPE  H19R17946   3.974   3.848   7.975  0.5741 -0.7823  1.0404
  160SAPE  H19S17947   3.982   3.681   7.974  0.4847  1.2841  2.5184
  160SAPE  C22017948   3.835   3.767   8.107  0.3611  0.5508 -0.5063
  160SAPE  H20R17949   3.824   3.873   8.140 -0.2170 -0.4595  2.8183
  160SAPE  H20S17950   3.902   3.726   8.184 -0.3573  0.1307 -0.0946
  160SAPE  H20T17951   3.733   3.723   8.109  0.8719 -0.6901 -0.9379
  160SAPE   C3317952   3.488   4.008   7.149 -0.4479  0.0674 -0.2839
  160SAPE   H3X17953   3.525   3.905   7.169 -0.9334  0.1031  0.9155
  160SAPE   H3Y17954   3.428   4.032   7.240 -0.7379  0.1657 -0.4990
  160SAPE   C3417955   3.609   4.108   7.154  0.0862  0.4979  0.6315
  160SAPE   H4X17956   3.589   4.210   7.114  0.3722  0.4283  0.3058
  160SAPE   H4Y17957   3.686   4.064   7.087 -0.7821  0.5806 -0.4462
  160SAPE   C3517958   3.667   4.105   7.295  0.1569  0.1106 -0.2544
  160SAPE   H5X17959   3.695   3.998   7.311  2.7669  0.3963 -2.2068
  160SAPE   H5Y17960   3.580   4.134   7.357 -1.0337 -1.0959 -1.3055
  160SAPE   C3617961   3.782   4.204   7.338 -0.7680  0.1853 -0.3245
  160SAPE   H6X17962   3.754   4.308   7.313  1.7099  0.7730 -0.9212
  160SAPE   H6Y17963   3.880   4.185   7.290  0.8824 -0.0187  2.8421
  160SAPE   C3717964   3.804   4.212   7.489 -0.5415 -0.4249 -0.0066
  160SAPE   H7X17965   3.820   4.106   7.517  1.2154  0.1480  1.3467
  160SAPE   H7Y17966   3.710   4.227   7.546  0.5138 -0.6381  1.8741
  160SAPE   C3817967   3.911   4.302   7.544  0.2838 -0.2428  0.5127
  160SAPE   H8X17968   3.907   4.405   7.503 -0.5662 -0.5822 -0.2803
  160SAPE   H8Y17969   4.013   4.261   7.527 -0.3763 -1.3991 -0.8883
  160SAPE   C3917970   3.901   4.335   7.694 -0.5577 -0.1071 -0.0394
  160SAPE   H9X17971   3.803   4.385   7.708 -0.2306  0.2171  1.2187
  160SAPE   H9Y17972   3.978   4.412   7.711  0.2848 -1.2139  1.3733
  160SAPE  C31017973   3.928   4.220   7.795 -0.4125 -0.1633 -0.1493
  160SAPE  H10X17974   4.026   4.168   7.788 -0.0965 -0.0501  2.3242
  160SAPE  H10Y17975   3.848   4.142   7.795 -1.5643  0.9721  0.3912
  160SAPE  C31117976   3.906   4.280   7.931 -0.2082  0.4939 -0.0173
  160SAPE  H11X17977   3.805   4.325   7.927 -0.1188  0.6279 -1.3560
  160SAPE  H11Y17978   3.984   4.356   7.953 -0.4288  0.2695  1.6482
  160SAPE  C31217979   3.903   4.180   8.049 -0.4799  0.0387 -0.4319
  160SAPE  H12X17980   3.996   4.119   8.045 -0.0651  0.5030  1.1678
  160SAPE  H12Y17981   3.822   4.106   8.038 -1.7270  0.8599  2.3691
  160SAPE  C31317982   3.909   4.237   8.194  0.5362 -0.2170  0.1662
  160SAPE  H13X17983   3.818   4.295   8.217  0.7349 -0.8720  2.9481
  160SAPE  H13Y17984   4.000   4.300   8.208 -0.8737  1.6863  1.1693
  160SAPE  C31417985   3.906   4.121   8.303 -0.4320 -0.2494  0.4017
  160SAPE  H14X17986   3.983   4.042   8.289  2.5662  2.7640 -1.6045
  160SAPE  H14Y17987   3.808   4.072   8.289 -0.5647 -0.4167  1.7826
  160SAPE  C31517988   3.924   4.176   8.446 -0.3765  0.2587 -0.0639
  160SAPE  H15X17989   3.877   4.276   8.460  2.4098  1.5009  1.1868
  160SAPE  H15Y17990   4.031   4.179   8.475 -0.7726  0.4842  1.4951
  160SAPE  C31617991   3.851   4.085   8.550 -0.5705  0.9603 -0.0886
  160SAPE  H16X17992   3.906   3.988   8.544 -2.1971 -0.3995  3.8954
  160SAPE  H16Y17993   3.743   4.078   8.524  0.1560 -0.9921 -3.1611
  160SAPE  C31717994   3.855   4.126   8.695  0.6194  0.4059 -0.4115
  160SAPE  H17X17995   3.775   4.195   8.730  1.1272  1.3858 -1.1323
  160SAPE  H17Y17996   3.950   4.178   8.717  0.4869  0.2896  0.4531
  160SAPE  C31817997   3.842   4.007   8.792 -0.3311  0.3269 -0.2229
  160SAPE  H18X17998   3.847   4.038   8.898  1.2110 -0.2418 -0.1005
  160SAPE  H18Y17999   3.932   3.943   8.778 -0.1935  0.3165  0.6390
  160SAPE  H18Z18000   3.741   3.963   8.774 -0.5096  0.8323 -0.4757
  161SAPE     N18001   4.177   2.063   6.127  0.1258 -0.4769 -0.5289
  161SAPE   HN118002   4.152   1.983   6.065 -3.0179  0.9984 -1.3650
  161SAPE   HN218003   4.119   2.140   6.088 -0.5546 -1.8537 -2.3559
  161SAPE   HN318004   4.274   2.090   6.101 -0.3305  0.7477 -1.0389
  161SAPE   C1218005   4.161   2.035   6.270 -0.3118  0.1858  0.0761
  161SAPE  H12A18006   4.234   1.956   6.297 -1.1587 -0.0466  1.7923
  161SAPE  H12B18007   4.061   1.987   6.272  0.0475 -0.5658  2.1852
  161SAPE   C1118008   4.149   2.172   6.347  0.4214  0.4770  0.1354
  161SAPE  H11A18009   4.233   2.241   6.321  1.1648 -0.2592  0.5317
  161SAPE  H11B18010   4.173   2.145   6.452  3.3183 -0.7589 -0.7493
  161SAPE     P18011   3.998   2.374   6.410 -0.0342 -0.1214  0.0717
  161SAPE   O1318012   4.117   2.461   6.396  0.5487  0.9451 -0.5847
  161SAPE   O1418013   3.874   2.420   6.360 -0.4186  0.2086  0.0906
  161SAPE   O1218014   4.021   2.234   6.334 -0.2581 -0.7122 -0.3790
  161SAPE   O1118015   3.991   2.325   6.560 -0.0319  0.2240  0.1992
  161SAPE    C118016   3.867   2.281   6.613 -0.5052 -0.5014  0.6251
  161SAPE    HA18017   3.786   2.356   6.598  0.9779  1.0377 -0.0189
  161SAPE    HB18018   3.831   2.195   6.552 -0.4983 -1.7854  2.3625
  161SAPE    C218019   3.867   2.247   6.765  0.5961 -0.1601 -0.8780
  161SAPE    HS18020   3.772   2.269   6.819  1.5493  1.5276  0.2225
  161SAPE   O2118021   3.966   2.333   6.825  0.1911  0.0609 -0.2360
  161SAPE   C2118022   3.939   2.457   6.850  0.0340 -0.0426 -0.6234
  161SAPE   O2218023   3.826   2.509   6.855 -0.1387  0.2055 -0.4265
  161SAPE   C2218024   4.081   2.520   6.863  0.1593  0.0616 -0.2828
  161SAPE   H2R18025   4.134   2.514   6.765 -0.3854 -0.2405 -0.5631
  161SAPE   H2S18026   4.067   2.628   6.885 -0.7032  0.4793 -2.5440
  161SAPE    C318027   3.891   2.090   6.794  0.3751  0.2110  0.2393
  161SAPE    HX18028   3.992   2.061   6.758  0.8844 -1.2028  2.5927
  161SAPE    HY18029   3.824   2.034   6.725  0.8213  1.2968 -1.1259
  161SAPE   O3118030   3.877   2.055   6.932 -0.6256  0.3505 -0.2313
  161SAPE   C3118031   3.987   2.073   7.004  0.6056 -0.1353 -0.0681
  161SAPE   O3218032   4.097   2.102   6.963 -0.2905 -0.5768  0.2699
  161SAPE   C3218033   3.952   2.016   7.143 -1.2942 -0.2961  0.3358
  161SAPE   H2X18034   4.012   1.923   7.144  1.2348  1.2655  0.1500
  161SAPE   H2Y18035   3.844   1.991   7.150 -1.4118  0.5897  2.4843
  161SAPE   C2318036   4.173   2.458   6.973  0.3399  0.1317  0.0067
  161SAPE   H3R18037   4.268   2.513   6.986 -0.3005  1.1672  0.3866
  161SAPE   H3S18038   4.199   2.351   6.956  1.9930  0.3769  0.8150
  161SAPE   C2418039   4.111   2.470   7.118 -0.0905  0.1683  0.4143
  161SAPE   H4R18040   4.159   2.392   7.180  2.0217  0.1464 -1.1570
  161SAPE   H4S18041   4.005   2.435   7.117  0.6620 -2.3211  1.5181
  161SAPE   C2518042   4.122   2.608   7.177  0.4333  0.6770 -0.4939
  161SAPE   H5R18043   4.125   2.691   7.105  0.5616 -0.8336 -2.3212
  161SAPE   C2618044   4.134   2.640   7.309  0.4753 -0.2466  0.1529
  161SAPE   H6R18045   4.139   2.742   7.351  0.5137 -1.2855  2.9140
  161SAPE   C2718046   4.136   2.536   7.417  0.4463  0.2651 -0.8638
  161SAPE   H7R18047   4.220   2.557   7.487  1.9085  1.2561 -2.8202
  161SAPE   H7S18048   4.161   2.430   7.393  0.2967  0.2635 -1.0098
  161SAPE   C2818049   3.996   2.537   7.479  0.4037  0.2697 -0.3113
  161SAPE   H8R18050   3.912   2.511   7.413  0.8531  2.1728 -1.7151
  161SAPE   C2918051   3.976   2.572   7.606 -0.5102 -0.7825  0.4282
  161SAPE   H9R18052   3.874   2.566   7.646  0.1160 -2.2465  1.9561
  161SAPE  C21018053   4.075   2.637   7.702 -0.0718 -0.2832  0.3861
  161SAPE  H10R18054   4.026   2.728   7.742 -3.5427 -2.5429  1.7733
  161SAPE  H10S18055   4.170   2.666   7.653 -1.5852  2.4042 -1.2230
  161SAPE  C21118056   4.119   2.550   7.819 -0.9756  0.5106  0.5619
  161SAPE  H11R18057   4.173   2.459   7.788 -2.2099 -0.1048  0.1691
  161SAPE  C21218058   4.089   2.563   7.944  0.4379 -0.2190  0.0633
  161SAPE  H12R18059   4.143   2.500   8.016  1.7211  0.6561 -0.1046
  161SAPE  C21318060   4.009   2.671   8.004  0.5176  0.1791  0.4259
  161SAPE  H13R18061   3.945   2.629   8.084 -0.3224 -1.6264 -1.1029
  161SAPE  H13S18062   3.932   2.699   7.929 -0.9291 -1.2448  1.3227
  161SAPE  C21418063   4.094   2.782   8.056 -0.3350 -0.0633 -0.4304
  161SAPE  H14R18064   4.198   2.774   8.020 -0.1881 -0.3802  0.0606
  161SAPE  C21518065   4.051   2.900   8.102 -0.0133  0.1017  0.1402
  161SAPE  H15R18066   4.116   2.977   8.146 -0.2450  1.9726 -2.5407
  161SAPE  C21618067   3.917   2.945   8.138 -0.2367 -0.2558 -0.5060
  161SAPE  H16R18068   3.841   2.877   8.096 -0.4754 -0.0550 -0.4012
  161SAPE  H16S18069   3.894   3.046   8.098  3.4837  0.5960 -0.8939
  161SAPE  C21718070   3.889   2.934   8.293 -1.0305 -0.4514  0.3366
  161SAPE  H17R18071   3.889   2.828   8.327  1.2352  0.3244  3.1389
  161SAPE  H17S18072   3.783   2.961   8.312 -1.1387 -0.2310 -0.5102
  161SAPE  C21818073   3.977   3.021   8.382  0.3748  0.1005 -0.2526
  161SAPE  H18R18074   3.968   3.130   8.360 -2.7836  0.6545  2.8473
  161SAPE  H18S18075   4.084   2.993   8.376 -0.2508 -2.4930 -0.3435
  161SAPE  C21918076   3.943   2.992   8.530 -0.0370  0.0325  0.5844
  161SAPE  H19R18077   4.007   2.904   8.550  1.5363  0.9874 -0.0651
  161SAPE  H19S18078   3.837   2.961   8.542  0.4142 -1.0952  1.9002
  161SAPE  C22018079   3.976   3.100   8.626  0.0254 -0.3973 -0.3951
  161SAPE  H20R18080   3.921   3.194   8.602 -0.4908 -0.3254  0.9811
  161SAPE  H20S18081   4.084   3.115   8.607  0.2867 -1.1563  0.4445
  161SAPE  H20T18082   3.960   3.077   8.733 -0.1128  0.5485 -0.2000
  161SAPE   C3318083   3.992   2.112   7.252 -0.2955 -0.2300 -0.3733
  161SAPE   H3X18084   3.938   2.208   7.238 -3.0803 -2.0828 -4.1127
  161SAPE   H3Y18085   4.102   2.126   7.245 -0.4724  0.7774 -1.4897
  161SAPE   C3418086   3.972   2.052   7.389  0.1366 -0.3420  0.6415
  161SAPE   H4X18087   4.058   1.982   7.398  0.5861 -0.1343 -1.4624
  161SAPE   H4Y18088   3.869   2.011   7.389  0.7138 -1.8956 -0.1947
  161SAPE   C3518089   3.973   2.158   7.501  0.0812 -0.4743  0.1485
  161SAPE   H5X18090   3.916   2.248   7.470  0.4127  0.1465  1.2774
  161SAPE   H5Y18091   4.071   2.211   7.502 -0.5561  0.7185  0.8851
  161SAPE   C3618092   3.933   2.092   7.629  0.1733 -0.5784  0.3192
  161SAPE   H6X18093   4.007   2.010   7.635  1.2986  0.4264  0.4961
  161SAPE   H6Y18094   3.832   2.046   7.631 -0.1421  0.0241 -0.7870
  161SAPE   C3718095   3.958   2.187   7.746 -0.5015  0.0827  0.2308
  161SAPE   H7X18096   3.872   2.257   7.748  0.9816  1.9570  1.7778
  161SAPE   H7Y18097   4.054   2.239   7.728  0.1348 -1.4720 -1.2011
  161SAPE   C3818098   3.978   2.117   7.884  0.4420  0.2583  0.2015
  161SAPE   H8X18099   4.033   2.021   7.868 -2.1578 -1.6297  1.7367
  161SAPE   H8Y18100   3.876   2.083   7.911 -0.1655  2.9013  1.4590
  161SAPE   C3918101   4.034   2.207   7.997  0.3197 -0.4398  0.1684
  161SAPE   H9X18102   4.115   2.272   7.957 -0.3402  0.1983 -0.1476
  161SAPE   H9Y18103   4.078   2.141   8.075  1.1406  0.6915  0.6886
  161SAPE  C31018104   3.926   2.286   8.075  0.2373  0.5539  0.0642
  161SAPE  H10X18105   3.854   2.205   8.098 -0.6394  1.1560 -0.5213
  161SAPE  H10Y18106   3.877   2.363   8.012  0.5802  0.4312 -0.3543
  161SAPE  C31118107   3.986   2.342   8.201 -0.1728  0.3453 -0.1709
  161SAPE  H11X18108   4.082   2.391   8.174 -0.0810  0.1474 -0.2090
  161SAPE  H11Y18109   4.025   2.249   8.250 -0.9068  0.0150 -0.1965
  161SAPE  C31218110   3.884   2.415   8.284 -0.1340 -0.6291 -0.0613
  161SAPE  H12X18111   3.810   2.340   8.321 -1.5330  1.1097  0.8053
  161SAPE  H12Y18112   3.832   2.491   8.221 -1.1660  1.0487  2.6525
  161SAPE  C31318113   3.949   2.475   8.397 -0.1287 -0.4883 -1.1734
  161SAPE  H13X18114   4.020   2.554   8.365  1.6632 -0.8897  1.4593
  161SAPE  H13Y18115   4.013   2.404   8.454 -0.6842 -2.1716 -2.5665
  161SAPE  C31418116   3.850   2.538   8.497  0.5807  0.6082 -0.6153
  161SAPE  H14X18117   3.766   2.468   8.517 -0.6944  1.9985 -0.9270
  161SAPE  H14Y18118   3.809   2.628   8.446  1.9291  0.1329 -2.6270
  161SAPE  C31518119   3.908   2.569   8.633 -0.0065 -0.4092  0.0994
  161SAPE  H15X18120   3.999   2.632   8.617  0.0230 -0.5174 -0.1762
  161SAPE  H15Y18121   3.944   2.470   8.669 -0.3684 -0.1027  1.3347
  161SAPE  C31618122   3.814   2.637   8.733  0.1111  0.4798 -0.0218
  161SAPE  H16X18123   3.722   2.574   8.738 -0.0548  0.6063 -1.1783
  161SAPE  H16Y18124   3.793   2.738   8.692  2.1572  1.4685  1.2036
  161SAPE  C31718125   3.875   2.650   8.873  0.4593  0.5240  0.0541
  161SAPE  H17X18126   3.980   2.682   8.860  1.1267 -0.4032  2.5058
  161SAPE  H17Y18127   3.882   2.550   8.923 -1.6177 -0.6074 -1.7435
  161SAPE  C31818128   3.792   2.746   8.964 -0.3684 -0.2593 -0.2591
  161SAPE  H18X18129   3.821   2.743   9.071  1.6172 -0.3758 -0.7605
  161SAPE  H18Y18130   3.684   2.721   8.971 -0.7051  1.3485  0.6773
  161SAPE  H18Z18131   3.808   2.852   8.936  0.9399 -0.4181 -0.1590
  162SAPE     N18132   2.619   4.748   6.063  0.1131 -0.2787 -0.5663
  162SAPE   HN118133   2.640   4.730   6.163 -1.2705  1.3463  0.0803
  162SAPE   HN218134   2.515   4.748   6.056  0.0519 -0.6546  0.2537
  162SAPE   HN318135   2.664   4.677   6.002  2.8706 -0.0550  1.0469
  162SAPE   C1218136   2.649   4.888   6.028 -0.1251 -0.1369 -0.0669
  162SAPE  H12A18137   2.591   4.952   6.099  0.0356  1.2959 -1.1816
  162SAPE  H12B18138   2.623   4.913   5.923  0.1055  0.8384  0.0969
  162SAPE   C1118139   2.801   4.920   6.040  0.2915 -0.2691  0.7884
  162SAPE  H11A18140   2.859   4.852   5.973 -0.7340  1.4680 -2.0327
  162SAPE  H11B18141   2.849   4.904   6.138  1.6829  0.5565  0.2590
  162SAPE     P18142   2.805   5.189   6.067 -0.5513  0.0625 -0.6204
  162SAPE   O1318143   2.893   5.294   6.003  0.2114  0.6951 -1.1042
  162SAPE   O1418144   2.658   5.229   6.067  0.0550 -0.1490  0.2070
  162SAPE   O1218145   2.828   5.049   5.991 -0.0740 -0.1358  0.5073
  162SAPE   O1118146   2.851   5.173   6.213 -0.4540 -0.0501 -0.3768
  162SAPE    C118147   2.984   5.210   6.250  0.1081  0.3440  0.1216
  162SAPE    HA18148   3.030   5.120   6.297 -0.4045 -0.4057 -0.7822
  162SAPE    HB18149   3.054   5.227   6.166  0.3250  0.9574  0.4196
  162SAPE    C218150   2.993   5.332   6.348  0.3493  0.0309 -0.1042
  162SAPE    HS18151   3.100   5.363   6.355  0.5346  0.2339 -2.9982
  162SAPE   O2118152   2.946   5.285   6.472  0.4728  0.0626  0.5648
  162SAPE   C2118153   3.028   5.213   6.551 -0.0215  0.0981  0.8992
  162SAPE   O2218154   3.145   5.188   6.518 -0.2412 -0.3570 -0.1806
  162SAPE   C2218155   2.958   5.164   6.676  0.1923  0.0424  0.1279
  162SAPE   H2R18156   2.871   5.229   6.699 -2.9240 -3.8086  0.3869
  162SAPE   H2S18157   2.911   5.070   6.640  0.7756  1.1829 -4.1424
  162SAPE    C318158   2.910   5.456   6.306 -0.0953 -0.4263 -0.0631
  162SAPE    HX18159   2.801   5.434   6.303 -0.6229  1.5776  1.7699
  162SAPE    HY18160   2.941   5.476   6.202 -1.1349  1.4199 -0.0655
  162SAPE   O3118161   2.940   5.569   6.394 -0.2234  0.0886 -0.3347
  162SAPE   C3118162   3.033   5.656   6.344  0.0935  0.1754 -0.7525
  162SAPE   O3218163   3.096   5.636   6.248 -0.8159 -0.2822 -0.7315
  162SAPE   C3218164   3.048   5.774   6.433  0.5695  0.2624 -0.2417
  162SAPE   H2X18165   3.124   5.836   6.381  0.2202 -0.0246 -1.1130
  162SAPE   H2Y18166   3.075   5.743   6.537  0.9879 -0.3737 -0.5316
  162SAPE   C2318167   3.044   5.145   6.805  0.5118 -0.4028 -0.2263
  162SAPE   H3R18168   3.071   5.243   6.850  0.6234  0.2348 -1.6286
  162SAPE   H3S18169   3.140   5.098   6.774 -0.0315 -0.9916 -1.0504
  162SAPE   C2418170   2.984   5.051   6.912 -0.3052  0.2313 -0.3344
  162SAPE   H4R18171   3.058   5.040   6.994 -2.8383 -1.1310  1.9300
  162SAPE   H4S18172   2.974   4.949   6.871  0.0965  0.5226 -1.1682
  162SAPE   C2518173   2.847   5.093   6.960 -0.3005  0.7264  0.2536
  162SAPE   H5R18174   2.768   5.068   6.889  1.0255 -2.2531 -0.3162
  162SAPE   C2618175   2.819   5.159   7.069 -0.0797  0.3439  0.0346
  162SAPE   H6R18176   2.712   5.171   7.091  0.0744 -0.6290  1.4829
  162SAPE   C2718177   2.922   5.199   7.173 -0.2485  0.1628  0.9245
  162SAPE   H7R18178   2.924   5.309   7.159 -1.8459  0.1419  0.2639
  162SAPE   H7S18179   3.027   5.179   7.143  0.4036  2.5192  1.4275
  162SAPE   C2818180   2.901   5.168   7.320 -0.0353  0.8375  0.6350
  162SAPE   H8R18181   2.920   5.061   7.334  1.4719  0.7538 -1.5039
  162SAPE   C2918182   2.869   5.242   7.429  0.5303 -0.5876  0.4546
  162SAPE   H9R18183   2.846   5.195   7.526 -1.6183  2.0952  1.3426
  162SAPE  C21018184   2.852   5.396   7.419 -0.4192  0.1559 -0.1064
  162SAPE  H10R18185   2.781   5.436   7.344 -1.0292  1.2647  1.0210
  162SAPE  H10S18186   2.951   5.439   7.390 -0.5355 -0.0350 -0.8112
  162SAPE  C21118187   2.809   5.455   7.551 -0.2475  0.3187 -0.2066
  162SAPE  H11R18188   2.709   5.498   7.561 -0.3594 -0.0518  0.3346
  162SAPE  C21218189   2.885   5.457   7.665  0.2968 -0.3975 -0.1977
  162SAPE  H12R18190   2.839   5.502   7.754 -0.5252 -2.6294  0.5965
  162SAPE  C21318191   3.015   5.385   7.702 -0.1521  0.3019  0.1567
  162SAPE  H13R18192   3.051   5.317   7.622 -2.3788 -1.6554  0.7059
  162SAPE  H13S18193   3.004   5.325   7.795  0.1526  0.0738  0.0472
  162SAPE  C21418194   3.113   5.497   7.736 -0.2007  0.0270  1.0204
  162SAPE  H14R18195   3.149   5.554   7.649 -0.1899 -2.4479 -0.7205
  162SAPE  C21518196   3.131   5.547   7.859 -0.3561 -0.8166  0.9428
  162SAPE  H15R18197   3.210   5.622   7.877  0.2660  0.0451 -3.9895
  162SAPE  C21618198   3.086   5.491   7.985  0.0534 -0.1765 -1.0488
  162SAPE  H16R18199   2.980   5.458   7.974 -0.4809  0.4064  1.5127
  162SAPE  H16S18200   3.082   5.563   8.071  0.8387 -0.2211 -0.9656
  162SAPE  C21718201   3.172   5.369   8.032  0.9109 -0.1918  0.5052
  162SAPE  H17R18202   3.269   5.411   8.066  0.9859 -1.0574  1.4218
  162SAPE  H17S18203   3.195   5.305   7.944  2.8964  1.3078 -0.1509
  162SAPE  C21818204   3.103   5.283   8.140 -0.1989 -0.2429  0.2004
  162SAPE  H18R18205   3.009   5.247   8.092  0.7498  0.1276 -2.0645
  162SAPE  H18S18206   3.086   5.337   8.235 -0.4238 -0.5951  0.3629
  162SAPE  C21918207   3.182   5.153   8.183  0.4968 -0.8714 -0.2217
  162SAPE  H19R18208   3.173   5.078   8.101  0.4163  2.7854 -3.9125
  162SAPE  H19S18209   3.143   5.111   8.278 -0.6188 -0.6698 -0.5715
  162SAPE  C22018210   3.336   5.175   8.201  0.0159 -0.0475 -0.2597
  162SAPE  H20R18211   3.389   5.188   8.104  0.6111 -1.1890 -0.1017
  162SAPE  H20S18212   3.386   5.088   8.247 -0.2085 -0.0621 -0.0435
  162SAPE  H20T18213   3.358   5.266   8.261 -0.8106 -0.5666  0.8721
  162SAPE   C3318214   2.914   5.850   6.440  0.2930 -0.0478  0.0151
  162SAPE   H3X18215   2.838   5.782   6.486  0.7362 -2.4703 -2.5839
  162SAPE   H3Y18216   2.874   5.878   6.341 -1.2841  1.4262  1.0141
  162SAPE   C3418217   2.908   5.978   6.520  0.2948  0.0049 -1.0014
  162SAPE   H4X18218   2.801   6.002   6.532  0.2991 -0.0979 -0.7355
  162SAPE   H4Y18219   2.961   6.060   6.467 -1.9413  1.4325 -1.1292
  162SAPE   C3518220   2.981   5.969   6.663  0.3257 -0.1201  0.4564
  162SAPE   H5X18221   3.087   5.951   6.639  0.3248 -0.9440  1.0335
  162SAPE   H5Y18222   2.954   5.882   6.727  1.3209 -0.2553  0.6961
  162SAPE   C3618223   2.994   6.103   6.738 -0.3023 -0.0384  0.5254
  162SAPE   H6X18224   2.901   6.129   6.793  0.3107 -0.7254  1.9408
  162SAPE   H6Y18225   3.017   6.169   6.651 -2.5846 -0.8440 -0.7691
  162SAPE   C3718226   3.105   6.088   6.835 -0.1545  0.3418 -0.6204
  162SAPE   H7X18227   3.202   6.069   6.784  0.2869  0.0176  0.3177
  162SAPE   H7Y18228   3.089   6.003   6.904 -0.0563  0.1313 -0.8530
  162SAPE   C3818229   3.113   6.212   6.923 -0.3845 -0.1461 -0.8479
  162SAPE   H8X18230   3.018   6.237   6.975 -0.1960  2.2675 -1.5227
  162SAPE   H8Y18231   3.137   6.301   6.862 -0.4912  0.2240 -0.3576
  162SAPE   C3918232   3.223   6.203   7.037 -0.2473 -0.4051  0.1305
  162SAPE   H9X18233   3.316   6.167   6.988 -0.3757 -1.7276  0.8395
  162SAPE   H9Y18234   3.196   6.122   7.108 -1.3011  0.8457  1.2051
  162SAPE  C31018235   3.261   6.338   7.100 -0.9863 -0.6563 -0.1915
  162SAPE  H10X18236   3.182   6.394   7.155  0.1736 -0.0174  0.8612
  162SAPE  H10Y18237   3.315   6.402   7.027  1.0695 -0.8714  1.0814
  162SAPE  C31118238   3.363   6.318   7.212  0.7275 -0.8532  1.0922
  162SAPE  H11X18239   3.400   6.415   7.251  1.3065 -0.5626 -0.1336
  162SAPE  H11Y18240   3.455   6.262   7.185  1.9947  1.5186  0.2586
  162SAPE  C31218241   3.303   6.246   7.335  0.3796 -1.0696 -0.2246
  162SAPE  H12X18242   3.283   6.142   7.302  0.9514 -1.5487  0.9113
  162SAPE  H12Y18243   3.203   6.291   7.354 -0.0210  0.2199 -4.4230
  162SAPE  C31318244   3.388   6.247   7.462 -0.3745  0.5543  0.1963
  162SAPE  H13X18245   3.430   6.343   7.499 -0.5333  0.0557  1.7806
  162SAPE  H13Y18246   3.475   6.183   7.435  0.0599  1.3392 -0.2943
  162SAPE  C31418247   3.320   6.168   7.573  0.2074  0.5219 -0.0242
  162SAPE  H14X18248   3.290   6.068   7.535  0.7490 -0.8529  2.8970
  162SAPE  H14Y18249   3.225   6.216   7.605 -0.3407 -0.9923  0.7109
  162SAPE  C31518250   3.408   6.153   7.691  0.0231  0.4751  0.0055
  162SAPE  H15X18251   3.414   6.257   7.730 -0.0336  0.9886 -1.3046
  162SAPE  H15Y18252   3.511   6.127   7.658 -0.4181  0.8749 -1.7626
  162SAPE  C31618253   3.349   6.064   7.802 -0.2235  0.2899 -0.6536
  162SAPE  H16X18254   3.332   5.963   7.757  1.3525  1.0166 -3.0741
  162SAPE  H16Y18255   3.252   6.102   7.840 -0.1184  2.4797 -2.3801
  162SAPE  C31718256   3.452   6.053   7.921  0.7650 -0.1694 -0.4733
  162SAPE  H17X18257   3.465   6.162   7.940  1.4148 -0.2036 -0.6747
  162SAPE  H17Y18258   3.553   6.014   7.897  1.0709 -0.1199  0.6854
  162SAPE  C31818259   3.393   5.995   8.051  0.8000  0.6337 -0.0569
  162SAPE  H18X18260   3.310   6.058   8.092  0.9952 -1.1477  3.3695
  162SAPE  H18Y18261   3.470   5.985   8.129 -0.4908  1.6740  1.4194
  162SAPE  H18Z18262   3.351   5.894   8.034 -0.4982  1.2172 -0.5450
  163SAPE     N18263   2.498   2.952   6.018 -0.2543  0.2474 -0.3104
  163SAPE   HN118264   2.591   2.912   5.995 -1.0318 -1.8255 -0.1004
  163SAPE   HN218265   2.434   2.880   6.057  1.1567 -1.5440 -1.1052
  163SAPE   HN318266   2.455   2.984   5.928 -1.1920 -0.8574 -0.2688
  163SAPE   C1218267   2.520   3.071   6.117 -0.1742  0.3849 -0.0164
  163SAPE  H12A18268   2.574   3.143   6.051  0.4806 -0.7222 -0.7199
  163SAPE  H12B18269   2.582   3.047   6.205 -1.4473 -0.3755  0.7123
  163SAPE   C1118270   2.386   3.130   6.160 -0.2370 -0.5244  0.2832
  163SAPE  H11A18271   2.324   3.054   6.213 -1.1247 -1.5531 -2.0628
  163SAPE  H11B18272   2.321   3.170   6.079 -0.4932  1.1889  1.3024
  163SAPE     P18273   2.460   3.366   6.213  0.2404 -0.1259  0.4594
  163SAPE   O1318274   2.597   3.347   6.158  0.1590 -0.1553 -0.9212
  163SAPE   O1418275   2.364   3.435   6.119 -0.0931 -0.4310  0.1570
  163SAPE   O1218276   2.415   3.229   6.262  0.4893  0.0966  0.2359
  163SAPE   O1118277   2.455   3.453   6.350  0.1549 -0.6829  0.2079
  163SAPE    C118278   2.517   3.401   6.464  0.2773 -0.2983  0.0436
  163SAPE    HA18279   2.534   3.292   6.452  3.0839 -0.0987  1.2526
  163SAPE    HB18280   2.620   3.440   6.482  0.7001 -1.9962  1.6116
  163SAPE    C218281   2.437   3.429   6.595  0.5787  0.0689 -0.9575
  163SAPE    HS18282   2.495   3.385   6.679  0.9367 -1.4177 -1.9524
  163SAPE   O2118283   2.296   3.380   6.602 -0.4809  0.3813  0.5044
  163SAPE   C2118284   2.284   3.251   6.615 -0.5790 -0.6813 -0.2142
  163SAPE   O2218285   2.373   3.178   6.653  0.1315  0.0275  0.0572
  163SAPE   C2218286   2.150   3.210   6.560 -0.1759 -0.8574 -0.0584
  163SAPE   H2R18287   2.073   3.287   6.583  1.5567  0.6043  1.1408
  163SAPE   H2S18288   2.148   3.203   6.450 -3.9064 -0.9411 -0.1051
  163SAPE    C318289   2.440   3.583   6.633 -0.0420  0.8497  0.2152
  163SAPE    HX18290   2.362   3.625   6.567  2.1797  0.6481 -2.7044
  163SAPE    HY18291   2.542   3.611   6.598 -0.7711  0.4761 -2.4027
  163SAPE   O3118292   2.426   3.595   6.775  0.6487 -0.3025 -0.3747
  163SAPE   C3118293   2.477   3.708   6.824 -0.2588 -0.0083  0.3634
  163SAPE   O3218294   2.547   3.788   6.764  0.3200  0.0852  0.0667
  163SAPE   C3218295   2.434   3.722   6.971 -0.3172 -0.0680 -0.2430
  163SAPE   H2X18296   2.407   3.620   7.005 -0.5152 -1.0304 -2.9973
  163SAPE   H2Y18297   2.350   3.794   6.962  0.0869  0.2468 -1.8527
  163SAPE   C2318298   2.110   3.073   6.610  0.7421 -0.2175  0.5189
  163SAPE   H3R18299   2.193   3.006   6.579 -1.3397 -2.4764 -0.4722
  163SAPE   H3S18300   2.020   3.049   6.550  2.0266  1.2747 -2.2112
  163SAPE   C2418301   2.083   3.073   6.766 -0.0738  0.9566  0.8601
  163SAPE   H4R18302   2.010   3.149   6.800 -0.2503  1.5741 -0.8264
  163SAPE   H4S18303   2.175   3.090   6.827  0.1917 -2.0350  1.4730
  163SAPE   C2518304   2.012   2.943   6.800 -0.4487 -0.1265 -0.6606
  163SAPE   H5R18305   1.904   2.940   6.776 -0.9311 -0.4567  1.4060
  163SAPE   C2618306   2.065   2.833   6.850 -0.0298  0.2213 -0.2541
  163SAPE   H6R18307   1.997   2.755   6.888 -1.9074  1.6493 -0.5050
  163SAPE   C2718308   2.207   2.799   6.888  0.0226  0.7057  0.6713
  163SAPE   H7R18309   2.274   2.886   6.871  2.2512 -1.5012 -3.0547
  163SAPE   H7S18310   2.251   2.723   6.821 -0.7632 -0.6777  1.6700
  163SAPE   C2818311   2.216   2.738   7.025 -0.1417 -0.3398 -1.2294
  163SAPE   H8R18312   2.212   2.628   7.018  0.0500 -0.3024 -2.0968
  163SAPE   C2918313   2.223   2.792   7.150  0.5433 -0.1471 -0.2513
  163SAPE   H9R18314   2.233   2.728   7.239  2.1310 -0.3088 -0.5197
  163SAPE  C21018315   2.251   2.939   7.177 -0.1650 -0.5967 -0.4551
  163SAPE  H10R18316   2.226   3.005   7.091 -0.1064 -0.7592 -0.5961
  163SAPE  H10S18317   2.356   2.963   7.204 -1.0521  0.6673  2.3065
  163SAPE  C21118318   2.164   2.992   7.292  0.4860  0.5118 -0.2722
  163SAPE  H11R18319   2.072   3.051   7.275 -0.3999 -1.2816 -1.9730
  163SAPE  C21218320   2.191   2.969   7.423 -0.7752 -0.1106 -0.3310
  163SAPE  H12R18321   2.121   2.996   7.503  0.1566 -1.5808  1.0328
  163SAPE  C21318322   2.308   2.897   7.485  0.2922  0.1161 -0.4338
  163SAPE  H13R18323   2.331   2.803   7.429 -4.0409 -0.8068 -1.0554
  163SAPE  H13S18324   2.281   2.861   7.587 -1.0728  2.6373  0.1768
  163SAPE  C21418325   2.421   2.998   7.497 -0.0658  1.0194  0.1234
  163SAPE  H14R18326   2.470   3.027   7.403  0.6935  2.6345  0.9722
  163SAPE  C21518327   2.454   3.080   7.592  0.3674 -0.5646 -0.8062
  163SAPE  H15R18328   2.550   3.132   7.578  0.0757  0.7436  1.4149
  163SAPE  C21618329   2.394   3.097   7.731 -0.5700  0.5957  0.0742
  163SAPE  H16R18330   2.295   3.045   7.734 -0.1361 -0.2579  0.0624
  163SAPE  H16S18331   2.363   3.202   7.746 -1.1134  0.2676  1.5065
  163SAPE  C21718332   2.481   3.064   7.851  0.2923 -0.0640 -0.0786
  163SAPE  H17R18333   2.516   2.959   7.847 -1.8633 -0.9607  2.0008
  163SAPE  H17S18334   2.406   3.065   7.933  0.8598  0.4061  0.4474
  163SAPE  C21818335   2.605   3.157   7.870  0.6586 -0.4268 -0.0552
  163SAPE  H18R18336   2.588   3.258   7.826  1.1354  1.0541  2.8733
  163SAPE  H18S18337   2.692   3.114   7.817  0.5198  1.1281 -1.6426
  163SAPE  C21918338   2.648   3.168   8.020 -0.1854  0.2161 -0.1264
  163SAPE  H19R18339   2.758   3.182   8.014  0.0770 -2.0266 -1.6903
  163SAPE  H19S18340   2.625   3.068   8.061 -1.9167 -0.5602 -2.6903
  163SAPE  C22018341   2.570   3.274   8.102 -0.0715  1.0316 -0.4955
  163SAPE  H20R18342   2.561   3.371   8.048  1.1113  0.4720 -1.7579
  163SAPE  H20S18343   2.610   3.293   8.204 -1.9009  2.3253  0.0286
  163SAPE  H20T18344   2.467   3.233   8.110  1.1910 -2.1352  1.2442
  163SAPE   C3318345   2.540   3.779   7.057  0.4983 -0.2195 -0.1943
  163SAPE   H3X18346   2.561   3.885   7.035  0.8468 -0.7916 -2.9024
  163SAPE   H3Y18347   2.633   3.718   7.052 -0.0800 -1.5712  2.8691
  163SAPE   C3418348   2.503   3.775   7.208  0.5940  0.2715 -0.3858
  163SAPE   H4X18349   2.453   3.678   7.229 -1.3071  1.5405  1.2694
  163SAPE   H4Y18350   2.418   3.846   7.214 -1.2647 -1.9341  0.9587
  163SAPE   C3518351   2.619   3.809   7.305  0.2881  0.0252  0.5636
  163SAPE   H5X18352   2.678   3.883   7.247 -1.0031  1.4684  1.0467
  163SAPE   H5Y18353   2.684   3.721   7.322  0.5419 -0.0444 -0.6936
  163SAPE   C3618354   2.570   3.873   7.432  0.3353 -0.2101  0.2335
  163SAPE   H6X18355   2.522   3.789   7.486  2.6256 -2.3819 -0.9117
  163SAPE   H6Y18356   2.503   3.953   7.392 -0.6179 -1.4197 -0.6684
  163SAPE   C3718357   2.679   3.928   7.521  0.5620  0.2759 -0.0254
  163SAPE   H7X18358   2.711   4.023   7.474 -3.9973  1.0530 -2.1213
  163SAPE   H7Y18359   2.767   3.860   7.525  1.3503  1.3183  2.0522
  163SAPE   C3818360   2.627   3.974   7.659 -0.0591  0.5623 -0.0705
  163SAPE   H8X18361   2.605   3.884   7.720 -1.3343 -0.5740 -2.0911
  163SAPE   H8Y18362   2.528   4.025   7.650 -0.1260  0.4401 -0.0306
  163SAPE   C3918363   2.718   4.077   7.734 -0.1632 -0.3430 -0.5260
  163SAPE   H9X18364   2.678   4.092   7.837 -3.1515 -0.1337 -1.6364
  163SAPE   H9Y18365   2.723   4.167   7.669 -0.7679 -0.4503 -0.7239
  163SAPE  C31018366   2.867   4.034   7.754 -0.4372 -0.3113 -0.4499
  163SAPE  H10X18367   2.905   3.999   7.655 -0.7838  0.3555 -0.8221
  163SAPE  H10Y18368   2.870   3.948   7.824  1.9261 -0.1261 -0.2383
  163SAPE  C31118369   2.948   4.158   7.810 -0.0033 -0.5752  0.2134
  163SAPE  H11X18370   2.903   4.194   7.905  0.4540 -0.7357  0.4941
  163SAPE  H11Y18371   2.958   4.233   7.729 -0.4081 -1.2725 -0.5005
  163SAPE  C31218372   3.094   4.114   7.842 -0.1318 -0.5580  0.7047
  163SAPE  H12X18373   3.153   4.089   7.751 -1.6113 -2.9680  0.3156
  163SAPE  H12Y18374   3.088   4.016   7.893  0.1917 -1.0641 -0.2059
  163SAPE  C31318375   3.158   4.217   7.931  1.0791  0.4495  0.6780
  163SAPE  H13X18376   3.243   4.191   7.997  2.5817  0.0831 -1.3151
  163SAPE  H13Y18377   3.082   4.247   8.007  2.7794  0.0112  2.6321
  163SAPE  C31418378   3.174   4.361   7.873  0.3562  0.8603  0.4329
  163SAPE  H14X18379   3.098   4.357   7.793 -0.0328 -4.9988  0.6220
  163SAPE  H14Y18380   3.273   4.373   7.825 -1.0185  0.1042 -2.8269
  163SAPE  C31518381   3.156   4.472   7.977 -0.1225 -0.2463 -0.3072
  163SAPE  H15X18382   3.216   4.446   8.068 -0.2475  1.0690  0.1742
  163SAPE  H15Y18383   3.051   4.479   8.011 -0.7364 -0.3847 -2.0914
  163SAPE  C31618384   3.212   4.602   7.918 -0.4246 -0.1791 -0.4736
  163SAPE  H16X18385   3.171   4.628   7.818  1.5160 -0.0981 -1.2755
  163SAPE  H16Y18386   3.321   4.590   7.905 -0.6587 -1.9240 -1.1460
  163SAPE  C31718387   3.180   4.727   8.012 -0.1087 -0.4894 -0.0915
  163SAPE  H17X18388   3.069   4.720   8.022 -0.1080  0.2754  0.5883
  163SAPE  H17Y18389   3.211   4.817   7.954 -1.5686  1.0436  1.3466
  163SAPE  C31818390   3.245   4.722   8.154  0.6273  0.0503 -0.2352
  163SAPE  H18X18391   3.213   4.811   8.213 -0.6584 -0.5988  0.0998
  163SAPE  H18Y18392   3.355   4.715   8.141  0.6507  0.7010 -0.4309
  163SAPE  H18Z18393   3.200   4.633   8.203  0.1068  0.0814 -0.6417
  164SAPE     N18394   2.661   1.327   6.515  0.3239 -0.0675 -0.1175
  164SAPE   HN118395   2.750   1.372   6.546  0.9793 -1.7929  0.6289
  164SAPE   HN218396   2.606   1.388   6.451 -2.2603 -1.4353  0.6469
  164SAPE   HN318397   2.606   1.334   6.603 -0.2553 -0.0279 -0.4829
  164SAPE   C1218398   2.667   1.188   6.466 -0.5312 -0.2622 -0.7638
  164SAPE  H12A18399   2.698   1.179   6.360  2.5035 -0.2296  0.0251
  164SAPE  H12B18400   2.564   1.147   6.471 -0.9082  0.5863 -1.3896
  164SAPE   C1118401   2.778   1.110   6.546 -0.5465 -0.3830  0.1713
  164SAPE  H11A18402   2.762   1.004   6.518  0.2106 -0.8537  1.4429
  164SAPE  H11B18403   2.759   1.117   6.655 -2.9473  1.8847 -0.3042
  164SAPE     P18404   3.036   1.103   6.545  0.0930 -0.9219 -0.3745
  164SAPE   O1318405   3.032   0.955   6.545 -0.1799 -0.1439  0.6182
  164SAPE   O1418406   3.127   1.175   6.459  0.5979  0.1729  0.2475
  164SAPE   O1218407   2.901   1.155   6.499 -0.6181  0.2059  0.2665
  164SAPE   O1118408   3.050   1.155   6.692  0.3435  0.4752  0.1322
  164SAPE    C118409   2.981   1.275   6.743 -0.2655  0.0867  0.1740
  164SAPE    HA18410   3.055   1.358   6.746  0.2664 -0.3209 -1.0314
  164SAPE    HB18411   2.899   1.316   6.680 -2.3540 -0.5969  2.3185
  164SAPE    C218412   2.931   1.245   6.886 -0.1376  0.5963  0.5286
  164SAPE    HS18413   2.854   1.165   6.881  0.4383  0.0579  0.1573
  164SAPE   O2118414   2.877   1.365   6.938  0.3807  0.3640  0.2686
  164SAPE   C2118415   2.762   1.401   6.886 -0.2589  0.3937  0.2955
  164SAPE   O2218416   2.703   1.341   6.797 -0.4731 -0.6841 -0.9625
  164SAPE   C2218417   2.727   1.540   6.945  0.1307  0.4264  0.0396
  164SAPE   H2R18418   2.769   1.545   7.048 -0.8202 -1.1659  0.5373
  164SAPE   H2S18419   2.776   1.614   6.878  2.1573 -0.1046  0.8343
  164SAPE    C318420   3.042   1.194   6.974 -0.2236 -0.3408  0.3518
  164SAPE    HX18421   3.120   1.272   6.985 -1.0305  0.3419  1.3948
  164SAPE    HY18422   3.077   1.101   6.925 -3.3769 -1.3889 -0.1235
  164SAPE   O3118423   2.996   1.167   7.107  0.1783  0.2573 -0.3952
  164SAPE   C3118424   2.927   1.054   7.120 -0.9956 -0.7943  0.4970
  164SAPE   O3218425   2.907   0.972   7.033  0.7455 -0.3449  0.6548
  164SAPE   C3218426   2.870   1.046   7.266 -0.3106 -0.1944  1.1745
  164SAPE   H2X18427   2.773   1.098   7.253 -0.2873 -0.2178  0.9060
  164SAPE   H2Y18428   2.945   1.097   7.331  0.7695 -1.2256  0.7783
  164SAPE   C2318429   2.574   1.572   6.949 -0.0836  0.2147 -0.4895
  164SAPE   H3R18430   2.519   1.506   7.019  0.1058 -0.9627 -1.4126
  164SAPE   H3S18431   2.525   1.557   6.851 -1.2774 -1.4097  0.3220
  164SAPE   C2418432   2.554   1.719   6.995 -0.3354 -0.6182 -0.6449
  164SAPE   H4R18433   2.629   1.779   6.939  1.4668 -1.4719  0.7715
  164SAPE   H4S18434   2.596   1.736   7.096 -1.4394  3.0684 -0.6435
  164SAPE   C2518435   2.417   1.781   6.988  0.4630  0.3028  0.2012
  164SAPE   H5R18436   2.381   1.802   6.886  2.6308  1.7760 -0.3450
  164SAPE   C2618437   2.335   1.812   7.096 -0.0236 -0.0698  0.5603
  164SAPE   H6R18438   2.232   1.848   7.080  0.7045  1.5804 -0.7841
  164SAPE   C2718439   2.369   1.805   7.244 -0.2145 -0.6820 -0.2124
  164SAPE   H7R18440   2.471   1.849   7.256 -0.4433 -0.1841 -0.0645
  164SAPE   H7S18441   2.376   1.698   7.271 -0.0603 -0.9345 -1.1856
  164SAPE   C2818442   2.269   1.884   7.325  0.3424 -0.6082  0.1891
  164SAPE   H8R18443   2.193   1.942   7.272  1.7622 -0.3706 -1.6991
  164SAPE   C2918444   2.268   1.875   7.458 -0.0684 -0.3915 -0.9253
  164SAPE   H9R18445   2.194   1.927   7.520 -0.7479 -0.8057 -1.3663
  164SAPE  C21018446   2.379   1.799   7.537  0.4000  0.7101  0.0256
  164SAPE  H10R18447   2.480   1.842   7.524  1.1458 -1.5054 -2.1425
  164SAPE  H10S18448   2.385   1.700   7.486 -1.6756  0.0936  0.8614
  164SAPE  C21118449   2.351   1.765   7.677 -0.1151 -0.5954 -0.7322
  164SAPE  H11R18450   2.352   1.658   7.702  1.2215 -0.1837  1.1830
  164SAPE  C21218451   2.337   1.841   7.783  0.1465 -0.6792  0.0058
  164SAPE  H12R18452   2.301   1.805   7.880  0.4909  0.4026  0.5545
  164SAPE  C21318453   2.330   1.992   7.773  0.0208 -0.4538 -0.2095
  164SAPE  H13R18454   2.225   2.025   7.763 -0.2733 -1.5580 -0.9779
  164SAPE  H13S18455   2.389   2.041   7.692  1.2205  0.0647  0.9364
  164SAPE  C21418456   2.376   2.057   7.906 -0.9292 -0.1085 -0.2813
  164SAPE  H14R18457   2.481   2.090   7.902 -0.4043 -1.7716 -1.6319
  164SAPE  C21518458   2.303   2.091   8.017  0.6628  0.2379 -0.1706
  164SAPE  H15R18459   2.349   2.153   8.096 -1.1364  0.0680  1.0750
  164SAPE  C21618460   2.156   2.087   8.057 -0.6174  0.2298 -0.2166
  164SAPE  H16R18461   2.097   2.038   7.976  2.7879  0.6057 -3.1554
  164SAPE  H16S18462   2.117   2.188   8.079 -0.1066  0.7807 -1.7050
  164SAPE  C21718463   2.155   2.003   8.193  0.0615 -0.2863 -0.1605
  164SAPE  H17R18464   2.213   2.054   8.272  0.9891  0.4400 -1.2772
  164SAPE  H17S18465   2.200   1.903   8.171 -0.9882 -0.3176 -2.3560
  164SAPE  C21818466   2.011   1.986   8.242  0.5526  0.0107  0.7058
  164SAPE  H18R18467   1.965   1.916   8.168  0.4189  0.7024  0.1244
  164SAPE  H18S18468   1.948   2.076   8.223 -0.3875 -0.8463 -0.4426
  164SAPE  C21918469   1.989   1.940   8.391 -0.0901 -0.5270 -0.8376
  164SAPE  H19R18470   2.026   2.021   8.457  1.0547 -2.2756  0.7548
  164SAPE  H19S18471   2.050   1.847   8.394  1.3618  0.3473 -1.6732
  164SAPE  C22018472   1.841   1.891   8.432 -0.2403 -0.6735  0.4222
  164SAPE  H20R18473   1.770   1.976   8.426  0.4085 -0.2113 -1.6494
  164SAPE  H20S18474   1.834   1.840   8.530  0.0038  1.4426  1.6132
  164SAPE  H20T18475   1.815   1.818   8.353 -0.8975  1.4820 -1.4623
  164SAPE   C3318476   2.854   0.907   7.325  0.0603 -0.3438  0.6882
  164SAPE   H3X18477   2.955   0.867   7.350 -0.4880 -0.9362  2.0969
  164SAPE   H3Y18478   2.804   0.842   7.250  0.1919  0.2239  0.1051
  164SAPE   C3418479   2.766   0.899   7.446  0.0478  0.1260 -0.1437
  164SAPE   H4X18480   2.732   0.795   7.468 -2.6229  1.2729  1.8199
  164SAPE   H4Y18481   2.681   0.969   7.428  0.5463  0.2981 -1.9923
  164SAPE   C3518482   2.829   0.939   7.579 -0.1610  0.5186  0.2268
  164SAPE   H5X18483   2.871   1.042   7.576 -0.7536  0.7550 -0.0551
  164SAPE   H5Y18484   2.918   0.876   7.601 -1.3135 -0.4619  2.3828
  164SAPE   C3618485   2.735   0.914   7.699 -0.2352 -0.6837  0.6474
  164SAPE   H6X18486   2.700   0.809   7.702 -1.3052 -0.4336 -1.2094
  164SAPE   H6Y18487   2.653   0.989   7.689  0.6684  0.3399  0.7527
  164SAPE   C3718488   2.789   0.964   7.830 -0.0553  0.0351 -0.5902
  164SAPE   H7X18489   2.837   1.063   7.814 -0.4311  0.1740 -0.8672
  164SAPE   H7Y18490   2.865   0.890   7.864 -0.2199  0.2204  0.2162
  164SAPE   C3818491   2.676   0.967   7.939  0.4085  0.3574 -0.1490
  164SAPE   H8X18492   2.643   0.865   7.969  1.1783 -0.5085 -2.0634
  164SAPE   H8Y18493   2.587   1.018   7.896 -1.7130  0.2672  3.6870
  164SAPE   C3918494   2.714   1.050   8.063 -0.1267 -1.0203  0.3435
  164SAPE   H9X18495   2.765   1.142   8.027  1.2655 -1.0168  2.2123
  164SAPE   H9Y18496   2.784   0.989   8.125 -0.6791  0.3856  2.4406
  164SAPE  C31018497   2.588   1.101   8.133  0.4782  0.5034  0.6769
  164SAPE  H10X18498   2.546   1.014   8.189 -2.1029  1.6602  0.6992
  164SAPE  H10Y18499   2.517   1.141   8.057  0.8833 -0.8093 -0.4368
  164SAPE  C31118500   2.621   1.220   8.235  0.1440  0.1068 -0.0782
  164SAPE  H11X18501   2.530   1.264   8.283 -0.2553 -1.2315  0.4476
  164SAPE  H11Y18502   2.664   1.301   8.173 -0.8585 -0.6442 -1.8629
  164SAPE  C31218503   2.706   1.176   8.351 -0.1889  0.4540  0.1208
  164SAPE  H12X18504   2.809   1.147   8.319  0.2172  0.8687  1.0105
  164SAPE  H12Y18505   2.650   1.089   8.390 -1.2066  0.1528 -1.8712
  164SAPE  C31318506   2.724   1.282   8.458 -0.1520 -0.0949 -0.0807
  164SAPE  H13X18507   2.707   1.243   8.561 -1.1822 -2.4049 -1.0347
  164SAPE  H13Y18508   2.632   1.341   8.438  0.1478 -0.6427 -3.7675
  164SAPE  C31418509   2.832   1.378   8.427  0.4086 -0.3332  0.1614
  164SAPE  H14X18510   2.801   1.485   8.433  0.4307 -0.3464  0.5556
  164SAPE  H14Y18511   2.864   1.373   8.321  0.9008  0.9065  0.2322
  164SAPE  C31518512   2.971   1.359   8.487 -0.1118 -0.5098 -0.1521
  164SAPE  H15X18513   3.040   1.418   8.423 -1.3136  1.6899  0.4774
  164SAPE  H15Y18514   3.002   1.253   8.496  0.4872 -0.2412  1.2651
  164SAPE  C31618515   2.984   1.424   8.630  0.3879  0.3810 -0.3715
  164SAPE  H16X18516   2.929   1.361   8.703  0.6136  0.7767  0.1509
  164SAPE  H16Y18517   2.935   1.524   8.633 -0.0805  0.2216 -1.8254
  164SAPE  C31718518   3.126   1.440   8.686  0.2101 -0.5661  0.0548
  164SAPE  H17X18519   3.200   1.485   8.617  0.5771  0.9862  1.4051
  164SAPE  H17Y18520   3.170   1.340   8.710  0.9887 -0.2254  0.0763
  164SAPE  C31818521   3.132   1.519   8.820  0.8515  0.4528  0.3300
  164SAPE  H18X18522   3.239   1.524   8.850  1.4347  1.3035 -1.6862
  164SAPE  H18Y18523   3.065   1.476   8.898 -1.7081 -0.1470 -2.0420
  164SAPE  H18Z18524   3.098   1.621   8.794 -2.2930 -0.7121 -0.5715
  165SAPE     N18525   6.098   3.501   6.438  0.0584 -0.1755  0.1958
  165SAPE   HN118526   6.073   3.401   6.425  1.5724 -0.5126 -0.2574
  165SAPE   HN218527   6.196   3.508   6.404 -0.2962 -1.5426 -1.2525
  165SAPE   HN318528   6.096   3.526   6.539  1.4656  2.8804 -0.4248
  165SAPE   C1218529   6.015   3.587   6.345 -0.5366 -0.9787 -0.2631
  165SAPE  H12A18530   5.919   3.610   6.395 -0.7785 -1.8422 -0.3046
  165SAPE  H12B18531   6.000   3.523   6.255 -0.2071  1.7656 -2.3826
  165SAPE   C1118532   6.089   3.722   6.321  0.4349 -0.3954 -0.3521
  165SAPE  H11A18533   6.031   3.783   6.248 -0.3226 -0.9109 -0.1944
  165SAPE  H11B18534   6.181   3.700   6.263 -0.0220 -0.4316 -1.0799
  165SAPE     P18535   6.170   3.940   6.436  0.2585 -0.0646  0.3259
  165SAPE   O1318536   6.305   3.926   6.381  0.1705  0.2217  0.4916
  165SAPE   O1418537   6.087   4.047   6.371  0.2537  1.2642  0.2543
  165SAPE   O1218538   6.090   3.805   6.434 -0.4047 -0.0823 -0.3381
  165SAPE   O1118539   6.177   3.962   6.587  0.1962  0.0973 -0.2290
  165SAPE    C118540   6.061   4.008   6.658  0.1059  0.3095  0.3895
  165SAPE    HA18541   6.020   4.100   6.612 -1.7003 -0.5891  0.1257
  165SAPE    HB18542   5.976   3.940   6.637 -0.4050  1.3403 -1.0193
  165SAPE    C218543   6.087   4.032   6.810 -0.6877 -0.3236  0.0768
  165SAPE    HS18544   6.169   4.106   6.826  1.6175 -2.9558  1.1021
  165SAPE   O2118545   6.111   3.902   6.859  0.3513 -0.7545  0.1394
  165SAPE   C2118546   6.229   3.860   6.852 -0.0290  0.4127  0.2919
  165SAPE   O2218547   6.330   3.922   6.833 -0.4346  0.5738 -0.0701
  165SAPE   C2218548   6.230   3.711   6.869 -0.6760  0.0909 -0.1346
  165SAPE   H2R18549   6.143   3.677   6.929  1.0058 -0.0481  2.3859
  165SAPE   H2S18550   6.227   3.664   6.769  0.9925  0.8355 -0.5736
  165SAPE    C318551   5.965   4.093   6.885  0.0356  0.8267 -0.1716
  165SAPE    HX18552   5.879   4.028   6.861 -2.6643  4.4672 -1.3108
  165SAPE    HY18553   5.932   4.192   6.844 -1.5932  0.6993  0.7596
  165SAPE   O3118554   5.997   4.103   7.027  0.7823  0.0279  0.5398
  165SAPE   C3118555   5.946   4.002   7.103 -0.0646  0.4591 -0.1771
  165SAPE   O3218556   5.875   3.910   7.064 -0.3071 -1.0605 -0.2360
  165SAPE   C3218557   5.990   4.015   7.245  0.3326  0.0535  0.2141
  165SAPE   H2X18558   5.896   4.049   7.294 -0.0861  0.6151 -0.9435
  165SAPE   H2Y18559   6.054   4.105   7.258 -0.1643  0.4914 -0.3288
  165SAPE   C2318560   6.365   3.666   6.943  0.4190 -0.0127  0.0283
  165SAPE   H3R18561   6.385   3.745   7.019 -0.3323  0.7372 -0.5344
  165SAPE   H3S18562   6.446   3.678   6.868  0.5715  0.5785  0.2762
  165SAPE   C2418563   6.361   3.523   7.000  0.4340  0.1942  0.0627
  165SAPE   H4R18564   6.350   3.446   6.921 -1.5722 -0.3221  0.7810
  165SAPE   H4S18565   6.267   3.500   7.055  1.5963 -1.5111  1.4789
  165SAPE   C2518566   6.468   3.481   7.082 -0.4754 -0.2970  0.5595
  165SAPE   H5R18567   6.559   3.450   7.029  0.0330  2.5536 -0.4345
  165SAPE   C2618568   6.484   3.492   7.217  0.5877 -0.0213 -0.1170
  165SAPE   H6R18569   6.573   3.450   7.266 -0.5700 -0.3434  1.8031
  165SAPE   C2718570   6.371   3.553   7.305 -0.7465 -0.1996 -0.5056
  165SAPE   H7R18571   6.323   3.641   7.256  0.4744  0.6398 -0.2408
  165SAPE   H7S18572   6.414   3.588   7.401  2.2625 -3.6860 -0.3675
  165SAPE   C2818573   6.251   3.460   7.332 -0.6771 -0.1935  0.0493
  165SAPE   H8R18574   6.150   3.499   7.314 -1.4768 -1.5395  1.4421
  165SAPE   C2918575   6.259   3.345   7.411 -0.0090  0.9042  0.9398
  165SAPE   H9R18576   6.166   3.286   7.418 -0.1586  1.0358  0.1830
  165SAPE  C21018577   6.381   3.276   7.475 -0.6003 -0.2981  1.2936
  165SAPE  H10R18578   6.475   3.327   7.446 -0.7493 -1.8313 -2.6354
  165SAPE  H10S18579   6.408   3.181   7.424  2.2131  0.6827  0.7702
  165SAPE  C21118580   6.352   3.251   7.621  0.1941  0.2623  0.4566
  165SAPE  H11R18581   6.307   3.152   7.636  2.8627 -1.1052  0.1669
  165SAPE  C21218582   6.362   3.338   7.718  0.5611  0.8103  0.4557
  165SAPE  H12R18583   6.336   3.300   7.818 -0.9751 -1.3628 -0.6647
  165SAPE  C21318584   6.409   3.475   7.702 -0.2055 -1.0308 -0.1790
  165SAPE  H13R18585   6.446   3.498   7.600  2.3260  0.1463  0.9215
  165SAPE  H13S18586   6.497   3.500   7.764 -0.1443 -0.5601 -0.4525
  165SAPE  C21418587   6.310   3.585   7.726 -0.3120 -0.6361  0.1322
  165SAPE  H14R18588   6.249   3.592   7.634  1.9837 -3.2082 -1.7338
  165SAPE  C21518589   6.257   3.640   7.836  1.3089  0.4946  0.6115
  165SAPE  H15R18590   6.172   3.707   7.820 -0.2165 -1.5377 -0.2335
  165SAPE  C21618591   6.321   3.633   7.979  0.3875 -0.3275  0.6890
  165SAPE  H16R18592   6.336   3.740   8.008  0.3909 -0.1460  0.0395
  165SAPE  H16S18593   6.428   3.603   7.970  0.2213 -1.0893  1.1774
  165SAPE  C21718594   6.234   3.547   8.070 -0.0688  0.0031 -0.4055
  165SAPE  H17R18595   6.245   3.442   8.036  0.5406  0.2179 -0.8798
  165SAPE  H17S18596   6.126   3.561   8.047  0.3186  1.6071 -1.3276
  165SAPE  C21818597   6.258   3.561   8.223 -0.3192  0.5844  0.5247
  165SAPE  H18R18598   6.204   3.482   8.280  1.2855 -0.0511  1.2116
  165SAPE  H18S18599   6.219   3.658   8.260  0.7794  0.2396  2.7723
  165SAPE  C21918600   6.406   3.530   8.250  0.0892  0.2542  0.1401
  165SAPE  H19R18601   6.462   3.612   8.199 -0.6404  1.0241  0.5329
  165SAPE  H19S18602   6.428   3.430   8.208  2.2663  0.8023 -0.1180
  165SAPE  C22018603   6.431   3.525   8.404  0.2693 -0.4994 -0.0352
  165SAPE  H20R18604   6.389   3.623   8.435 -1.0528 -1.6018  1.9111
  165SAPE  H20S18605   6.540   3.509   8.420  0.3533 -1.2091 -1.2539
  165SAPE  H20T18606   6.377   3.438   8.447 -0.6781  0.8306  1.5820
  165SAPE   C3318607   6.051   3.884   7.287 -1.4232  0.3893  0.0915
  165SAPE   H3X18608   6.143   3.865   7.226  0.4676  1.4789  2.4245
  165SAPE   H3Y18609   5.983   3.798   7.266 -0.7123 -0.1959  0.1133
  165SAPE   C3418610   6.086   3.864   7.442 -0.3927  0.3647  0.2348
  165SAPE   H4X18611   6.162   3.938   7.476  0.4117 -0.7714  0.9749
  165SAPE   H4Y18612   6.106   3.757   7.465 -1.2704 -0.2266 -1.5126
  165SAPE   C3518613   5.960   3.895   7.519  0.0333 -0.6532 -0.0407
  165SAPE   H5X18614   5.868   3.837   7.495 -0.2356 -1.7484  3.0505
  165SAPE   H5Y18615   5.933   4.003   7.514 -1.8586 -1.0744  0.0549
  165SAPE   C3618616   5.994   3.861   7.671 -0.0943 -0.0604 -0.1558
  165SAPE   H6X18617   6.091   3.910   7.696 -0.5828  0.9653 -0.2571
  165SAPE   H6Y18618   6.012   3.751   7.676 -1.9691 -0.3224  2.4430
  165SAPE   C3718619   5.883   3.893   7.768  0.5912  0.4570  0.0392
  165SAPE   H7X18620   5.799   3.837   7.722  0.7002  1.3366 -1.2990
  165SAPE   H7Y18621   5.865   4.002   7.774 -0.3891  0.4495 -1.9260
  165SAPE   C3818622   5.923   3.854   7.912 -0.1071  0.1221 -0.6967
  165SAPE   H8X18623   6.032   3.872   7.920 -0.2630  0.5323  0.8615
  165SAPE   H8Y18624   5.918   3.744   7.922 -0.2844  0.0949 -1.0676
  165SAPE   C3918625   5.843   3.924   8.028 -0.0995 -0.3301 -0.4946
  165SAPE   H9X18626   5.742   3.878   8.037 -0.4157  0.6255  1.4909
  165SAPE   H9Y18627   5.840   4.029   7.989  1.6480 -0.4114 -0.9171
  165SAPE  C31018628   5.916   3.938   8.160  0.3354 -0.3159 -0.5852
  165SAPE  H10X18629   5.851   4.013   8.210  1.4039  0.1742  0.1082
  165SAPE  H10Y18630   6.020   3.975   8.152  0.9924 -1.3917  2.1235
  165SAPE  C31118631   5.915   3.817   8.252  0.1261  0.3591  0.0519
  165SAPE  H11X18632   5.975   3.731   8.215 -1.8764 -0.5393 -1.2438
  165SAPE  H11Y18633   5.811   3.784   8.271  0.8432 -3.3709 -1.5848
  165SAPE  C31218634   5.976   3.864   8.387  0.4550  0.6296 -0.7764
  165SAPE  H12X18635   5.896   3.928   8.430 -0.5779 -1.5576  0.7165
  165SAPE  H12Y18636   6.063   3.931   8.373  0.1837  1.5172  1.4036
  165SAPE  C31318637   6.005   3.754   8.486  0.3035 -0.2286 -0.1987
  165SAPE  H13X18638   6.080   3.797   8.555 -1.0837  1.4785  0.3237
  165SAPE  H13Y18639   6.049   3.676   8.421  1.4125  0.4751 -0.3166
  165SAPE  C31418640   5.884   3.690   8.562  0.1050 -0.5127 -0.0793
  165SAPE  H14X18641   5.817   3.645   8.486  0.9384  2.1314 -2.5377
  165SAPE  H14Y18642   5.836   3.761   8.633 -0.1376 -2.5075  1.8549
  165SAPE  C31518643   5.922   3.575   8.657 -0.7133 -0.5619  0.9340
  165SAPE  H15X18644   5.986   3.621   8.736 -1.3224  1.0229  0.5610
  165SAPE  H15Y18645   5.979   3.504   8.595  1.1269  1.2860  0.3833
  165SAPE  C31618646   5.820   3.484   8.731 -0.3285 -0.2950  0.1097
  165SAPE  H16X18647   5.760   3.432   8.653  0.6385 -2.0928  0.5275
  165SAPE  H16Y18648   5.750   3.550   8.787 -0.6882  1.6457 -2.4097
  165SAPE  C31718649   5.893   3.378   8.817  0.6635  0.7766 -0.6725
  165SAPE  H17X18650   5.805   3.315   8.841  0.7929  0.4657 -0.9971
  165SAPE  H17Y18651   5.927   3.426   8.911 -2.5565 -0.4471  1.3088
  165SAPE  C31818652   6.005   3.292   8.750  0.0073 -0.0114 -0.2425
  165SAPE  H18X18653   5.962   3.248   8.657 -2.1725  2.1139 -0.3009
  165SAPE  H18Y18654   6.035   3.204   8.812 -3.2262 -0.9281  0.1946
  165SAPE  H18Z18655   6.097   3.349   8.725  0.5471 -0.5591  0.4631
  166SAPE     N18656   3.842   1.305   6.735  0.1361 -0.1572 -0.3305
  166SAPE   HN118657   3.882   1.217   6.698  0.4995 -0.1951  0.1535
  166SAPE   HN218658   3.920   1.355   6.782 -0.5787  1.5832 -0.9006
  166SAPE   HN318659   3.788   1.271   6.817  1.4172  0.9371  1.0296
  166SAPE   C1218660   3.778   1.379   6.618  0.1969 -0.8141 -0.3672
  166SAPE  H12A18661   3.851   1.385   6.535 -1.3221  1.8113 -1.6299
  166SAPE  H12B18662   3.751   1.481   6.653  0.9438 -0.2133 -1.4934
  166SAPE   C1118663   3.655   1.314   6.566  0.1225 -0.6098 -0.3271
  166SAPE  H11A18664   3.593   1.390   6.513  0.1962 -1.0409 -1.0423
  166SAPE  H11B18665   3.600   1.268   6.651  1.9262  0.3613  1.4439
  166SAPE     P18666   3.604   1.120   6.399  0.1870 -0.0670 -0.0489
  166SAPE   O1318667   3.489   1.206   6.354 -0.2385  0.1772 -0.0729
  166SAPE   O1418668   3.678   1.046   6.294  0.3419 -0.4331 -0.1405
  166SAPE   O1218669   3.696   1.214   6.475 -0.1972  0.3085  0.0822
  166SAPE   O1118670   3.558   1.009   6.506 -0.2004  0.2573 -0.8064
  166SAPE    C118671   3.427   1.019   6.559  0.5192 -0.1799 -0.7963
  166SAPE    HA18672   3.400   1.122   6.592 -0.6848 -0.9893  0.8744
  166SAPE    HB18673   3.355   0.990   6.479  0.3889  0.8877 -1.0941
  166SAPE    C218674   3.417   0.918   6.684 -1.3642 -0.3211  0.2494
  166SAPE    HS18675   3.488   0.968   6.754 -3.1127  0.0447  1.8177
  166SAPE   O2118676   3.454   0.787   6.642 -0.1493  0.4355  0.1373
  166SAPE   C2118677   3.546   0.736   6.713  0.0704 -0.6939 -0.6095
  166SAPE   O2218678   3.615   0.793   6.797  0.3358 -0.4962  0.0014
  166SAPE   C2218679   3.566   0.591   6.663  0.1524  0.3680 -0.9527
  166SAPE   H2R18680   3.462   0.554   6.664  0.1587  0.1217 -3.3653
  166SAPE   H2S18681   3.588   0.601   6.555  0.6033 -1.1749 -1.0202
  166SAPE    C318682   3.283   0.903   6.759  0.0935  0.5405  0.3916
  166SAPE    HX18683   3.225   0.828   6.701 -0.0988  0.9895 -0.0001
  166SAPE    HY18684   3.233   1.002   6.757 -0.7535  0.1177 -0.6190
  166SAPE   O3118685   3.311   0.851   6.891  0.5647 -0.0712  0.4276
  166SAPE   C3118686   3.330   0.938   6.988  0.1539  0.1878 -0.5708
  166SAPE   O3218687   3.335   1.057   6.977 -0.1367  0.3265  0.4896
  166SAPE   C3218688   3.351   0.863   7.126  0.0832  0.7854  0.7224
  166SAPE   H2X18689   3.455   0.826   7.140  0.1647 -0.9979 -3.1729
  166SAPE   H2Y18690   3.287   0.772   7.120 -0.4446  1.2369 -1.3998
  166SAPE   C2318691   3.662   0.503   6.751 -0.3098 -0.0715  0.8709
  166SAPE   H3R18692   3.748   0.568   6.779 -0.0555 -0.2560  0.5217
  166SAPE   H3S18693   3.697   0.434   6.672 -0.3539  0.7725  0.0962
  166SAPE   C2418694   3.583   0.422   6.857  0.0931  0.0022 -0.1838
  166SAPE   H4R18695   3.661   0.354   6.897 -0.8143 -1.7108 -1.2058
  166SAPE   H4S18696   3.506   0.361   6.804 -1.2273  0.1119  1.4885
  166SAPE   C2518697   3.519   0.497   6.970 -0.5118  0.6224 -0.2445
  166SAPE   H5R18698   3.410   0.506   6.957 -1.2939 -1.3392  3.5118
  166SAPE   C2618699   3.588   0.548   7.075 -0.5771 -0.3198  0.1158
  166SAPE   H6R18700   3.530   0.616   7.139 -1.8003 -0.5828 -0.6738
  166SAPE   C2718701   3.736   0.553   7.095  1.3207  0.2642  0.2707
  166SAPE   H7R18702   3.774   0.653   7.123  0.7087  1.0745 -1.6059
  166SAPE   H7S18703   3.783   0.544   6.995 -0.9331  0.0413 -0.8331
  166SAPE   C2818704   3.791   0.448   7.185 -0.5317 -0.2466  0.3232
  166SAPE   H8R18705   3.736   0.352   7.178 -1.5329  0.2188  1.4749
  166SAPE   C2918706   3.899   0.459   7.261  0.0399 -0.0409 -0.3328
  166SAPE   H9R18707   3.926   0.362   7.305  0.2764 -1.2141 -2.8823
  166SAPE  C21018708   3.982   0.586   7.295  0.6779  0.3188 -0.0248
  166SAPE  H10R18709   3.912   0.649   7.354 -0.0130 -1.1453  0.7708
  166SAPE  H10S18710   4.006   0.646   7.204 -0.5443  2.3214  0.8887
  166SAPE  C21118711   4.109   0.552   7.369 -0.2051  0.3448  0.7815
  166SAPE  H11R18712   4.199   0.547   7.307 -1.7416  0.9904 -1.6488
  166SAPE  C21218713   4.120   0.517   7.499  0.1816  0.0236  0.1827
  166SAPE  H12R18714   4.221   0.491   7.531  1.4671 -0.5512 -3.7583
  166SAPE  C21318715   4.005   0.524   7.596 -0.4823 -0.2429  0.6503
  166SAPE  H13R18716   3.903   0.517   7.553 -0.0418  0.0168 -0.4747
  166SAPE  H13S18717   4.011   0.627   7.636 -1.4889  0.5023 -1.0100
  166SAPE  C21418718   4.016   0.404   7.695  0.6637 -0.0653 -0.0424
  166SAPE  H14R18719   4.033   0.307   7.645 -0.2182 -0.5376  0.5406
  166SAPE  C21518720   4.056   0.427   7.823  1.1056 -0.5574 -0.2410
  166SAPE  H15R18721   4.074   0.337   7.883  2.2170  0.4350  0.9587
  166SAPE  C21618722   4.071   0.557   7.895 -0.1865 -0.8127  0.0947
  166SAPE  H16R18723   3.987   0.627   7.874  0.6924  0.1844 -0.1981
  166SAPE  H16S18724   4.158   0.616   7.859 -0.6174  0.1646  0.6068
  166SAPE  C21718725   4.098   0.537   8.042 -0.4737 -0.6672  0.8809
  166SAPE  H17R18726   4.019   0.477   8.091 -0.0787 -0.6882  1.5114
  166SAPE  H17S18727   4.089   0.636   8.092 -2.7422 -0.4377  0.1208
  166SAPE  C21818728   4.245   0.483   8.075  0.3087 -0.6473  0.6558
  166SAPE  H18R18729   4.316   0.563   8.045  1.8807 -1.6291  1.6385
  166SAPE  H18S18730   4.264   0.403   8.001  0.4988  1.2861 -1.4968
  166SAPE  C21918731   4.270   0.446   8.224  0.2535 -0.3214  0.1519
  166SAPE  H19R18732   4.368   0.396   8.244  1.0415  0.6015 -1.2310
  166SAPE  H19S18733   4.195   0.369   8.252 -0.4527 -0.1645 -1.2188
  166SAPE  C22018734   4.278   0.569   8.316  0.4678  0.3579 -0.4379
  166SAPE  H20R18735   4.312   0.531   8.415  1.4981  1.8623 -0.1720
  166SAPE  H20S18736   4.179   0.614   8.339  0.1500  0.4375 -1.8552
  166SAPE  H20T18737   4.339   0.657   8.285  2.1222  0.7620  3.3667
  166SAPE   C3318738   3.299   0.951   7.245 -0.8191  0.3639 -0.2159
  166SAPE   H3X18739   3.198   0.985   7.215 -1.1607 -1.7842 -1.7706
  166SAPE   H3Y18740   3.377   1.030   7.257 -0.6138  0.0221  0.7422
  166SAPE   C3418741   3.289   0.866   7.376 -0.2882  0.4086  0.0871
  166SAPE   H4X18742   3.393   0.832   7.399  0.2743  1.5139 -0.7111
  166SAPE   H4Y18743   3.228   0.777   7.349 -0.6607  0.4611  0.7386
  166SAPE   C3518744   3.231   0.945   7.491  0.6646 -0.2854  0.3740
  166SAPE   H5X18745   3.131   0.979   7.459  0.6784 -0.6873 -0.1328
  166SAPE   H5Y18746   3.298   1.033   7.495 -1.6455  1.5481  0.5110
  166SAPE   C3618747   3.233   0.869   7.628 -0.1564 -0.4262 -0.2090
  166SAPE   H6X18748   3.340   0.844   7.648  0.5909  0.5066 -2.6829
  166SAPE   H6Y18749   3.166   0.780   7.626  1.6997 -1.8894 -0.2371
  166SAPE   C3718750   3.185   0.964   7.740  0.1328 -0.3100  0.4377
  166SAPE   H7X18751   3.089   1.010   7.709  0.3354 -0.8962 -1.1144
  166SAPE   H7Y18752   3.257   1.046   7.763 -1.8624  1.3172  1.2049
  166SAPE   C3818753   3.160   0.894   7.872 -0.4675  0.0149  0.0894
  166SAPE   H8X18754   3.100   0.802   7.854 -1.5514  1.2134 -3.1066
  166SAPE   H8Y18755   3.105   0.966   7.935  2.3380  1.4764  1.0602
  166SAPE   C3918756   3.292   0.848   7.935  0.1869 -0.5105  0.2557
  166SAPE   H9X18757   3.347   0.940   7.965  0.0108 -0.4861  0.5083
  166SAPE   H9Y18758   3.342   0.775   7.868  0.7609  1.5604 -1.6856
  166SAPE  C31018759   3.276   0.779   8.074  0.2684 -0.1834  0.1720
  166SAPE  H10X18760   3.250   0.674   8.049  3.8197 -1.1825  0.2018
  166SAPE  H10Y18761   3.195   0.820   8.138 -0.3766 -0.8889 -0.1638
  166SAPE  C31118762   3.402   0.779   8.147 -0.5243  0.8613  0.4388
  166SAPE  H11X18763   3.433   0.885   8.143  2.1052  0.1395 -1.5582
  166SAPE  H11Y18764   3.480   0.717   8.097 -0.9974 -0.5559  1.3950
  166SAPE  C31218765   3.385   0.718   8.295 -0.8695  0.3178  0.0518
  166SAPE  H12X18766   3.348   0.614   8.281  2.4125 -0.7403 -1.8373
  166SAPE  H12Y18767   3.305   0.782   8.340  0.6708  1.9653  0.5805
  166SAPE  C31318768   3.496   0.723   8.395  0.2574 -0.6072 -0.2827
  166SAPE  H13X18769   3.589   0.676   8.355 -0.2209 -1.6201 -0.2198
  166SAPE  H13Y18770   3.474   0.648   8.474 -1.8566  0.5234  0.2869
  166SAPE  C31418771   3.511   0.860   8.461 -0.0730  0.1991  0.1137
  166SAPE  H14X18772   3.411   0.902   8.487  0.2725  0.2796  1.3698
  166SAPE  H14Y18773   3.554   0.928   8.385 -2.2159 -0.0063 -1.3926
  166SAPE  C31518774   3.607   0.857   8.587 -0.0850  0.5409 -0.3432
  166SAPE  H15X18775   3.690   0.783   8.580  0.1289  0.6554  0.7605
  166SAPE  H15Y18776   3.555   0.822   8.679 -0.1161 -2.1549 -1.2911
  166SAPE  C31618777   3.669   0.994   8.620 -0.1874  0.1829  0.6125
  166SAPE  H16X18778   3.583   1.056   8.656 -0.2107  0.3937  0.2002
  166SAPE  H16Y18779   3.703   1.037   8.523 -0.0113 -1.5057 -0.1100
  166SAPE  C31718780   3.791   1.001   8.700 -0.0488 -0.5442  0.0521
  166SAPE  H17X18781   3.766   0.981   8.807 -1.0006  3.5419  0.7766
  166SAPE  H17Y18782   3.810   1.111   8.707 -2.2040 -0.0597 -0.8211
  166SAPE  C31818783   3.908   0.927   8.639 -0.2734  0.0281 -0.2210
  166SAPE  H18X18784   3.985   0.908   8.717 -0.7613  0.3096  0.3331
  166SAPE  H18Y18785   3.964   0.996   8.573 -1.1126  0.8380 -0.1113
  166SAPE  H18Z18786   3.885   0.826   8.599  0.2813  0.5804 -2.0083
  167SAPE     N18787   4.900   0.359   6.212 -0.5192 -0.5256  0.4995
  167SAPE   HN118788   4.832   0.405   6.149  0.6190  1.5570  0.6918
  167SAPE   HN218789   4.904   0.421   6.295  2.1335  1.4099 -0.9256
  167SAPE   HN318790   4.995   0.368   6.171 -0.4232  1.7500  1.1145
  167SAPE   C1218791   4.852   0.219   6.243  0.2688  0.3789  0.0042
  167SAPE  H12A18792   4.873   0.156   6.154 -0.6119  0.8523 -0.5477
  167SAPE  H12B18793   4.752   0.221   6.290  1.2108  0.6427  2.1344
  167SAPE   C1118794   4.944   0.166   6.354 -0.0852  0.3168 -0.0321
  167SAPE  H11A18795   4.935   0.058   6.378  2.6545  0.9192  5.2075
  167SAPE  H11B18796   4.925   0.237   6.438  0.2505  1.6114 -1.0208
  167SAPE     P18797   5.207   0.165   6.393 -0.1141 -0.3416 -0.1793
  167SAPE   O1318798   5.295   0.057   6.336 -0.3446  0.3802 -0.1843
  167SAPE   O1418799   5.263   0.297   6.412 -0.1321  0.0575 -0.3638
  167SAPE   O1218800   5.080   0.181   6.305  0.3655 -0.0539 -0.0074
  167SAPE   O1118801   5.158   0.130   6.536 -0.5465 -0.1631 -0.0779
  167SAPE    C118802   5.247   0.075   6.633  0.0919  0.0195 -0.4906
  167SAPE    HA18803   5.195   0.017   6.712 -0.7363  1.3169 -0.0634
  167SAPE    HB18804   5.334   0.017   6.596  0.6050  0.1306  0.4877
  167SAPE    C218805   5.313   0.196   6.705  0.0778 -0.5770  0.6667
  167SAPE    HS18806   5.387   0.244   6.638  0.0872 -2.0855 -0.4559
  167SAPE   O2118807   5.388   0.143   6.814  0.3411 -0.3242  0.7379
  167SAPE   C2118808   5.484   0.228   6.865  0.0600 -0.2019  0.2541
  167SAPE   O2218809   5.504   0.341   6.825 -0.1679 -0.3740 -0.8756
  167SAPE   C2218810   5.541   0.165   6.993 -0.2396 -0.0639  0.5902
  167SAPE   H2R18811   5.494   0.065   7.000 -0.0336 -0.2392 -0.3694
  167SAPE   H2S18812   5.650   0.148   6.983 -0.6802 -2.1768 -1.7492
  167SAPE    C318813   5.208   0.293   6.757  0.7389  0.1343  0.2941
  167SAPE    HX18814   5.155   0.348   6.676 -1.9900 -0.6261  1.4534
  167SAPE    HY18815   5.256   0.371   6.819  0.5245  0.9085 -0.4937
  167SAPE   O3118816   5.118   0.223   6.839  0.1993 -0.5086 -0.3230
  167SAPE   C3118817   4.993   0.207   6.793 -0.3676  0.1408 -0.0285
  167SAPE   O3218818   4.950   0.259   6.694  0.4933 -0.0635 -0.0741
  167SAPE   C3218819   4.914   0.114   6.885 -0.1500  0.0247  0.7696
  167SAPE   H2X18820   4.988   0.070   6.954  1.5145  0.1959 -0.8263
  167SAPE   H2Y18821   4.873   0.040   6.813 -1.8810  1.4234  0.2266
  167SAPE   C2318822   5.508   0.247   7.118  0.5522  0.0058  0.0348
  167SAPE   H3R18823   5.533   0.354   7.099  0.8148  0.0080  0.3744
  167SAPE   H3S18824   5.578   0.217   7.199  0.1638  3.0676  1.6613
  167SAPE   C2418825   5.359   0.246   7.156 -0.8406  0.9493  0.2242
  167SAPE   H4R18826   5.369   0.179   7.244 -0.9145 -1.5920 -1.5979
  167SAPE   H4S18827   5.296   0.189   7.084  1.2822  0.6746 -1.5229
  167SAPE   C2518828   5.293   0.378   7.186  0.0884 -0.0266  0.3995
  167SAPE   H5R18829   5.222   0.417   7.112 -0.0774 -0.3733  0.3764
  167SAPE   C2618830   5.313   0.445   7.297 -0.2832  0.3314 -0.1582
  167SAPE   H6R18831   5.262   0.543   7.298 -0.7733  0.0922 -1.0076
  167SAPE   C2718832   5.390   0.400   7.412 -0.1366  0.6411 -0.2553
  167SAPE   H7R18833   5.415   0.484   7.481 -0.9263 -1.3283  2.6166
  167SAPE   H7S18834   5.487   0.359   7.375 -1.1054  0.2667 -2.5370
  167SAPE   C2818835   5.313   0.300   7.495  0.3377 -0.8919  0.2494
  167SAPE   H8R18836   5.253   0.219   7.450  1.3334 -0.8479 -1.2254
  167SAPE   C2918837   5.322   0.296   7.628 -0.0461 -0.7110 -0.4538
  167SAPE   H9R18838   5.255   0.227   7.680 -1.1921  0.4305 -0.3629
  167SAPE  C21018839   5.401   0.385   7.727 -0.6903 -0.4715  0.1958
  167SAPE  H10R18840   5.345   0.405   7.820  0.1437  0.3503  0.5393
  167SAPE  H10S18841   5.399   0.487   7.682  1.3875  0.5812  2.2673
  167SAPE  C21118842   5.532   0.319   7.755 -0.4517 -0.0612  0.9078
  167SAPE  H11R18843   5.601   0.317   7.669  0.8280 -0.0564  1.8926
  167SAPE  C21218844   5.562   0.257   7.868 -0.5100 -0.0838  0.6376
  167SAPE  H12R18845   5.660   0.209   7.885 -0.5970 -0.1682  0.9116
  167SAPE  C21318846   5.474   0.247   7.989 -0.5390  0.4356 -0.0668
  167SAPE  H13R18847   5.381   0.186   7.979  0.1343 -0.5608 -0.4470
  167SAPE  H13S18848   5.442   0.351   8.013 -0.0421  1.0238 -1.7448
  167SAPE  C21418849   5.541   0.170   8.104  0.1819 -0.0311  0.4268
  167SAPE  H14R18850   5.564   0.064   8.090 -1.0834 -0.3119  0.3688
  167SAPE  C21518851   5.543   0.210   8.235  0.3677  0.4900  0.5142
  167SAPE  H15R18852   5.584   0.143   8.312  0.1811 -1.2631 -0.8474
  167SAPE  C21618853   5.500   0.340   8.296 -0.6591  0.2911  0.2940
  167SAPE  H16R18854   5.463   0.394   8.206  2.2241 -1.6765 -2.3077
  167SAPE  H16S18855   5.592   0.391   8.332 -1.2348  1.1783  0.5438
  167SAPE  C21718856   5.389   0.332   8.407  0.4080 -0.4447  0.2442
  167SAPE  H17R18857   5.359   0.435   8.435  0.0363  1.1392 -4.9420
  167SAPE  H17S18858   5.434   0.283   8.496  1.5496  2.8098  1.6341
  167SAPE  C21818859   5.253   0.275   8.362 -0.7647 -0.4796  0.8423
  167SAPE  H18R18860   5.260   0.166   8.346  1.0736 -0.1613 -0.9050
  167SAPE  H18S18861   5.238   0.337   8.271 -0.3877  0.5953  1.4913
  167SAPE  C21918862   5.143   0.298   8.465  0.2385 -0.0445  0.0061
  167SAPE  H19R18863   5.042   0.259   8.437  0.0983 -1.0930  1.8196
  167SAPE  H19S18864   5.130   0.408   8.459 -0.0726 -0.1539 -2.6044
  167SAPE  C22018865   5.173   0.255   8.609  0.1408 -0.1004 -0.5869
  167SAPE  H20R18866   5.182   0.144   8.613 -0.2652 -0.1490 -0.9598
  167SAPE  H20S18867   5.084   0.271   8.673 -0.2676  0.4077 -1.2686
  167SAPE  H20T18868   5.265   0.305   8.646 -0.1884  0.0690  0.0281
  167SAPE   C3318869   4.798   0.187   6.956  0.5536  0.6050 -0.6611
  167SAPE   H3X18870   4.738   0.107   7.005  0.6054  0.7385 -0.3788
  167SAPE   H3Y18871   4.739   0.240   6.878  0.6076  0.3179 -0.8979
  167SAPE   C3418872   4.848   0.287   7.063  0.0595  0.1221  0.9517
  167SAPE   H4X18873   4.753   0.337   7.092 -0.5442  1.0980 -2.3099
  167SAPE   H4Y18874   4.923   0.365   7.035 -1.9260  1.7085 -0.2157
  167SAPE   C3518875   4.912   0.208   7.177 -0.0064 -0.0235  0.2919
  167SAPE   H5X18876   5.018   0.189   7.149 -1.1609 -3.2482 -2.6093
  167SAPE   H5Y18877   4.850   0.119   7.199  0.4330 -0.2118  0.7920
  167SAPE   C3618878   4.904   0.296   7.304 -0.0600 -0.0934 -0.1965
  167SAPE   H6X18879   4.807   0.350   7.294  0.4154  0.5884 -1.2410
  167SAPE   H6Y18880   4.995   0.359   7.298  1.1267 -1.8322 -1.5937
  167SAPE   C3718881   4.895   0.226   7.444  0.6617  0.4943 -0.2618
  167SAPE   H7X18882   4.983   0.159   7.451 -1.0937 -1.7903  1.6240
  167SAPE   H7Y18883   4.812   0.152   7.438  0.3871  0.8920 -1.9363
  167SAPE   C3818884   4.872   0.322   7.567 -0.0030  0.3605 -0.2761
  167SAPE   H8X18885   4.776   0.372   7.542  0.4757  2.0298  1.0692
  167SAPE   H8Y18886   4.945   0.404   7.584  1.6967 -0.9554 -0.9078
  167SAPE   C3918887   4.857   0.253   7.700 -0.1959 -0.0511 -0.1692
  167SAPE   H9X18888   4.798   0.160   7.686  1.3305 -1.8313  3.6932
  167SAPE   H9Y18889   4.793   0.308   7.771 -1.2073 -1.0939 -0.2547
  167SAPE  C31018890   4.999   0.215   7.752  0.4174 -0.0118 -0.2108
  167SAPE  H10X18891   5.055   0.308   7.777  2.3840 -1.3408  0.5935
  167SAPE  H10Y18892   5.059   0.152   7.684  0.2100  1.0884 -1.4576
  167SAPE  C31118893   4.996   0.129   7.884  0.6016  0.2740 -1.1755
  167SAPE  H11X18894   5.096   0.081   7.889  1.1551  1.3731 -1.3447
  167SAPE  H11Y18895   4.923   0.046   7.873  0.8629 -0.1181 -0.0713
  167SAPE  C31218896   4.947   0.214   8.001  0.5028  0.0080 -0.2737
  167SAPE  H12X18897   4.837   0.232   7.991  0.5035 -0.0833 -0.4511
  167SAPE  H12Y18898   5.007   0.308   8.000  0.3974  0.1028 -2.5933
  167SAPE  C31318899   4.975   0.148   8.134 -0.7712 -0.2845 -0.0942
  167SAPE  H13X18900   4.924   0.202   8.216 -1.1194  0.6324 -0.8915
  167SAPE  H13Y18901   5.085   0.154   8.151 -0.6037 -3.3338  0.3850
  167SAPE  C31418902   4.929  -0.000   8.137  0.1720  0.1737  0.0163
  167SAPE  H14X18903   4.996  -0.060   8.072  1.4374  0.0845  1.3311
  167SAPE  H14Y18904   4.831  -0.011   8.087  0.4554 -1.4860 -0.2374
  167SAPE  C31518905   4.922  -0.052   8.273  0.1988 -0.9625 -0.2890
  167SAPE  H15X18906   4.851   0.007   8.335  1.1825  2.9461 -2.5128
  167SAPE  H15Y18907   5.021  -0.038   8.322  0.8353 -0.7274 -1.5910
  167SAPE  C31618908   4.893  -0.201   8.284 -0.0669  0.2846  0.2664
  167SAPE  H16X18909   4.914  -0.229   8.389 -2.3366 -0.6301  0.5362
  167SAPE  H16Y18910   4.957  -0.268   8.223  0.1676 -2.1923  3.0239
  167SAPE  C31718911   4.750  -0.237   8.265 -0.3187  0.0292 -0.2937
  167SAPE  H17X18912   4.695  -0.191   8.180 -0.5214  0.2972 -0.0178
  167SAPE  H17Y18913   4.698  -0.213   8.360  0.3576  1.1073 -0.1790
  167SAPE  C31818914   4.724  -0.390   8.239  0.0131  0.0468 -0.7640
  167SAPE  H18X18915   4.617  -0.418   8.242  0.3385 -1.1408  0.6590
  167SAPE  H18Y18916   4.771  -0.443   8.324 -3.2668 -0.0175  1.1501
  167SAPE  H18Z18917   4.762  -0.424   8.139  0.3401 -0.0508 -0.6096
  168SAPE     N18918   6.216   0.267   6.393  0.2118 -0.3228 -0.2344
  168SAPE   HN118919   6.145   0.290   6.321 -0.6161  0.9696  0.9249
  168SAPE   HN218920   6.272   0.355   6.400  0.1755 -0.3783  1.0841
  168SAPE   HN318921   6.275   0.186   6.368  0.7985  1.1442 -4.4289
  168SAPE   C1218922   6.153   0.237   6.525  0.8800 -0.2015 -0.0735
  168SAPE  H12A18923   6.136   0.334   6.577 -0.4257 -0.8471  0.7815
  168SAPE  H12B18924   6.221   0.172   6.584 -0.1603  0.8428  2.4405
  168SAPE   C1118925   6.009   0.168   6.515 -0.8095  0.4998  0.5695
  168SAPE  H11A18926   5.937   0.242   6.474 -0.1781  0.0017 -1.5424
  168SAPE  H11B18927   5.983   0.127   6.615 -0.4426  0.1740  0.5340
  168SAPE     P18928   5.897  -0.017   6.378  0.2295 -0.2447 -0.0450
  168SAPE   O1318929   5.786   0.075   6.342 -0.0804 -0.4454 -0.2542
  168SAPE   O1418930   5.936  -0.113   6.271  0.4585 -0.3404 -0.6200
  168SAPE   O1218931   6.021   0.066   6.416  0.3446 -0.5861  0.3878
  168SAPE   O1118932   5.869  -0.091   6.508 -0.2293  0.5579 -0.4339
  168SAPE    C118933   5.922  -0.215   6.540 -0.4013 -0.1269  0.2669
  168SAPE    HA18934   5.872  -0.299   6.486  0.6268  0.2120 -1.2775
  168SAPE    HB18935   6.032  -0.227   6.529 -0.3623  1.6472 -2.0389
  168SAPE    C218936   5.907  -0.254   6.693  0.4556  0.7129 -0.2145
  168SAPE    HS18937   5.949  -0.355   6.710 -1.5254  0.0726  1.2413
  168SAPE   O2118938   5.769  -0.248   6.734  0.2823  0.0801 -0.1940
  168SAPE   C2118939   5.702  -0.362   6.716  0.7828  0.0931 -0.1246
  168SAPE   O2218940   5.746  -0.463   6.660 -0.2762  0.2706  0.1004
  168SAPE   C2218941   5.558  -0.339   6.748  0.1676 -0.1632 -0.3333
  168SAPE   H2R18942   5.505  -0.323   6.651  1.2206  0.1990 -0.8568
  168SAPE   H2S18943   5.512  -0.431   6.790  0.1739 -0.3715 -0.7793
  168SAPE    C318944   5.985  -0.143   6.766  0.8201  0.2666 -0.5603
  168SAPE    HX18945   5.956  -0.041   6.733 -0.6918 -0.2895 -1.0721
  168SAPE    HY18946   6.092  -0.152   6.739  1.0971  1.9636 -0.1069
  168SAPE   O3118947   5.980  -0.172   6.906  0.3854 -0.3333 -0.0865
  168SAPE   C3118948   5.898  -0.097   6.975 -0.0122 -0.0768 -0.1113
  168SAPE   O3218949   5.823  -0.013   6.926  0.3104  0.1898 -0.0895
  168SAPE   C3218950   5.892  -0.144   7.122 -0.1558  0.0408 -0.7983
  168SAPE   H2X18951   5.994  -0.136   7.166 -0.1214  1.1299 -1.0442
  168SAPE   H2Y18952   5.854  -0.246   7.143 -0.1506  0.1121 -0.4455
  168SAPE   C2318953   5.532  -0.211   6.839 -0.2560  0.2996 -0.6341
  168SAPE   H3R18954   5.568  -0.115   6.797  2.0574  1.3682  3.2756
  168SAPE   H3S18955   5.590  -0.230   6.932 -1.8599 -0.8347  0.1880
  168SAPE   C2418956   5.382  -0.196   6.886  0.0634  0.4196  0.5603
  168SAPE   H4R18957   5.318  -0.188   6.795 -0.8338 -1.6081  0.9500
  168SAPE   H4S18958   5.377  -0.096   6.935 -1.3044  0.4709  0.3544
  168SAPE   C2518959   5.329  -0.303   6.987  0.1908  0.5530  0.7391
  168SAPE   H5R18960   5.292  -0.391   6.931 -2.8895  2.2111 -0.0811
  168SAPE   C2618961   5.293  -0.295   7.118  0.5897  0.1370 -0.2094
  168SAPE   H6R18962   5.255  -0.387   7.164  2.4644 -0.1109  0.9607
  168SAPE   C2718963   5.314  -0.180   7.209 -0.3878 -0.8244  0.0841
  168SAPE   H7R18964   5.222  -0.165   7.269 -1.1215 -1.9274 -0.7223
  168SAPE   H7S18965   5.323  -0.088   7.148  1.3687 -0.4713  0.8199
  168SAPE   C2818966   5.432  -0.197   7.302 -0.6071  0.5865 -0.2547
  168SAPE   H8R18967   5.521  -0.246   7.260  0.0257  0.5043  1.1136
  168SAPE   C2918968   5.430  -0.192   7.440  0.1273  0.5801 -0.3593
  168SAPE   H9R18969   5.522  -0.223   7.493  0.9848  2.2936 -0.7507
  168SAPE  C21018970   5.317  -0.139   7.528  0.4678 -0.8424  0.1362
  168SAPE  H10R18971   5.258  -0.227   7.560 -1.8473 -0.3861 -2.4475
  168SAPE  H10S18972   5.256  -0.069   7.466 -0.4062 -0.3227  1.5444
  168SAPE  C21118973   5.377  -0.056   7.639 -0.8803 -0.2249 -0.7359
  168SAPE  H11R18974   5.405   0.049   7.617 -2.0301  0.2444 -0.0613
  168SAPE  C21218975   5.423  -0.112   7.756  0.2991 -0.1302 -0.1908
  168SAPE  H12R18976   5.467  -0.043   7.830 -0.3369  0.7282 -0.5933
  168SAPE  C21318977   5.402  -0.255   7.793  0.0547  0.9421 -0.2976
  168SAPE  H13R18978   5.429  -0.326   7.713  3.6805 -0.1679  1.6668
  168SAPE  H13S18979   5.297  -0.283   7.814  0.1364  1.4343  0.8655
  168SAPE  C21418980   5.493  -0.310   7.898 -0.0926 -0.8198 -0.6650
  168SAPE  H14R18981   5.582  -0.363   7.862 -0.0523 -0.6369 -0.8427
  168SAPE  C21518982   5.483  -0.301   8.033  0.2360 -0.3228 -0.3686
  168SAPE  H15R18983   5.560  -0.349   8.097  0.1036 -1.4435 -1.0160
  168SAPE  C21618984   5.378  -0.236   8.106  0.1596  0.1543  0.2009
  168SAPE  H16R18985   5.300  -0.188   8.043 -3.1503 -1.1309  2.9938
  168SAPE  H16S18986   5.415  -0.147   8.161 -1.2819  2.1140 -1.7973
  168SAPE  C21718987   5.297  -0.330   8.198  0.4486 -0.4867  0.0078
  168SAPE  H17R18988   5.255  -0.406   8.128 -2.7861  0.0874  1.1450
  168SAPE  H17S18989   5.210  -0.280   8.245  0.8086  0.5329 -0.3931
  168SAPE  C21818990   5.379  -0.395   8.314  0.0670  0.6454  0.1115
  168SAPE  H18R18991   5.424  -0.312   8.374  3.1606 -1.8863  1.5698
  168SAPE  H18S18992   5.459  -0.461   8.277 -0.1944 -0.4447  1.4074
  168SAPE  C21918993   5.290  -0.477   8.415 -0.1790 -0.0477 -0.1150
  168SAPE  H19R18994   5.237  -0.553   8.354 -2.0662  1.6007 -0.6635
  168SAPE  H19S18995   5.214  -0.402   8.446 -1.7784 -0.3297 -3.0194
  168SAPE  C22018996   5.370  -0.546   8.530 -0.5296  0.2579  0.7446
  168SAPE  H20R18997   5.440  -0.466   8.562  0.3241 -0.2865  0.3007
  168SAPE  H20S18998   5.430  -0.628   8.485 -1.2560  0.2193 -0.1867
  168SAPE  H20T18999   5.313  -0.576   8.620 -1.6276  4.9473  1.8746
  168SAPE   C3319000   5.787  -0.054   7.193 -0.1334  0.3023  0.4083
  168SAPE   H3X19001   5.683  -0.077   7.159 -0.3369  1.9681 -0.2220
  168SAPE   H3Y19002   5.805   0.055   7.177  0.0377 -0.0361 -2.0898
  168SAPE   C3419003   5.768  -0.064   7.345  0.3742  0.2236  0.8202
  168SAPE   H4X19004   5.731  -0.165   7.372 -0.9550  0.1014 -1.2962
  168SAPE   H4Y19005   5.680  -0.004   7.379 -2.0623 -1.2881 -2.2816
  168SAPE   C3519006   5.891  -0.030   7.431 -0.0299  0.6875 -0.4095
  168SAPE   H5X19007   5.887   0.080   7.447  1.0322  0.6359  0.3231
  168SAPE   H5Y19008   5.985  -0.066   7.384 -0.2220  1.4135 -1.3722
  168SAPE   C3619009   5.886  -0.107   7.573 -0.0913 -0.1645 -0.0003
  168SAPE   H6X19010   5.993  -0.101   7.602  0.1370  1.8609 -1.0815
  168SAPE   H6Y19011   5.856  -0.213   7.561  1.2109 -0.4413 -1.0913
  168SAPE   C3719012   5.807  -0.045   7.690 -0.5579 -1.1529  0.5006
  168SAPE   H7X19013   5.698  -0.034   7.672 -0.5201  1.5303  1.3683
  168SAPE   H7Y19014   5.846   0.056   7.717  0.0506 -1.4751  0.8541
  168SAPE   C3819015   5.812  -0.127   7.820 -0.7719  0.9944  0.1928
  168SAPE   H8X19016   5.775  -0.231   7.803 -1.6471  1.5425 -1.4460
  168SAPE   H8Y19017   5.742  -0.094   7.900  0.1275  1.7659  0.6837
  168SAPE   C3919018   5.954  -0.133   7.888 -0.7262  0.3717  0.4507
  168SAPE   H9X19019   5.989  -0.028   7.880 -3.0325  1.1291 -1.0386
  168SAPE   H9Y19020   6.015  -0.196   7.819  0.1392  0.3993  1.1786
  168SAPE  C31019021   5.961  -0.193   8.029  0.5104 -0.1083 -0.6399
  168SAPE  H10X19022   5.923  -0.120   8.104 -1.8815 -2.5255  0.6652
  168SAPE  H10Y19023   6.069  -0.187   8.053  0.5795 -1.1703 -0.6657
  168SAPE  C31119024   5.907  -0.336   8.050 -0.5234  0.0928 -0.6563
  168SAPE  H11X19025   5.973  -0.398   7.986 -1.0475  0.8703 -1.9957
  168SAPE  H11Y19026   5.806  -0.335   8.003 -0.3241  0.3404 -1.0827
  168SAPE  C31219027   5.889  -0.365   8.197 -0.0982 -0.1584 -0.1160
  168SAPE  H12X19028   5.805  -0.301   8.233 -0.9975  0.1799 -2.6476
  168SAPE  H12Y19029   5.975  -0.332   8.260 -0.6655  0.4670  0.3532
  168SAPE  C31319030   5.852  -0.510   8.234 -0.4921  0.3031 -0.0653
  168SAPE  H13X19031   5.913  -0.574   8.167 -0.0797  0.9821 -0.3504
  168SAPE  H13Y19032   5.750  -0.528   8.194  0.1775 -1.3288 -1.1219
  168SAPE  C31419033   5.878  -0.535   8.380  0.2785  0.2996 -0.0972
  168SAPE  H14X19034   5.802  -0.474   8.434 -0.1334  0.5641 -0.9632
  168SAPE  H14Y19035   5.977  -0.491   8.403  0.5030 -0.1018 -0.2792
  168SAPE  C31519036   5.855  -0.682   8.413 -0.2223 -0.1535 -0.2395
  168SAPE  H15X19037   5.776  -0.722   8.345  2.4571 -2.8743 -1.9994
  168SAPE  H15Y19038   5.814  -0.694   8.516 -0.1338 -1.4731 -0.3368
  168SAPE  C31619039   5.980  -0.778   8.405 -0.1403  0.1999 -0.8503
  168SAPE  H16X19040   6.059  -0.745   8.476  0.0364  1.0026 -1.4058
  168SAPE  H16Y19041   6.007  -0.815   8.303 -1.1507 -1.2279 -0.6378
  168SAPE  C31719042   5.947  -0.920   8.466  0.4823 -0.2024  0.6040
  168SAPE  H17X19043   5.864  -0.962   8.405 -1.5658  1.7221  1.9097
  168SAPE  H17Y19044   5.897  -0.904   8.564 -0.8272  2.0485 -0.3769
  168SAPE  C31819045   6.072  -1.001   8.469  0.0095  0.3328  0.2441
  168SAPE  H18X19046   6.049  -1.106   8.498  3.6698 -0.2505  1.6255
  168SAPE  H18Y19047   6.139  -0.967   8.551  0.0771 -1.8521  1.1610
  168SAPE  H18Z19048   6.125  -1.005   8.372 -0.5626  0.5140 -0.0784
  169SAPE     N19049   5.130   2.447   6.220 -0.3809 -0.1279 -0.5772
  169SAPE   HN119050   5.100   2.471   6.124  1.1828  1.2895 -0.7518
  169SAPE   HN219051   5.071   2.482   6.298  0.7186 -1.4018  0.9033
  169SAPE   HN319052   5.222   2.495   6.226 -0.8753  0.8413 -0.6069
  169SAPE   C1219053   5.146   2.302   6.255 -0.7469  0.7432 -0.4783
  169SAPE  H12A19054   5.112   2.239   6.170  0.9796  1.1744 -1.5391
  169SAPE  H12B19055   5.085   2.287   6.346  0.0245 -1.9832 -0.3130
  169SAPE   C1119056   5.297   2.281   6.281 -0.6465 -0.5347 -0.6160
  169SAPE  H11A19057   5.363   2.289   6.192 -0.6736 -1.3081 -0.7175
  169SAPE  H11B19058   5.308   2.173   6.306  1.2728 -0.7723 -2.2158
  169SAPE     P19059   5.488   2.395   6.417 -0.2498 -0.1940  0.1343
  169SAPE   O1319060   5.556   2.406   6.285  0.2622  0.5825  0.0415
  169SAPE   O1419061   5.493   2.515   6.502 -0.2109  0.1258  0.3641
  169SAPE   O1219062   5.335   2.367   6.391  0.1403  0.3594 -0.1817
  169SAPE   O1119063   5.532   2.270   6.495  0.1275  0.2334 -0.4937
  169SAPE    C119064   5.464   2.186   6.584 -0.1650  0.8776  0.0377
  169SAPE    HA19065   5.357   2.208   6.601 -0.2219 -0.1511  1.1296
  169SAPE    HB19066   5.465   2.086   6.534 -0.6881  0.3614  1.0239
  169SAPE    C219067   5.525   2.181   6.732 -0.3742  0.4083 -0.3295
  169SAPE    HS19068   5.507   2.284   6.770 -1.1057  1.0919 -2.3669
  169SAPE   O2119069   5.660   2.139   6.733 -0.8018 -0.9573 -0.5392
  169SAPE   C2119070   5.748   2.243   6.741 -0.2533 -0.3737 -0.1560
  169SAPE   O2219071   5.714   2.360   6.764  0.3393  0.8943 -0.3654
  169SAPE   C2219072   5.887   2.190   6.749  0.4714  0.2273  0.2683
  169SAPE   H2R19073   5.952   2.278   6.729 -1.8951  1.3983 -3.1408
  169SAPE   H2S19074   5.894   2.157   6.855 -2.2102 -1.1675  0.0755
  169SAPE    C319075   5.448   2.089   6.827 -0.6635 -0.3049 -0.2332
  169SAPE    HX19076   5.445   1.990   6.776 -0.2668  0.1191 -1.1007
  169SAPE    HY19077   5.344   2.128   6.834  0.2361  2.4826 -1.0866
  169SAPE   O3119078   5.502   2.084   6.959  0.6237 -0.3994 -0.4859
  169SAPE   C3119079   5.578   1.985   7.002 -0.2540  0.0860  0.6251
  169SAPE   O3219080   5.607   1.883   6.940 -0.4606 -0.5392  0.2374
  169SAPE   C3219081   5.621   2.017   7.152  0.6244 -0.4481  0.5543
  169SAPE   H2X19082   5.540   1.987   7.222  1.0311  1.2610  1.8232
  169SAPE   H2Y19083   5.637   2.126   7.163  0.7477 -0.0567 -2.5871
  169SAPE   C2319084   5.948   2.073   6.662  0.5203 -0.1533  0.0640
  169SAPE   H3R19085   5.930   2.114   6.560  1.3103  2.4613  0.8881
  169SAPE   H3S19086   5.881   1.985   6.673  1.2021 -0.9158 -1.6346
  169SAPE   C2419087   6.088   2.028   6.690 -0.8801  0.0289 -0.1878
  169SAPE   H4R19088   6.105   1.942   6.622  0.9148 -1.3988  1.9348
  169SAPE   H4S19089   6.100   1.989   6.793  1.7603  0.8876 -0.0846
  169SAPE   C2519090   6.198   2.133   6.665  0.2392 -0.1590 -0.2505
  169SAPE   H5R19091   6.220   2.159   6.561  3.1221  1.1085  0.5642
  169SAPE   C2619092   6.286   2.181   6.764 -0.8624  0.0300  0.2378
  169SAPE   H6R19093   6.345   2.271   6.741 -1.6017  0.7446  1.0603
  169SAPE   C2719094   6.278   2.144   6.911 -0.6990 -0.7943  0.5582
  169SAPE   H7R19095   6.371   2.162   6.969 -0.3157 -0.8266 -0.0269
  169SAPE   H7S19096   6.254   2.035   6.914 -1.9031 -0.4977  2.3280
  169SAPE   C2819097   6.170   2.213   6.988 -0.3415 -0.3736  0.4775
  169SAPE   H8R19098   6.100   2.265   6.919 -1.1011  0.3951  1.7862
  169SAPE   C2919099   6.150   2.206   7.119  0.9735  0.0662  0.5357
  169SAPE   H9R19100   6.062   2.258   7.160 -0.1214 -1.6499  0.4625
  169SAPE  C21019101   6.242   2.134   7.218 -0.2989 -0.4383  0.7798
  169SAPE  H10R19102   6.286   2.223   7.269  0.3018  0.1523 -0.6934
  169SAPE  H10S19103   6.322   2.082   7.160 -0.2483  1.2872 -0.8127
  169SAPE  C21119104   6.173   2.034   7.306 -0.2810  0.4864  0.4570
  169SAPE  H11R19105   6.129   1.951   7.248  0.8205  0.5059 -0.4235
  169SAPE  C21219106   6.150   2.044   7.439 -0.1847 -0.7052 -0.8266
  169SAPE  H12R19107   6.102   1.954   7.481 -1.6652  0.0846 -0.7903
  169SAPE  C21319108   6.196   2.159   7.528 -0.2157 -0.0553  0.4550
  169SAPE  H13R19109   6.241   2.239   7.465  0.2320 -3.4257 -3.9442
  169SAPE  H13S19110   6.278   2.125   7.595 -0.4178  0.9062  1.2190
  169SAPE  C21419111   6.089   2.234   7.609 -0.3925  0.0715 -0.0092
  169SAPE  H14R19112   6.010   2.287   7.554  0.5629  0.7880 -0.7295
  169SAPE  C21519113   6.109   2.283   7.729  0.2630  0.4850 -0.2425
  169SAPE  H15R19114   6.022   2.331   7.776  1.5698  0.7846  2.0641
  169SAPE  C21619115   6.219   2.267   7.835 -0.0895  0.5262  0.3404
  169SAPE  H16R19116   6.236   2.362   7.890 -0.1780  0.3708  0.6416
  169SAPE  H16S19117   6.311   2.242   7.778 -0.2760 -0.9951  0.6606
  169SAPE  C21719118   6.183   2.153   7.936 -0.3634  0.1374  0.0743
  169SAPE  H17R19119   6.277   2.114   7.980 -0.5494 -1.4683 -0.8432
  169SAPE  H17S19120   6.127   2.068   7.890 -0.0710  0.7678 -1.4910
  169SAPE  C21819121   6.085   2.203   8.045  0.7285  0.2400 -0.1933
  169SAPE  H18R19122   6.102   2.311   8.067  0.7407  0.1226  0.3819
  169SAPE  H18S19123   6.104   2.143   8.137 -1.8241 -0.2654  0.0734
  169SAPE  C21919124   5.944   2.170   8.005  0.4909 -0.5354 -0.3152
  169SAPE  H19R19125   5.935   2.065   7.968 -1.8090 -0.1619 -0.9710
  169SAPE  H19S19126   5.909   2.243   7.929 -0.9115  0.8894  1.6160
  169SAPE  C22019127   5.859   2.189   8.132  0.4837 -0.4467  0.1398
  169SAPE  H20R19128   5.894   2.124   8.215  1.1728  1.3657  1.3376
  169SAPE  H20S19129   5.752   2.175   8.108  0.6586  1.3527 -1.9735
  169SAPE  H20T19130   5.862   2.293   8.170  1.8252 -0.5355  0.3623
  169SAPE   C3319131   5.756   1.945   7.186 -0.1913 -0.2666  0.7716
  169SAPE   H3X19132   5.800   1.998   7.273  3.9279  0.2367 -1.3783
  169SAPE   H3Y19133   5.838   1.950   7.112 -2.3022 -2.4613 -1.9406
  169SAPE   C3419134   5.736   1.791   7.214  0.4755 -0.5325 -0.6291
  169SAPE   H4X19135   5.744   1.747   7.112  2.4850  1.2539 -1.3282
  169SAPE   H4Y19136   5.638   1.760   7.254  0.6683 -1.6228 -0.9702
  169SAPE   C3519137   5.858   1.721   7.285  0.3742 -0.7024  0.4647
  169SAPE   H5X19138   5.946   1.736   7.219 -0.1544 -0.1655 -0.1323
  169SAPE   H5Y19139   5.835   1.613   7.292  0.9918 -0.8092  0.9406
  169SAPE   C3619140   5.875   1.764   7.436 -0.2674  0.2617  0.9812
  169SAPE   H6X19141   5.894   1.873   7.448  1.4493  0.0628  0.3270
  169SAPE   H6Y19142   5.972   1.716   7.462  0.5092  0.6426 -1.0482
  169SAPE   C3719143   5.759   1.732   7.527 -0.0201  1.0385  0.0274
  169SAPE   H7X19144   5.722   1.633   7.490 -0.0800  1.4973 -1.2055
  169SAPE   H7Y19145   5.678   1.806   7.509  0.1285  1.4388  0.9815
  169SAPE   C3819146   5.790   1.734   7.677 -0.3536  0.2176 -0.5241
  169SAPE   H8X19147   5.877   1.673   7.707 -0.3117  0.9077  0.8263
  169SAPE   H8Y19148   5.711   1.671   7.725  1.3005 -1.2895  0.3388
  169SAPE   C3919149   5.792   1.866   7.753 -0.0824 -0.0370  0.4467
  169SAPE   H9X19150   5.720   1.929   7.697 -1.6895 -0.7364  1.6291
  169SAPE   H9Y19151   5.886   1.925   7.749  0.4745 -0.8488  1.2443
  169SAPE  C31019152   5.732   1.867   7.897  0.1295  0.1256  0.3345
  169SAPE  H10X19153   5.639   1.807   7.887  1.8206 -3.0151  1.9991
  169SAPE  H10Y19154   5.708   1.975   7.911 -1.6371 -0.3008  0.8677
  169SAPE  C31119155   5.813   1.800   8.006 -0.0348  0.4164 -0.1992
  169SAPE  H11X19156   5.900   1.869   8.013 -0.6645  1.1559  0.6254
  169SAPE  H11Y19157   5.829   1.695   7.974 -1.2221  0.2036 -0.1498
  169SAPE  C31219158   5.741   1.797   8.138  0.8017  0.4395  0.6336
  169SAPE  H12X19159   5.647   1.741   8.117 -1.3290  4.6215 -2.5212
  169SAPE  H12Y19160   5.702   1.896   8.168 -1.2556 -0.3597  0.7742
  169SAPE  C31319161   5.825   1.745   8.256 -0.2308 -0.6978  0.7265
  169SAPE  H13X19162   5.912   1.809   8.281 -1.7012  0.6330  2.7222
  169SAPE  H13Y19163   5.856   1.640   8.235  0.7563 -0.5396  1.3164
  169SAPE  C31419164   5.738   1.729   8.384 -0.3307 -0.5150 -0.4668
  169SAPE  H14X19165   5.659   1.653   8.362  0.1910 -0.9209 -0.9846
  169SAPE  H14Y19166   5.696   1.827   8.414  0.3201 -0.7817  1.4439
  169SAPE  C31519167   5.822   1.677   8.503  0.0799  0.3057  0.3699
  169SAPE  H15X19168   5.904   1.607   8.477 -0.1541 -1.1204  3.0767
  169SAPE  H15Y19169   5.756   1.612   8.565 -1.6869  1.4439 -0.2608
  169SAPE  C31619170   5.871   1.799   8.594  0.1951 -0.3908 -0.8890
  169SAPE  H16X19171   5.895   1.751   8.691 -1.0146 -1.6959 -1.1941
  169SAPE  H16Y19172   5.787   1.869   8.616  1.4222  0.4911  1.2403
  169SAPE  C31719173   5.997   1.872   8.535 -0.1099  0.4782  0.2034
  169SAPE  H17X19174   6.037   1.809   8.452 -1.1001  0.9288 -0.6398
  169SAPE  H17Y19175   6.072   1.885   8.616  1.0510  1.5373 -1.0064
  169SAPE  C31819176   5.951   2.004   8.472  0.3067 -0.1063 -0.0709
  169SAPE  H18X19177   5.843   2.018   8.492 -0.3052 -1.5624 -2.1364
  169SAPE  H18Y19178   5.961   2.007   8.362 -0.0711 -0.6284 -0.1224
  169SAPE  H18Z19179   6.007   2.084   8.526 -0.5745 -0.4929  1.4659
  170SAPE     N19180   5.836   6.349   6.212 -0.6281 -0.5173  0.1361
  170SAPE   HN119181   5.835   6.286   6.295  1.3196  0.6545  1.1443
  170SAPE   HN219182   5.894   6.429   6.246  2.2738 -2.3748 -0.0587
  170SAPE   HN319183   5.739   6.383   6.201 -0.4649  0.0593  0.4051
  170SAPE   C1219184   5.891   6.302   6.081  0.0209  0.2702  0.0804
  170SAPE  H12A19185   5.878   6.376   5.999  1.0759 -0.5589 -0.8547
  170SAPE  H12B19186   5.841   6.205   6.058  1.3709 -0.5394  0.4197
  170SAPE   C1119187   6.044   6.259   6.097 -0.4642 -0.1151 -0.0669
  170SAPE  H11A19188   6.085   6.231   5.997  0.1020 -2.0903  0.6865
  170SAPE  H11B19189   6.046   6.170   6.162 -0.0792 -0.9212 -1.1598
  170SAPE     P19190   6.275   6.332   6.205  0.0453  0.0384 -0.1650
  170SAPE   O1319191   6.349   6.272   6.090 -0.6818 -0.0363 -0.2357
  170SAPE   O1419192   6.325   6.454   6.266 -0.3920 -0.5689  0.0133
  170SAPE   O1219193   6.127   6.364   6.150 -0.5950  0.0758  0.1361
  170SAPE   O1119194   6.255   6.217   6.315 -0.1593  0.0577  0.0682
  170SAPE    C119195   6.163   6.246   6.421  0.5887 -0.3208  0.1096
  170SAPE    HA19196   6.187   6.345   6.464  0.1147 -0.3309  0.4022
  170SAPE    HB19197   6.059   6.256   6.383  0.5713 -0.2102  0.1863
  170SAPE    C219198   6.145   6.123   6.515  0.3694  0.0170  0.7497
  170SAPE    HS19199   6.054   6.138   6.577 -0.6871 -0.0698 -0.7235
  170SAPE   O2119200   6.254   6.116   6.608 -0.3056 -0.0429 -0.1839
  170SAPE   C2119201   6.255   6.222   6.696 -0.1585 -0.8989 -0.3307
  170SAPE   O2219202   6.172   6.313   6.700 -0.0426  0.7595  0.0074
  170SAPE   C2219203   6.376   6.216   6.791 -0.0130  0.1057  0.0831
  170SAPE   H2R19204   6.472   6.215   6.735  0.5531  0.4375  1.0422
  170SAPE   H2S19205   6.376   6.309   6.851 -0.3051 -2.2410  4.0604
  170SAPE    C319206   6.116   5.994   6.439 -0.1827 -0.4355  0.2465
  170SAPE    HX19207   6.213   5.965   6.393 -0.5086  1.7953 -2.0321
  170SAPE    HY19208   6.038   6.017   6.363  0.1103  0.3657  0.1807
  170SAPE   O3119209   6.075   5.894   6.535  0.2505  0.0250  0.1141
  170SAPE   C3119210   5.945   5.870   6.540  0.7660  0.8496 -0.2212
  170SAPE   O3219211   5.856   5.922   6.476  0.3223  0.1970  0.1963
  170SAPE   C3219212   5.917   5.775   6.654 -0.1479  0.4321 -0.3726
  170SAPE   H2X19213   6.011   5.719   6.674 -0.1051  0.7630  0.3738
  170SAPE   H2Y19214   5.848   5.697   6.614  0.1572  0.2414 -0.5406
  170SAPE   C2319215   6.357   6.102   6.889  0.1720 -0.3200  0.4621
  170SAPE   H3R19216   6.371   6.008   6.831  0.9279 -0.8963  1.5450
  170SAPE   H3S19217   6.257   6.090   6.936 -0.0715 -1.0516 -0.2042
  170SAPE   C2419218   6.463   6.090   7.004 -1.0937 -0.0387  0.3535
  170SAPE   H4R19219   6.565   6.096   6.962 -0.5389  1.2687  1.7640
  170SAPE   H4S19220   6.458   5.991   7.055  1.1186  0.7690  2.2996
  170SAPE   C2519221   6.440   6.204   7.096  0.3816 -0.1127 -0.3147
  170SAPE   H5R19222   6.402   6.300   7.057 -0.1237  0.0809  0.6199
  170SAPE   C2619223   6.480   6.210   7.224  0.7550  0.1996 -0.2000
  170SAPE   H6R19224   6.452   6.301   7.280  0.3791 -0.6283  0.9861
  170SAPE   C2719225   6.535   6.104   7.313 -0.6819 -0.1918 -0.2569
  170SAPE   H7R19226   6.634   6.131   7.354  0.4077 -3.3363 -0.5635
  170SAPE   H7S19227   6.558   6.013   7.254  1.5399  0.8391 -1.0977
  170SAPE   C2819228   6.441   6.064   7.424 -0.0342 -0.5162 -0.2588
  170SAPE   H8R19229   6.371   5.981   7.405  1.3049 -1.4201 -1.4117
  170SAPE   C2919230   6.463   6.084   7.551 -0.3812  0.1096 -0.3072
  170SAPE   H9R19231   6.388   6.045   7.621 -3.0599  2.0033 -1.9389
  170SAPE  C21019232   6.570   6.167   7.614  0.1299  0.1423  0.2363
  170SAPE  H10R19233   6.618   6.223   7.531  2.4735 -0.6478  0.9698
  170SAPE  H10S19234   6.654   6.107   7.654  1.6140  1.2036 -1.1405
  170SAPE  C21119235   6.518   6.263   7.712 -0.0749 -0.1258  0.3638
  170SAPE  H11R19236   6.465   6.349   7.668  0.1585  0.8681  1.9441
  170SAPE  C21219237   6.543   6.268   7.845  0.2420 -0.8081 -0.0044
  170SAPE  H12R19238   6.476   6.332   7.905 -0.7072 -0.8148 -1.0424
  170SAPE  C21319239   6.614   6.160   7.926  0.1310  1.1199 -0.5396
  170SAPE  H13R19240   6.622   6.208   8.026 -0.8698  1.7793 -0.7507
  170SAPE  H13S19241   6.714   6.159   7.879  0.4625 -1.3583  0.1113
  170SAPE  C21419242   6.553   6.028   7.925 -0.3273  0.0207 -1.2669
  170SAPE  H14R19243   6.515   5.995   7.828 -0.5250 -1.8686 -0.5897
  170SAPE  C21519244   6.545   5.940   8.019  0.4105 -0.3819 -0.7274
  170SAPE  H15R19245   6.479   5.853   8.004 -0.1920 -0.3164  1.2321
  170SAPE  C21619246   6.604   5.944   8.158  0.3835 -0.3846  0.0112
  170SAPE  H16R19247   6.663   6.037   8.176 -0.7029  0.3233 -0.0074
  170SAPE  H16S19248   6.678   5.864   8.177  0.4069 -0.4283 -0.2570
  170SAPE  C21719249   6.499   5.933   8.267 -0.0094  0.4057  0.7473
  170SAPE  H17R19250   6.545   5.956   8.365  0.4269  0.8834  0.4366
  170SAPE  H17S19251   6.454   5.831   8.267 -2.5244  1.3634 -1.8133
  170SAPE  C21819252   6.390   6.047   8.246  0.8384  0.1447 -0.0459
  170SAPE  H18R19253   6.327   6.024   8.158 -0.5609 -0.7309  1.1455
  170SAPE  H18S19254   6.440   6.143   8.221 -0.8740  0.9918 -0.3634
  170SAPE  C21919255   6.300   6.064   8.363 -0.2037 -0.2356 -0.7285
  170SAPE  H19R19256   6.254   5.968   8.393 -1.1394  0.7908  1.3647
  170SAPE  H19S19257   6.216   6.128   8.326 -0.2498  0.2864  0.2301
  170SAPE  C22019258   6.360   6.135   8.480 -0.1788 -0.1322 -0.0612
  170SAPE  H20R19259   6.289   6.146   8.565  0.5889 -1.8107  0.8578
  170SAPE  H20S19260   6.392   6.240   8.466 -0.4551  0.2776  2.0403
  170SAPE  H20T19261   6.451   6.086   8.521  0.9301  0.2178 -1.9753
  170SAPE   C3319262   5.857   5.844   6.779 -0.9263 -0.3015  0.2217
  170SAPE   H3X19263   5.763   5.899   6.755 -0.1840  1.2990  0.8246
  170SAPE   H3Y19264   5.927   5.926   6.807 -2.0947  0.3823  1.2058
  170SAPE   C3419265   5.838   5.750   6.895 -0.0165 -0.5389 -0.5693
  170SAPE   H4X19266   5.923   5.679   6.894  0.9820  0.2018  4.6696
  170SAPE   H4Y19267   5.753   5.682   6.877 -0.8923  0.6685 -1.1448
  170SAPE   C3519268   5.833   5.817   7.031  0.8012 -0.4097  0.2277
  170SAPE   H5X19269   5.751   5.892   7.039 -0.1834 -1.5370  0.9235
  170SAPE   H5Y19270   5.926   5.874   7.053  1.5310 -2.2367  2.1539
  170SAPE   C3619271   5.831   5.710   7.146 -0.5600 -0.3427 -0.5086
  170SAPE   H6X19272   5.922   5.647   7.137  1.0319  1.8455 -0.4464
  170SAPE   H6Y19273   5.745   5.641   7.132  0.9366 -2.1858 -1.0902
  170SAPE   C3719274   5.836   5.764   7.295 -0.1075  0.1074 -0.7550
  170SAPE   H7X19275   5.920   5.834   7.316  0.4724  0.6665 -4.2917
  170SAPE   H7Y19276   5.844   5.667   7.350 -1.3654  0.9078  0.9366
  170SAPE   C3819277   5.711   5.840   7.330  0.3562 -0.3468 -0.4840
  170SAPE   H8X19278   5.630   5.767   7.312 -0.5974  0.2859  1.0527
  170SAPE   H8Y19279   5.695   5.922   7.257  2.1182 -0.0477 -0.5771
  170SAPE   C3919280   5.713   5.893   7.475  0.4141  0.1940  0.2310
  170SAPE   H9X19281   5.802   5.959   7.479 -0.3090  1.1873  0.5143
  170SAPE   H9Y19282   5.724   5.798   7.530 -0.1991 -0.4372 -0.7006
  170SAPE  C31019283   5.589   5.983   7.513 -0.1449  0.5346 -0.0605
  170SAPE  H10X19284   5.500   5.917   7.505  0.4991 -0.1500 -2.2868
  170SAPE  H10Y19285   5.572   6.072   7.448  1.6779  1.6260  0.8757
  170SAPE  C31119286   5.611   6.047   7.655  0.1243 -0.3796  1.0107
  170SAPE  H11X19287   5.550   6.133   7.687  1.7239  1.0549  0.3521
  170SAPE  H11Y19288   5.720   6.068   7.660  0.9757 -3.4147 -1.2455
  170SAPE  C31219289   5.579   5.954   7.782 -0.5226  0.5385 -0.5370
  170SAPE  H12X19290   5.651   5.869   7.781 -2.6452 -1.3854  0.3011
  170SAPE  H12Y19291   5.473   5.920   7.780  0.1832 -2.0336  1.0476
  170SAPE  C31319292   5.590   6.033   7.922  0.2604  0.2370 -0.0098
  170SAPE  H13X19293   5.508   6.108   7.927 -0.6557 -0.6218 -1.7780
  170SAPE  H13Y19294   5.686   6.089   7.926 -0.5834  1.7146  0.5515
  170SAPE  C31419295   5.577   5.955   8.054 -0.2281 -0.3746 -0.8038
  170SAPE  H14X19296   5.547   6.026   8.134  1.0498 -2.6476  1.9029
  170SAPE  H14Y19297   5.672   5.908   8.088  0.4476  1.6539  0.2812
  170SAPE  C31519298   5.457   5.849   8.057 -0.4344 -0.5435 -0.4081
  170SAPE  H15X19299   5.489   5.756   8.005  1.1132  0.4816 -1.4043
  170SAPE  H15Y19300   5.378   5.897   7.995 -0.8340 -0.8931 -0.1722
  170SAPE  C31619301   5.407   5.836   8.201  0.2101  0.4336 -0.3576
  170SAPE  H16X19302   5.311   5.782   8.207  0.2450  0.3301 -0.6718
  170SAPE  H16Y19303   5.386   5.936   8.244  3.5398  1.2247 -0.2395
  170SAPE  C31719304   5.507   5.770   8.306  0.0172  0.0274  0.1356
  170SAPE  H17X19305   5.594   5.838   8.319  1.4481 -1.4352 -1.2442
  170SAPE  H17Y19306   5.539   5.682   8.246 -1.4239  0.5067 -1.4273
  170SAPE  C31819307   5.441   5.739   8.438 -0.6381 -0.4175 -0.4258
  170SAPE  H18X19308   5.463   5.812   8.519  2.0589 -0.2608 -1.1817
  170SAPE  H18Y19309   5.471   5.639   8.476  0.4952  0.0330 -0.0652
  170SAPE  H18Z19310   5.332   5.757   8.424 -0.4987  0.7532 -0.1536
  171SAPE     N19311   0.073   0.708   6.033 -0.0614  0.4786  0.2342
  171SAPE   HN119312  -0.020   0.711   5.987 -0.0654 -2.6738 -0.1395
  171SAPE   HN219313   0.110   0.804   6.050  1.0231  0.1328 -0.0565
  171SAPE   HN319314   0.138   0.660   5.968 -0.9220 -3.2244  1.8563
  171SAPE   C1219315   0.050   0.637   6.162 -0.5350 -0.0173 -0.4303
  171SAPE  H12A19316   0.127   0.648   6.241  0.3600 -3.4219 -0.6490
  171SAPE  H12B19317   0.055   0.529   6.134 -2.0972  0.0534 -1.0848
  171SAPE   C1119318  -0.090   0.673   6.227 -0.0247  0.9551 -0.0305
  171SAPE  H11A19319  -0.099   0.783   6.233  4.3273  1.4394  1.4491
  171SAPE  H11B19320  -0.086   0.634   6.331 -2.8867 -0.7965 -0.4812
  171SAPE     P19321  -0.286   0.690   6.061  0.0508  0.3133  0.1558
  171SAPE   O1319322  -0.204   0.761   5.957  0.7027 -0.4636 -0.3180
  171SAPE   O1419323  -0.397   0.608   6.006  0.0731  0.6597  0.3999
  171SAPE   O1219324  -0.193   0.602   6.156 -0.0730 -0.0885  1.2096
  171SAPE   O1119325  -0.353   0.786   6.165  0.0322 -0.6524 -0.1576
  171SAPE    C119326  -0.436   0.734   6.269 -0.0565  0.3516  0.5604
  171SAPE    HA19327  -0.535   0.693   6.239 -0.1037  0.4275  0.6101
  171SAPE    HB19328  -0.382   0.651   6.319 -0.8743 -0.3344  0.3297
  171SAPE    C219329  -0.460   0.831   6.386  0.2691  0.1238  0.1563
  171SAPE    HS19330  -0.545   0.900   6.366 -1.9292 -2.2901  0.6345
  171SAPE   O2119331  -0.349   0.914   6.409  0.7793  0.0101 -0.7387
  171SAPE   C2119332  -0.367   1.010   6.496  0.3473 -1.0148  0.3490
  171SAPE   O2219333  -0.470   1.057   6.542 -0.2128  0.3466  0.0593
  171SAPE   C2219334  -0.232   1.062   6.541  0.4412 -0.1058  0.6577
  171SAPE   H2R19335  -0.161   0.980   6.518  2.5977  1.3126  1.8984
  171SAPE   H2S19336  -0.217   1.156   6.484 -2.1104 -0.9244 -1.5379
  171SAPE    C319337  -0.506   0.746   6.507 -0.2627  0.0583 -0.6407
  171SAPE    HX19338  -0.600   0.707   6.463 -0.2193 -0.2249 -0.4796
  171SAPE    HY19339  -0.538   0.806   6.594 -0.6018 -1.1332  0.0721
  171SAPE   O3119340  -0.420   0.631   6.541  0.4013  0.1217  0.2020
  171SAPE   C3119341  -0.338   0.662   6.649 -0.6280 -0.0218  0.5568
  171SAPE   O3219342  -0.348   0.757   6.721 -0.1561  0.1908 -0.2239
  171SAPE   C3219343  -0.238   0.550   6.672  0.6230  0.1233 -0.8411
  171SAPE   H2X19344  -0.173   0.551   6.582  1.1978 -1.4122 -0.4812
  171SAPE   H2Y19345  -0.294   0.454   6.682 -0.8425  1.1358  1.8109
  171SAPE   C2319346  -0.223   1.097   6.685  0.9948  0.3829  0.3475
  171SAPE   H3R19347  -0.224   1.009   6.753 -0.4507  0.7048  0.7916
  171SAPE   H3S19348  -0.310   1.159   6.718  2.5671  2.4665  0.8347
  171SAPE   C2419349  -0.106   1.192   6.709 -0.0520 -0.4775  0.1775
  171SAPE   H4R19350  -0.095   1.265   6.626  0.8867 -0.8073 -0.0062
  171SAPE   H4S19351  -0.011   1.134   6.710  0.1015 -0.2710 -0.9326
  171SAPE   C2519352  -0.130   1.261   6.845 -0.2275  0.4140  0.2173
  171SAPE   H5R19353  -0.180   1.360   6.849  0.6653  0.8436  1.2957
  171SAPE   C2619354  -0.088   1.210   6.966 -0.0572  0.2128 -0.4636
  171SAPE   H6R19355  -0.121   1.259   7.059 -1.5495  0.0995 -0.9027
  171SAPE   C2719356  -0.006   1.081   6.985 -0.0460  0.4072 -1.5670
  171SAPE   H7R19357   0.082   1.097   7.052 -0.4942 -3.2103  0.1477
  171SAPE   H7S19358   0.040   1.055   6.887  1.9281 -1.1170 -0.3234
  171SAPE   C2819359  -0.073   0.955   7.033  0.4491  0.7000 -0.2131
  171SAPE   H8R19360  -0.121   0.897   6.953  1.0392 -3.3644  2.1240
  171SAPE   C2919361  -0.084   0.909   7.160  0.4959 -1.0609 -0.3796
  171SAPE   H9R19362  -0.141   0.817   7.181  0.2035 -1.2958 -2.0052
  171SAPE  C21019363  -0.030   0.983   7.281 -1.0591  0.1161 -0.6121
  171SAPE  H10R19364   0.063   1.035   7.250 -0.5197 -0.6118 -0.2540
  171SAPE  H10S19365   0.017   0.915   7.356 -1.1912  0.2413 -0.4163
  171SAPE  C21119366  -0.108   1.092   7.337  0.4026 -0.0597 -0.1707
  171SAPE  H11R19367  -0.176   1.136   7.263  0.4435 -0.5624 -0.5078
  171SAPE  C21219368  -0.105   1.125   7.466  0.3881 -0.7481 -0.5290
  171SAPE  H12R19369  -0.162   1.208   7.510 -0.4662 -0.9853 -1.1518
  171SAPE  C21319370  -0.012   1.063   7.569  0.4111 -0.1549 -0.2811
  171SAPE  H13R19371   0.093   1.041   7.538  0.6136 -0.0671  0.3297
  171SAPE  H13S19372  -0.063   0.965   7.585  2.2534 -1.3399 -1.2571
  171SAPE  C21419373  -0.007   1.149   7.694 -0.0123 -0.3938 -0.0443
  171SAPE  H14R19374   0.007   1.257   7.679  0.4107 -0.7539 -2.7984
  171SAPE  C21519375  -0.013   1.108   7.825  0.1120 -0.1429  0.1198
  171SAPE  H15R19376  -0.014   1.181   7.907 -0.0547  0.9975 -0.8713
  171SAPE  C21619377  -0.033   0.965   7.878  0.2520  0.6382 -0.8874
  171SAPE  H16R19378   0.065   0.944   7.927 -0.8126  1.1283  1.6410
  171SAPE  H16S19379  -0.055   0.894   7.796 -2.6949  3.9953 -3.3376
  171SAPE  C21719380  -0.146   0.942   7.977  0.5978  0.6625  0.4731
  171SAPE  H17R19381  -0.141   0.842   8.025 -0.2974  0.2874 -0.1998
  171SAPE  H17S19382  -0.246   0.943   7.929  1.6216  0.4274 -1.7699
  171SAPE  C21819383  -0.139   1.041   8.092 -0.4939  0.4966 -0.2646
  171SAPE  H18R19384  -0.169   1.141   8.053 -1.2918 -0.6115 -2.6926
  171SAPE  H18S19385  -0.033   1.042   8.125 -0.0588 -0.5835 -1.5439
  171SAPE  C21919386  -0.224   1.013   8.212 -0.4159 -0.3295  0.0557
  171SAPE  H19R19387  -0.220   0.907   8.243 -1.8848 -0.9483 -1.7238
  171SAPE  H19S19388  -0.330   1.036   8.190 -0.6378  1.1767  2.3785
  171SAPE  C22019389  -0.169   1.103   8.326 -0.5786 -0.1306 -0.1629
  171SAPE  H20R19390  -0.064   1.087   8.358 -0.7191 -1.1236 -0.1621
  171SAPE  H20S19391  -0.227   1.090   8.420  0.1900 -2.1364  0.0809
  171SAPE  H20T19392  -0.176   1.211   8.300 -1.9098  0.8256  3.5743
  171SAPE   C3319393  -0.157   0.575   6.800 -0.0379  0.5350  0.0517
  171SAPE   H3X19394  -0.095   0.667   6.793 -0.4208  0.7933  0.0780
  171SAPE   H3Y19395  -0.085   0.490   6.802  1.9267  2.0396 -1.7460
  171SAPE   C3419396  -0.230   0.573   6.943  0.1110  0.1590  0.3012
  171SAPE   H4X19397  -0.317   0.506   6.936 -0.1616  0.6766 -3.7580
  171SAPE   H4Y19398  -0.263   0.677   6.965 -1.8259  0.3512 -2.9227
  171SAPE   C3519399  -0.124   0.521   7.040 -0.3977 -0.0397  0.7505
  171SAPE   H5X19400  -0.024   0.569   7.031 -0.8303  1.0693  1.6455
  171SAPE   H5Y19401  -0.113   0.415   7.009 -0.4518  0.5288 -1.3629
  171SAPE   C3619402  -0.178   0.523   7.187  0.3714 -0.1706 -0.4047
  171SAPE   H6X19403  -0.270   0.461   7.191 -0.0314  0.4863  1.6586
  171SAPE   H6Y19404  -0.208   0.628   7.209  0.3151 -0.4440  0.9177
  171SAPE   C3719405  -0.086   0.473   7.307 -0.1399  0.0591  0.5537
  171SAPE   H7X19406   0.015   0.519   7.309 -0.5032  0.9067 -0.1674
  171SAPE   H7Y19407  -0.056   0.368   7.289  0.2258  0.3292 -0.4527
  171SAPE   C3819408  -0.151   0.489   7.445 -0.5644  0.1847  0.3473
  171SAPE   H8X19409  -0.237   0.418   7.454 -1.3946  1.2399  0.9387
  171SAPE   H8Y19410  -0.195   0.590   7.453  2.2932  1.4291  1.8911
  171SAPE   C3919411  -0.047   0.466   7.565  0.7411 -0.1377  0.2718
  171SAPE   H9X19412   0.039   0.534   7.547  0.8382  0.5795  2.9766
  171SAPE   H9Y19413  -0.025   0.359   7.548 -0.1568 -0.2149 -0.4829
  171SAPE  C31019414  -0.116   0.503   7.694 -0.4303 -0.1828 -0.2892
  171SAPE  H10X19415  -0.214   0.452   7.697 -1.1463  1.1648 -0.2984
  171SAPE  H10Y19416  -0.145   0.609   7.707 -0.9715 -0.4623  1.0101
  171SAPE  C31119417  -0.027   0.463   7.817  0.0448 -0.2958 -0.7802
  171SAPE  H11X19418   0.075   0.505   7.813 -0.6868  1.8708  1.2334
  171SAPE  H11Y19419  -0.029   0.352   7.816  0.8955 -0.3217 -1.5132
  171SAPE  C31219420  -0.088   0.510   7.955  0.1249  0.3517 -0.7276
  171SAPE  H12X19421  -0.197   0.486   7.961 -0.2930  2.1963 -0.5297
  171SAPE  H12Y19422  -0.088   0.621   7.951  0.1150  0.5607  2.5401
  171SAPE  C31319423  -0.024   0.445   8.073 -0.1223  0.0945  0.0504
  171SAPE  H13X19424   0.085   0.467   8.072  0.0072 -0.5374 -0.3381
  171SAPE  H13Y19425  -0.034   0.335   8.069  1.8661 -0.1458 -4.3741
  171SAPE  C31419426  -0.071   0.494   8.211  0.0255 -0.9399  0.1040
  171SAPE  H14X19427  -0.178   0.464   8.222 -0.6732  1.3538  0.1348
  171SAPE  H14Y19428  -0.066   0.604   8.219  1.9301 -0.9936 -0.0654
  171SAPE  C31519429  -0.001   0.439   8.337  0.0361  0.3600  0.0873
  171SAPE  H15X19430   0.001   0.328   8.332  2.2890  0.3991 -1.7968
  171SAPE  H15Y19431  -0.061   0.478   8.422 -0.8279 -0.0874 -0.3054
  171SAPE  C31619432   0.145   0.478   8.349 -0.5441  0.1665 -0.1153
  171SAPE  H16X19433   0.158   0.588   8.344  0.4975  0.0250 -4.0434
  171SAPE  H16Y19434   0.192   0.452   8.252  0.7528  2.2950 -0.1215
  171SAPE  C31719435   0.221   0.412   8.459  0.1156  0.8687 -0.6914
  171SAPE  H17X19436   0.226   0.303   8.438 -2.1048 -0.3149  3.6004
  171SAPE  H17Y19437   0.170   0.423   8.557 -1.9129 -2.4813 -1.1891
  171SAPE  C31819438   0.364   0.459   8.473  0.1154 -0.3586  0.9664
  171SAPE  H18X19439   0.443   0.399   8.423 -1.0006 -2.2222  1.3297
  171SAPE  H18Y19440   0.389   0.439   8.580  0.5603  0.1915  0.9673
  171SAPE  H18Z19441   0.378   0.568   8.456  0.2486 -0.1063  2.5755
  172SAPE     N19442   2.182   5.175   6.082  0.5654 -0.2444  0.2449
  172SAPE   HN119443   2.200   5.236   6.000  2.5103 -2.2050 -0.8896
  172SAPE   HN219444   2.271   5.131   6.115  3.0445  1.7351 -3.1594
  172SAPE   HN319445   2.124   5.100   6.038  0.8930 -0.9221  0.9303
  172SAPE   C1219446   2.093   5.254   6.173 -0.0792 -0.5203 -1.1729
  172SAPE  H12A19447   2.146   5.352   6.176 -1.2922  0.1682 -1.4094
  172SAPE  H12B19448   2.108   5.207   6.272  1.0366 -2.2394 -2.1225
  172SAPE   C1119449   1.947   5.252   6.139  0.2138  0.2718  0.0052
  172SAPE  H11A19450   1.909   5.153   6.173  1.9442 -0.8401 -1.1435
  172SAPE  H11B19451   1.938   5.257   6.028 -2.0501 -0.1736  0.1175
  172SAPE     P19452   1.869   5.499   6.172  0.6957 -0.0981 -0.0874
  172SAPE   O1319453   2.005   5.557   6.154 -0.7185 -0.1511  0.1127
  172SAPE   O1419454   1.777   5.520   6.061 -0.3067  0.2017 -0.1283
  172SAPE   O1219455   1.870   5.351   6.213 -0.6766  0.5390 -0.2772
  172SAPE   O1119456   1.803   5.569   6.303 -0.0788 -0.2020  0.4356
  172SAPE    C119457   1.773   5.485   6.409 -0.4779  0.2676 -0.2723
  172SAPE    HA19458   1.712   5.398   6.378  2.8786 -2.2098 -0.4551
  172SAPE    HB19459   1.857   5.431   6.456 -0.3247 -0.2481 -1.1050
  172SAPE    C219460   1.695   5.564   6.514 -0.5572 -0.4146  0.2403
  172SAPE    HS19461   1.620   5.622   6.457  0.6812  1.2714  0.2433
  172SAPE   O2119462   1.785   5.669   6.559  0.7700 -0.4967 -0.2136
  172SAPE   C2119463   1.729   5.776   6.600 -0.1114 -0.4284 -0.2704
  172SAPE   O2219464   1.605   5.793   6.607 -0.7154 -0.3113  0.2096
  172SAPE   C2219465   1.843   5.867   6.662 -0.1423 -0.6283  0.1722
  172SAPE   H2R19466   1.928   5.802   6.693 -1.0168 -1.3695  1.0499
  172SAPE   H2S19467   1.878   5.928   6.575  1.9223 -2.0609 -0.0734
  172SAPE    C319468   1.635   5.469   6.631  0.5737 -0.1071 -0.1173
  172SAPE    HX19469   1.725   5.431   6.683 -0.2762 -3.0509 -0.6549
  172SAPE    HY19470   1.578   5.383   6.589 -0.1623 -0.7941  2.1675
  172SAPE   O3119471   1.559   5.542   6.726 -0.2844  0.2193 -0.3223
  172SAPE   C3119472   1.431   5.541   6.717 -0.5076  1.1072  0.7398
  172SAPE   O3219473   1.368   5.464   6.641 -0.3341  0.1426 -0.6663
  172SAPE   C3219474   1.376   5.640   6.819 -0.5096  0.3800 -0.1573
  172SAPE   H2X19475   1.267   5.623   6.829 -0.9545  1.8911 -2.0075
  172SAPE   H2Y19476   1.378   5.741   6.774 -0.1862  0.2541 -0.4306
  172SAPE   C2319477   1.810   5.951   6.787  0.0605  0.4919  0.7419
  172SAPE   H3R19478   1.732   6.025   6.758  0.9142  0.0386 -3.4211
  172SAPE   H3S19479   1.899   6.012   6.811 -1.0664  1.9011  1.5286
  172SAPE   C2419480   1.768   5.860   6.902 -0.3106 -0.3586 -0.7185
  172SAPE   H4R19481   1.849   5.786   6.917  0.4487  0.5770 -0.0116
  172SAPE   H4S19482   1.674   5.802   6.895  1.0888 -3.0258  1.1030
  172SAPE   C2519483   1.759   5.946   7.025  0.3660 -0.8126  0.6560
  172SAPE   H5R19484   1.722   6.049   7.012  1.2061 -0.5732  0.1011
  172SAPE   C2619485   1.818   5.937   7.151 -1.0963 -0.8462  0.8607
  172SAPE   H6R19486   1.799   6.021   7.220 -0.9373  0.2779 -0.4170
  172SAPE   C2719487   1.898   5.821   7.198  0.2278  0.1213 -0.4217
  172SAPE   H7R19488   2.005   5.841   7.175  0.5910 -2.5644 -1.3676
  172SAPE   H7S19489   1.867   5.728   7.145 -0.5015  0.1982 -0.1450
  172SAPE   C2819490   1.889   5.796   7.343  0.1124 -0.0400  0.2112
  172SAPE   H8R19491   1.822   5.715   7.375 -0.4930 -1.0943 -3.2974
  172SAPE   C2919492   1.940   5.867   7.445 -0.5615 -0.2051 -0.1967
  172SAPE   H9R19493   1.907   5.851   7.549  2.3811  3.5847  1.5607
  172SAPE  C21019494   2.032   5.995   7.428 -0.2908  0.1205 -0.6217
  172SAPE  H10R19495   1.975   6.079   7.474  0.2035  0.5360 -0.7656
  172SAPE  H10S19496   2.050   6.031   7.325  3.0179 -1.1671 -0.6002
  172SAPE  C21119497   2.164   5.972   7.503 -0.3074  0.4811  0.6058
  172SAPE  H11R19498   2.241   5.933   7.434 -2.0026 -0.3143 -0.9173
  172SAPE  C21219499   2.184   5.977   7.640  0.3015 -0.1413  0.2554
  172SAPE  H12R19500   2.286   5.967   7.682  0.9454  1.5551 -0.7750
  172SAPE  C21319501   2.085   6.018   7.742  0.3858  0.1694 -0.0505
  172SAPE  H13R19502   1.984   5.976   7.722  0.0241  1.0116 -0.0293
  172SAPE  H13S19503   2.069   6.126   7.725  1.9094  0.3047 -0.8733
  172SAPE  C21419504   2.136   5.978   7.882  0.2163  0.6588 -0.6778
  172SAPE  H14R19505   2.176   5.877   7.901 -2.1613 -0.2449 -0.1500
  172SAPE  C21519506   2.136   6.058   7.995  0.6801  0.1517  0.0113
  172SAPE  H15R19507   2.194   6.018   8.079  1.2870 -2.4000 -1.5271
  172SAPE  C21619508   2.069   6.197   7.998 -0.0018 -0.4035  0.6475
  172SAPE  H16R19509   2.064   6.228   8.105  1.2442 -0.0427  0.6178
  172SAPE  H16S19510   1.963   6.192   7.964 -0.6538  1.1256  2.2631
  172SAPE  C21719511   2.135   6.303   7.913 -0.4983 -0.0328 -0.3354
  172SAPE  H17R19512   2.086   6.401   7.930  1.6172  0.6906  2.5303
  172SAPE  H17S19513   2.137   6.276   7.805 -0.0838 -1.2719 -0.0390
  172SAPE  C21819514   2.276   6.341   7.963  0.3460  0.9150 -0.4873
  172SAPE  H18R19515   2.343   6.261   7.924 -0.1749 -0.1316  0.6997
  172SAPE  H18S19516   2.277   6.324   8.073 -1.0226 -1.2598 -0.7523
  172SAPE  C21919517   2.327   6.479   7.924  0.1541 -0.4972  0.2889
  172SAPE  H19R19518   2.436   6.481   7.946 -0.0773  1.3513  1.5213
  172SAPE  H19S19519   2.279   6.554   7.991  0.1281 -1.6637  1.6341
  172SAPE  C22019520   2.311   6.531   7.784 -0.0551 -0.0743 -0.0687
  172SAPE  H20R19521   2.378   6.619   7.778  0.3699 -0.4826 -2.5984
  172SAPE  H20S19522   2.209   6.570   7.764  0.2235  0.1797 -1.0853
  172SAPE  H20T19523   2.345   6.457   7.708 -0.7232 -0.6494  0.1799
  172SAPE   C3319524   1.451   5.637   6.957 -0.1917  1.0283 -0.2428
  172SAPE   H3X19525   1.428   5.743   6.980 -0.4773  1.2772 -1.5594
  172SAPE   H3Y19526   1.560   5.620   6.956 -0.3734 -0.5614  1.4902
  172SAPE   C3419527   1.400   5.538   7.066 -0.1193  0.6974 -0.1542
  172SAPE   H4X19528   1.419   5.435   7.029 -2.7113  0.5534 -1.2806
  172SAPE   H4Y19529   1.295   5.568   7.085 -0.2478  1.0919 -1.3983
  172SAPE   C3519530   1.471   5.563   7.202  0.3150  0.1234 -0.3500
  172SAPE   H5X19531   1.458   5.672   7.219 -0.4403  0.2411 -1.5697
  172SAPE   H5Y19532   1.574   5.523   7.206 -0.6259 -2.5702 -0.8679
  172SAPE   C3619533   1.396   5.490   7.320  0.3934 -0.1210  1.3565
  172SAPE   H6X19534   1.361   5.397   7.270 -0.2767  1.4475 -1.3142
  172SAPE   H6Y19535   1.304   5.547   7.343  1.5358  3.1167 -1.2694
  172SAPE   C3719536   1.484   5.468   7.439  0.6758  0.0407 -0.4039
  172SAPE   H7X19537   1.579   5.424   7.403  1.1145  0.7626 -0.1451
  172SAPE   H7Y19538   1.427   5.386   7.490  1.4323 -0.8335 -0.9353
  172SAPE   C3819539   1.511   5.600   7.511  0.1336 -0.1791 -0.5934
  172SAPE   H8X19540   1.405   5.631   7.524  0.8530  2.8577 -1.3846
  172SAPE   H8Y19541   1.558   5.662   7.432  1.1712  0.4912  0.5240
  172SAPE   C3919542   1.585   5.593   7.646  0.6604 -0.6972  0.8626
  172SAPE   H9X19543   1.682   5.540   7.639  0.8272 -0.2512 -0.3650
  172SAPE   H9Y19544   1.522   5.551   7.728 -1.0305  0.7197  0.3574
  172SAPE  C31019545   1.629   5.739   7.684  0.2557 -0.2275 -0.0651
  172SAPE  H10X19546   1.530   5.789   7.695 -0.8255 -1.8519 -1.6407
  172SAPE  H10Y19547   1.687   5.783   7.600  0.2737 -0.9773 -0.4581
  172SAPE  C31119548   1.719   5.741   7.805  0.4617  0.5483  0.2498
  172SAPE  H11X19549   1.821   5.729   7.761  0.7809  1.3922  0.7328
  172SAPE  H11Y19550   1.677   5.656   7.863  0.1487  0.4073 -0.1728
  172SAPE  C31219551   1.712   5.870   7.881  0.6377  1.2807  0.0585
  172SAPE  H12X19552   1.604   5.895   7.894  0.0597 -1.0587  0.1859
  172SAPE  H12Y19553   1.756   5.954   7.824 -0.0611  0.7067 -1.3827
  172SAPE  C31319554   1.777   5.867   8.015  0.1620  0.0883 -0.9574
  172SAPE  H13X19555   1.888   5.875   8.006  0.1902 -1.5245 -2.6760
  172SAPE  H13Y19556   1.763   5.769   8.066 -0.5581  1.1930  1.0860
  172SAPE  C31419557   1.727   5.964   8.125  0.1809 -0.1348  0.2910
  172SAPE  H14X19558   1.617   5.948   8.127  0.4349 -2.4297 -0.7238
  172SAPE  H14Y19559   1.758   6.062   8.083 -1.3570 -0.4455 -1.7186
  172SAPE  C31519560   1.784   5.964   8.263 -0.1232  0.0285 -0.2798
  172SAPE  H15X19561   1.734   5.879   8.315  2.8694 -2.1642 -0.6950
  172SAPE  H15Y19562   1.764   6.060   8.314  1.6552 -0.1158  0.7930
  172SAPE  C31619563   1.935   5.934   8.267  0.5724 -0.3176 -0.2016
  172SAPE  H16X19564   1.979   6.029   8.230  0.5368  0.1020  0.8040
  172SAPE  H16Y19565   1.964   5.842   8.212  1.5944  0.2509 -0.6335
  172SAPE  C31719566   1.977   5.902   8.412  0.0959 -0.4425  0.4556
  172SAPE  H17X19567   1.909   5.817   8.435 -2.6658  1.4546 -0.1331
  172SAPE  H17Y19568   1.938   5.983   8.478  0.3588  0.4786 -0.4851
  172SAPE  C31819569   2.120   5.865   8.439 -0.7397  0.7879 -0.5444
  172SAPE  H18X19570   2.178   5.821   8.355 -0.2965  3.1653 -1.5540
  172SAPE  H18Y19571   2.127   5.784   8.515  0.6294  2.0121  0.6851
  172SAPE  H18Z19572   2.164   5.964   8.463 -2.1849  1.2539  0.3202
  173SOPE     N19573   0.194   3.307  11.113  0.0234 -0.1571 -0.3368
  173SOPE   HN119574   0.165   3.262  11.024 -0.7191  1.7342 -1.1043
  173SOPE   HN219575   0.130   3.279  11.191  1.0803 -1.4591  0.1110
  173SOPE   HN319576   0.175   3.409  11.104  0.5889 -0.1935 -2.4447
  173SOPE   C1219577   0.332   3.268  11.143  0.2467  0.1105 -0.4875
  173SOPE  H12A19578   0.337   3.165  11.183  1.0357  1.1580  2.3534
  173SOPE  H12B19579   0.389   3.335  11.211 -0.7435 -0.6593  1.1479
  173SOPE   C1119580   0.419   3.258  11.019  0.8481  0.3083 -0.0817
  173SOPE  H11A19581   0.525   3.244  11.052  1.2026  0.3262 -1.1658
  173SOPE  H11B19582   0.419   3.358  10.971  1.8599 -0.3353 -1.5031
  173SOPE     P19583   0.479   3.100  10.813  0.0092  0.2178  0.4122
  173SOPE   O1319584   0.434   2.960  10.771 -0.2183 -0.9882  0.3706
  173SOPE   O1419585   0.616   3.120  10.847 -0.0563 -0.0008  0.0066
  173SOPE   O1219586   0.389   3.144  10.931  0.2127 -0.3019  0.3126
  173SOPE   O1119587   0.439   3.203  10.699  0.0834 -0.4527 -0.7175
  173SOPE    C119588   0.299   3.218  10.672  0.5291 -0.4257  0.1340
  173SOPE    HA19589   0.235   3.194  10.760 -0.4649 -0.2102 -0.5137
  173SOPE    HB19590   0.273   3.145  10.593  1.5772  0.6513 -1.2764
  173SOPE    C219591   0.269   3.360  10.608  0.3887  0.7087 -0.2839
  173SOPE    HS19592   0.160   3.372  10.591  0.7064  3.2826 -0.9706
  173SOPE   O2119593   0.341   3.383  10.489  0.3682  0.8429  0.3553
  173SOPE   C2119594   0.295   3.312  10.382 -0.3012  0.3436  0.5551
  173SOPE   O2219595   0.212   3.224  10.385 -0.6659  0.0646 -0.1490
  173SOPE   C2219596   0.349   3.376  10.252 -0.7727 -0.1410 -0.3062
  173SOPE   H2R19597   0.411   3.295  10.208 -3.2237 -3.0556  1.2110
  173SOPE   H2S19598   0.410   3.464  10.281 -1.0766 -0.6234  1.9322
  173SOPE    C319599   0.299   3.475  10.710 -0.6901 -0.1558  0.9485
  173SOPE    HX19600   0.405   3.457  10.736  0.1302  0.5325 -1.6299
  173SOPE    HY19601   0.232   3.464  10.798 -2.6147 -0.0383 -0.4268
  173SOPE   O3119602   0.288   3.608  10.644 -0.1766  0.1339 -0.2117
  173SOPE   C3119603   0.362   3.704  10.693  0.4911  0.6786  0.5708
  173SOPE   O3219604   0.448   3.685  10.775  0.6215  0.4399  0.1974
  173SOPE   C3219605   0.314   3.844  10.642  0.0386 -0.0298 -0.5208
  173SOPE   H2X19606   0.335   3.922  10.718  1.8614  0.4048 -1.4062
  173SOPE   H2Y19607   0.203   3.844  10.639 -0.0920  0.0944  2.2008
  173SOPE   C2319608   0.227   3.415  10.170 -0.5506  0.0461 -0.6898
  173SOPE   H3R19609   0.164   3.483  10.231 -0.8716  1.2756 -2.3152
  173SOPE   H3S19610   0.152   3.333  10.160  0.1973 -0.5680 -1.5005
  173SOPE   C2419611   0.267   3.463  10.035  0.9849  0.2699 -0.8810
  173SOPE   H4R19612   0.212   3.552   9.998 -1.3478 -0.8441 -0.3169
  173SOPE   H4S19613   0.374   3.492  10.041  0.6091  1.6587 -0.5437
  173SOPE   C2519614   0.251   3.353   9.933 -0.0920 -0.1831  0.2255
  173SOPE   H5R19615   0.303   3.265   9.976 -2.7114 -1.8582  0.2101
  173SOPE   H5S19616   0.141   3.336   9.929 -0.2314  0.3374  1.5012
  173SOPE   C2619617   0.300   3.373   9.786 -0.9090  0.2739 -0.1763
  173SOPE   H6R19618   0.408   3.395   9.800 -0.4802 -1.4988 -0.5024
  173SOPE   H6S19619   0.286   3.278   9.732 -0.6087  0.9729 -1.5286
  173SOPE   C2719620   0.235   3.493   9.709 -0.2402 -0.4988 -0.4272
  173SOPE   H7R19621   0.125   3.476   9.701 -0.5311  0.6394  0.7381
  173SOPE   H7S19622   0.256   3.592   9.754  1.6002 -1.5242  1.1151
  173SOPE   C2819623   0.284   3.506   9.558 -0.4119  1.2371 -0.3057
  173SOPE   H8R19624   0.264   3.421   9.490 -0.1691  0.8080  0.1470
  173SOPE   H8S19625   0.232   3.593   9.512 -0.3865  1.5786  0.2993
  173SOPE   C2919626   0.432   3.527   9.553 -0.0445 -0.2047 -0.1714
  173SOPE   H9119627   0.487   3.516   9.648 -0.7200  1.7181  0.4882
  173SOPE  C21019628   0.500   3.564   9.443  0.2641  0.3151 -0.6905
  173SOPE  H10119629   0.607   3.582   9.458  0.1366  1.4596 -1.0744
  173SOPE  C21119630   0.441   3.579   9.301 -0.1742 -0.0435 -0.3768
  173SOPE  H11R19631   0.345   3.523   9.295  1.3401 -3.0256  1.1379
  173SOPE  H11S19632   0.520   3.536   9.236  1.2112  1.6222  0.1434
  173SOPE  C21219633   0.429   3.727   9.243  0.0835 -0.2722 -0.2027
  173SOPE  H12R19634   0.528   3.773   9.260  1.1092 -2.0471 -1.0457
  173SOPE  H12S19635   0.352   3.779   9.304 -0.0724 -3.5340  2.7466
  173SOPE  C21319636   0.408   3.716   9.092 -0.1109 -0.2662  0.3414
  173SOPE  H13R19637   0.324   3.651   9.061 -0.0983  0.0428 -0.3742
  173SOPE  H13S19638   0.494   3.660   9.049 -1.4917 -2.2978  0.1048
  173SOPE  C21419639   0.409   3.852   9.018 -0.5219 -0.5544 -0.3620
  173SOPE  H14R19640   0.498   3.903   9.060 -0.2724  0.0711 -1.6222
  173SOPE  H14S19641   0.328   3.922   9.045  0.0574  0.5781 -1.4658
  173SOPE  C21519642   0.409   3.836   8.863 -0.0230 -0.6600  0.2133
  173SOPE  H15R19643   0.314   3.786   8.832 -1.8740  2.9284 -0.4190
  173SOPE  H15S19644   0.500   3.779   8.835  0.9298  1.2322 -0.6677
  173SOPE  C21619645   0.417   3.971   8.790  0.3181  0.2772  0.1783
  173SOPE  H16R19646   0.512   4.015   8.828 -0.5039 -0.2784  3.0854
  173SOPE  H16S19647   0.332   4.032   8.826 -0.0555  0.1908 -0.5286
  173SOPE  C21719648   0.421   3.966   8.639 -0.7730  0.4952  0.6144
  173SOPE  H17R19649   0.361   3.885   8.593  2.2056  0.7336 -4.3102
  173SOPE  H17S19650   0.526   3.945   8.614 -0.8533 -0.0891  0.7634
  173SOPE  C21819651   0.397   4.104   8.579  0.6814  0.6137 -0.0566
  173SOPE  H18R19652   0.410   4.083   8.470 -0.0355  2.4589 -0.5282
  173SOPE  H18S19653   0.468   4.186   8.604  2.2744 -0.8500  0.5084
  173SOPE  H18T19654   0.292   4.135   8.594 -0.5471 -3.5000  1.3336
  173SOPE   C3319655   0.370   3.897  10.500 -0.4514 -0.1140  0.5291
  173SOPE   H3X19656   0.481   3.900  10.505 -0.5030  1.9204  1.5408
  173SOPE   H3Y19657   0.320   3.993  10.479  0.9472  1.0088  2.0599
  173SOPE   C3419658   0.324   3.818  10.374 -0.1946  0.4603  0.9002
  173SOPE   H4X19659   0.213   3.814  10.382 -0.2197  0.5208  0.6044
  173SOPE   H4Y19660   0.364   3.715  10.361 -0.8036  0.2656  0.4981
  173SOPE   C3519661   0.375   3.905  10.254 -0.0963  0.2144 -0.1400
  173SOPE   H5X19662   0.482   3.930  10.272 -0.0538 -1.1146  1.8212
  173SOPE   H5Y19663   0.312   3.996  10.256 -2.4029 -1.3099  1.5652
  173SOPE   C3619664   0.350   3.829  10.122  0.0611  0.3387 -1.1471
  173SOPE   H6X19665   0.247   3.787  10.116 -0.3593  0.9226  1.1646
  173SOPE   H6Y19666   0.422   3.746  10.113  1.0201  0.7816  1.6771
  173SOPE   C3719667   0.364   3.922   9.997 -0.1775 -0.4007 -0.1634
  173SOPE   H7X19668   0.461   3.975  10.000 -1.1879  1.5523 -0.4524
  173SOPE   H7Y19669   0.296   4.009  10.004  0.0983 -0.3020  1.8617
  173SOPE   C3819670   0.357   3.842   9.862 -0.0127  0.0126  0.4742
  173SOPE   H8X19671   0.288   3.756   9.873  0.4782 -1.0737 -3.5475
  173SOPE   H8Y19672   0.457   3.801   9.834 -0.4108 -0.2240 -0.6331
  173SOPE   C3919673   0.316   3.934   9.747  0.2252 -0.9940  0.0885
  173SOPE   H9X19674   0.400   4.002   9.722 -0.5787  0.1580  0.4464
  173SOPE   H9Y19675   0.230   3.988   9.794 -0.0020  1.2306 -2.6088
  173SOPE  C31019676   0.285   3.868   9.618  0.1632  0.5641 -0.2639
  173SOPE  H10X19677   0.221   3.779   9.637 -0.1936  0.7772 -0.4501
  173SOPE  H10Y19678   0.377   3.836   9.565  0.3664 -1.3132  1.1217
  173SOPE  C31119679   0.200   3.947   9.525  0.0310 -0.4368  0.3538
  173SOPE  H11X19680   0.116   4.004   9.570  0.3746  1.3924 -1.1947
  173SOPE  H11Y19681   0.164   3.881   9.443  0.6716 -0.8355  0.3806
  173SOPE  C31219682   0.274   4.060   9.454 -0.0288 -0.7696  0.0890
  173SOPE  H12X19683   0.365   4.022   9.403  0.6755 -1.4921  1.7970
  173SOPE  H12Y19684   0.310   4.138   9.524 -0.6066  0.5957 -1.0905
  173SOPE  C31319685   0.184   4.138   9.357  0.3092 -0.1224 -0.0844
  173SOPE  H13X19686   0.215   4.240   9.329 -0.8882 -0.1031 -1.4685
  173SOPE  H13Y19687   0.083   4.148   9.402  0.5698  1.0239  0.2607
  173SOPE  C31419688   0.162   4.072   9.214  0.9634 -0.7345 -0.3830
  173SOPE  H14X19689   0.139   3.965   9.233  1.9777 -0.4880  2.7097
  173SOPE  H14Y19690   0.258   4.091   9.162  0.2032  0.3766 -1.4486
  173SOPE  C31519691   0.041   4.139   9.142 -0.3803 -0.0587 -0.7645
  173SOPE  H15X19692   0.044   4.248   9.164 -0.6954 -0.6075  2.4447
  173SOPE  H15Y19693  -0.055   4.112   9.192  0.1338  0.3695  0.5017
  173SOPE  C31619694   0.039   4.119   8.990 -0.2794  0.3951  0.0023
  173SOPE  H16X19695   0.068   4.014   8.969  0.5393  0.7278 -0.5787
  173SOPE  H16Y19696   0.117   4.183   8.943 -0.3370 -0.3820 -1.1897
  173SOPE  C31719697  -0.076   4.147   8.898  0.0333 -0.8833 -0.5110
  173SOPE  H17X19698  -0.051   4.116   8.794 -2.0292 -1.0437 -1.0025
  173SOPE  H17Y19699  -0.101   4.255   8.899 -0.3276 -0.9678 -0.0210
  173SOPE  C31819700  -0.205   4.078   8.934  0.4025  0.2053  0.2087
  173SOPE  H18X19701  -0.290   4.118   8.874 -0.1275  0.4423  1.0801
  173SOPE  H18Y19702  -0.228   4.103   9.040  0.9337  3.6704 -0.3511
  173SOPE  H18Z19703  -0.198   3.971   8.908  1.2817  0.2545  0.2182
  174SOPE     N19704   6.052   1.846  11.017  0.1239 -0.5923 -0.0018
  174SOPE   HN119705   6.075   1.746  11.005 -0.0289 -0.6307  0.0252
  174SOPE   HN219706   5.988   1.864  11.096  0.8916 -1.4481  0.8413
  174SOPE   HN319707   6.007   1.865  10.926  0.2315 -1.0210 -0.1464
  174SOPE   C1219708   6.165   1.942  11.019 -0.2457  1.2176  0.2989
  174SOPE  H12A19709   6.174   1.977  11.125 -0.1470 -0.2482  0.7954
  174SOPE  H12B19710   6.132   2.022  10.949 -0.4059  1.4863  0.6695
  174SOPE   C1119711   6.286   1.865  10.991 -0.8980  0.1571  0.4375
  174SOPE  H11A19712   6.296   1.790  11.072  2.2435 -0.4204 -0.3673
  174SOPE  H11B19713   6.371   1.935  11.004 -1.8544  0.9091  3.5590
  174SOPE     P19714   6.393   1.825  10.743  0.0389 -0.1181 -0.1210
  174SOPE   O1319715   6.377   1.710  10.645 -0.1055  0.1445 -0.1417
  174SOPE   O1419716   6.529   1.855  10.792 -0.3801 -0.4035  0.5178
  174SOPE   O1219717   6.283   1.800  10.860 -0.0108  0.3484 -0.4962
  174SOPE   O1119718   6.340   1.953  10.663 -0.2716 -0.4596  0.4070
  174SOPE    C119719   6.202   1.993  10.659  0.2050 -0.3924 -0.5370
  174SOPE    HA19720   6.196   2.102  10.676  0.3502  0.2918 -4.1972
  174SOPE    HB19721   6.137   1.943  10.734  1.5924 -0.1245  0.9122
  174SOPE    C219722   6.128   1.975  10.525  0.3508  0.1389  0.1583
  174SOPE    HS19723   6.124   1.866  10.502  0.2049 -0.2401  1.8591
  174SOPE   O2119724   6.198   2.045  10.429 -0.4979  0.0521  0.4540
  174SOPE   C2119725   6.192   2.000  10.305 -0.8442  0.2086 -0.0586
  174SOPE   O2219726   6.133   1.904  10.271  0.5826  0.4938 -0.6141
  174SOPE   C2219727   6.258   2.108  10.219 -0.3780  1.1296  0.5023
  174SOPE   H2R19728   6.367   2.091  10.235 -0.3647  0.1088 -0.5238
  174SOPE   H2S19729   6.246   2.206  10.269 -2.9788  0.1980  1.8820
  174SOPE    C319730   5.979   2.026  10.537  0.3920 -0.9021 -0.1547
  174SOPE    HX19731   5.988   2.106  10.614 -2.9218  0.3187 -0.8523
  174SOPE    HY19732   5.929   1.936  10.577  2.7691 -1.5897  1.5143
  174SOPE   O3119733   5.924   2.064  10.410  0.1219 -0.2132  0.6108
  174SOPE   C3119734   5.933   2.197  10.391  0.4820 -0.4546  0.3261
  174SOPE   O3219735   5.992   2.274  10.467 -0.2653  0.0708 -0.3154
  174SOPE   C3219736   5.847   2.228  10.272 -0.7429 -0.0607 -0.3275
  174SOPE   H2X19737   5.739   2.219  10.297 -1.5790  0.0724 -3.4201
  174SOPE   H2Y19738   5.874   2.159  10.189  0.5358  0.7818 -0.6577
  174SOPE   C2319739   6.219   2.089  10.078  0.2902  0.1405  0.5878
  174SOPE   H3R19740   6.111   2.108  10.059  0.0347 -1.4761  0.2992
  174SOPE   H3S19741   6.238   1.986  10.042 -2.8193 -0.5425  0.6119
  174SOPE   C2419742   6.289   2.184   9.974  0.4427 -0.3994  0.3168
  174SOPE   H4R19743   6.269   2.289  10.004  1.8780  0.1529 -0.5853
  174SOPE   H4S19744   6.398   2.171   9.988  0.4983 -3.1984 -1.8116
  174SOPE   C2519745   6.242   2.166   9.828 -0.2338 -0.2449  0.2122
  174SOPE   H5R19746   6.262   2.062   9.794  1.8330 -0.4594  1.8452
  174SOPE   H5S19747   6.133   2.184   9.819  0.0725  0.9989 -1.7845
  174SOPE   C2619748   6.310   2.268   9.726  0.3658 -0.1857 -0.3606
  174SOPE   H6R19749   6.297   2.368   9.773 -1.9540  0.1759 -1.6729
  174SOPE   H6S19750   6.418   2.247   9.708  0.4988 -1.9482  1.9565
  174SOPE   C2719751   6.235   2.277   9.596 -0.5976 -0.5128  0.7180
  174SOPE   H7R19752   6.215   2.174   9.561  1.3763 -0.1556 -1.7901
  174SOPE   H7S19753   6.139   2.331   9.613 -1.3042 -1.2670 -0.6712
  174SOPE   C2819754   6.305   2.359   9.482  0.4983  0.4804  0.2021
  174SOPE   H8R19755   6.350   2.448   9.531  1.4297 -0.8659  1.9225
  174SOPE   H8S19756   6.398   2.308   9.450  1.6972  1.7882  1.4556
  174SOPE   C2919757   6.226   2.396   9.360 -0.2063 -0.4351 -0.7265
  174SOPE   H9119758   6.147   2.472   9.374 -0.3976 -0.9977  1.9239
  174SOPE  C21019759   6.252   2.346   9.239 -0.2166  0.1360  0.3290
  174SOPE  H10119760   6.184   2.379   9.159 -2.0126 -0.3981  1.5808
  174SOPE  C21119761   6.370   2.259   9.206 -0.4221 -0.7548 -0.0336
  174SOPE  H11R19762   6.384   2.182   9.285 -0.8870 -1.4007 -0.5719
  174SOPE  H11S19763   6.464   2.317   9.193 -1.7874  1.4636 -0.6491
  174SOPE  C21219764   6.343   2.183   9.073 -0.0528  0.1454  0.2503
  174SOPE  H12R19765   6.325   2.250   8.986  0.2462  0.9299  0.7924
  174SOPE  H12S19766   6.247   2.126   9.071  0.4133 -0.6532 -1.6771
  174SOPE  C21319767   6.463   2.105   9.017 -0.2021 -0.4429  0.1015
  174SOPE  H13R19768   6.481   2.015   9.081 -1.5145  0.0597  1.2428
  174SOPE  H13S19769   6.550   2.173   9.024 -0.9233  0.5854 -0.6808
  174SOPE  C21419770   6.441   2.077   8.865 -0.2844 -0.8342 -0.6125
  174SOPE  H14R19771   6.426   2.170   8.805  1.5527  1.2920  1.9738
  174SOPE  H14S19772   6.345   2.021   8.866 -0.7801 -0.0178  0.8194
  174SOPE  C21519773   6.542   1.983   8.792 -0.1938  0.3706 -0.3439
  174SOPE  H15R19774   6.490   1.931   8.709  1.1724  0.9411 -1.6047
  174SOPE  H15S19775   6.581   1.904   8.861  0.6267 -0.1907 -1.4161
  174SOPE  C21619776   6.664   2.061   8.733 -0.6594 -0.0001  0.6694
  174SOPE  H16R19777   6.726   2.108   8.813 -0.3227  0.2129  0.2901
  174SOPE  H16S19778   6.633   2.143   8.665  1.1358 -0.4594 -0.7814
  174SOPE  C21719779   6.762   1.983   8.648  0.5625  0.1094  0.3584
  174SOPE  H17R19780   6.816   1.910   8.712  0.3545 -2.2473 -2.0044
  174SOPE  H17S19781   6.829   2.058   8.601 -1.0039  2.1722  1.2218
  174SOPE  C21819782   6.697   1.915   8.521 -0.1475 -0.1112 -0.3398
  174SOPE  H18R19783   6.776   1.879   8.452  2.5090  2.1468  1.3205
  174SOPE  H18S19784   6.632   1.989   8.469  0.5743  1.2636  0.6669
  174SOPE  H18T19785   6.628   1.832   8.548  0.7650 -0.9761 -0.6290
  174SOPE   C3319786   5.874   2.380  10.230 -0.4959  0.6608 -0.2381
  174SOPE   H3X19787   5.864   2.442  10.322  2.0226 -0.3111  0.7763
  174SOPE   H3Y19788   5.788   2.411  10.167 -1.3507 -1.5728 -0.2844
  174SOPE   C3419789   6.011   2.393  10.152 -0.0468 -0.6622  0.6057
  174SOPE   H4X19790   6.018   2.307  10.082 -1.4892  0.6223 -1.2083
  174SOPE   H4Y19791   6.090   2.384  10.229 -0.5053 -1.5507  0.9932
  174SOPE   C3519792   6.026   2.502  10.055 -0.7760  0.0070 -0.6478
  174SOPE   H5X19793   6.130   2.501  10.015  0.0833  0.6089  1.4271
  174SOPE   H5Y19794   6.023   2.606  10.095  1.1512  0.9385 -2.6777
  174SOPE   C3619795   5.927   2.479   9.943 -0.1578 -0.0952  0.0366
  174SOPE   H6X19796   5.829   2.525   9.967 -0.7174 -0.8507 -0.7419
  174SOPE   H6Y19797   5.913   2.369   9.931  0.3607  0.0133 -1.8190
  174SOPE   C3719798   5.978   2.554   9.814 -0.1428  0.6153 -0.1099
  174SOPE   H7X19799   6.074   2.505   9.787 -0.4379  0.4830 -0.9298
  174SOPE   H7Y19800   6.012   2.659   9.823  4.8626 -0.8870  1.9995
  174SOPE   C3819801   5.887   2.536   9.693 -0.3777  0.4161 -0.3965
  174SOPE   H8X19802   5.785   2.574   9.720 -0.1802  1.1244 -0.6227
  174SOPE   H8Y19803   5.871   2.427   9.683 -1.1535  0.5178 -0.3684
  174SOPE   C3919804   5.948   2.586   9.561  0.3729  0.2113 -0.3217
  174SOPE   H9X19805   6.048   2.539   9.550  1.2846  2.2565 -1.3033
  174SOPE   H9Y19806   5.956   2.697   9.569 -2.2533  0.3850  0.8454
  174SOPE  C31019807   5.856   2.553   9.443 -0.8479  0.2226 -0.0574
  174SOPE  H10X19808   5.762   2.612   9.449 -1.4845 -0.8451  0.8216
  174SOPE  H10Y19809   5.825   2.446   9.438 -0.4449  0.0355  1.1364
  174SOPE  C31119810   5.905   2.603   9.306  0.3731 -0.2728  0.4575
  174SOPE  H11X19811   6.015   2.587   9.312  0.5011 -0.6362 -1.9540
  174SOPE  H11Y19812   5.892   2.713   9.298  1.8405 -0.0897  0.2065
  174SOPE  C31219813   5.849   2.526   9.187  0.4503 -0.3739  0.3486
  174SOPE  H12X19814   5.746   2.560   9.161 -0.0540 -2.1872 -0.2307
  174SOPE  H12Y19815   5.847   2.415   9.192  0.6121 -0.3318  4.2190
  174SOPE  C31319816   5.929   2.569   9.059 -0.4705 -0.0231  0.1951
  174SOPE  H13X19817   6.037   2.562   9.081 -0.7625 -1.3332  1.3842
  174SOPE  H13Y19818   5.898   2.673   9.036  1.2468  0.7159  1.0387
  174SOPE  C31419819   5.903   2.476   8.940 -0.0198 -0.2973 -0.1172
  174SOPE  H14X19820   5.792   2.475   8.938 -0.0231 -1.3317 -0.0293
  174SOPE  H14Y19821   5.941   2.374   8.962  0.2605  0.0588  1.1168
  174SOPE  C31519822   5.926   2.540   8.796 -0.4876 -0.1294 -0.5440
  174SOPE  H15X19823   5.885   2.643   8.797  1.9822  0.9304  1.4083
  174SOPE  H15Y19824   5.868   2.475   8.727  0.1894 -0.5269 -0.7474
  174SOPE  C31619825   6.075   2.545   8.753  0.2497 -0.0900 -0.2373
  174SOPE  H16X19826   6.129   2.615   8.820 -0.9635  0.0690  0.6017
  174SOPE  H16Y19827   6.078   2.571   8.645 -1.5700  1.6413  0.0660
  174SOPE  C31719828   6.142   2.409   8.750 -0.3049  0.1218  0.0691
  174SOPE  H17X19829   6.064   2.334   8.724 -0.3015 -0.1364  0.7739
  174SOPE  H17Y19830   6.162   2.382   8.856  0.6943 -0.3310 -0.2276
  174SOPE  C31819831   6.267   2.411   8.664  0.1482  0.1110 -0.0875
  174SOPE  H18X19832   6.306   2.307   8.667  1.0557  0.3937 -1.4333
  174SOPE  H18Y19833   6.341   2.486   8.699 -1.3701  0.8868  1.6298
  174SOPE  H18Z19834   6.244   2.438   8.558  1.0452 -3.7780 -1.4400
  175SOPE     N19835   2.955   3.660  10.713 -0.6387 -0.2385 -0.7417
  175SOPE   HN119836   2.916   3.725  10.642  0.0750 -0.6256 -1.4957
  175SOPE   HN219837   2.924   3.695  10.806 -0.0434 -0.6796 -0.3738
  175SOPE   HN319838   3.058   3.674  10.718 -0.5839  0.5237 -2.9216
  175SOPE   C1219839   2.912   3.519  10.696 -0.4115 -0.6382 -0.2514
  175SOPE  H12A19840   2.952   3.466  10.785  1.6874  2.2369  0.6893
  175SOPE  H12B19841   2.969   3.489  10.606  2.6805  1.0875  0.9584
  175SOPE   C1119842   2.762   3.514  10.688 -0.2353 -0.5535  0.6493
  175SOPE  H11A19843   2.719   3.417  10.657  2.3583 -1.3085 -0.8888
  175SOPE  H11B19844   2.739   3.588  10.608  0.2282 -0.0593  0.9669
  175SOPE     P19845   2.587   3.490  10.876 -0.0776 -0.2697  0.1402
  175SOPE   O1319846   2.524   3.590  10.968 -0.1453  0.3163  0.1407
  175SOPE   O1419847   2.631   3.362  10.934 -0.1271 -0.0359  0.0992
  175SOPE   O1219848   2.712   3.564  10.809 -0.3143 -0.3430  0.3780
  175SOPE   O1119849   2.478   3.466  10.759 -0.2975  0.3047 -0.0242
  175SOPE    C119850   2.428   3.564  10.671 -0.5442  1.1630  0.1242
  175SOPE    HA19851   2.504   3.643  10.654  0.0892  1.1873  2.6242
  175SOPE    HB19852   2.338   3.614  10.713  0.1093  1.6061  1.0382
  175SOPE    C219853   2.410   3.503  10.527 -0.0134 -0.0935 -0.6244
  175SOPE    HS19854   2.348   3.413  10.545 -1.5906  0.7732 -1.4683
  175SOPE   O2119855   2.539   3.476  10.474  0.0476  0.0455 -0.1993
  175SOPE   C2119856   2.555   3.364  10.409 -0.0432  0.8498  0.7379
  175SOPE   O2219857   2.471   3.275  10.387  0.2746  0.1379  0.1171
  175SOPE   C2219858   2.699   3.360  10.359  0.0238 -0.3674 -0.8748
  175SOPE   H2R19859   2.713   3.286  10.277 -0.7281 -0.5736 -0.8263
  175SOPE   H2S19860   2.763   3.342  10.448 -1.2068  0.1928  0.1509
  175SOPE    C319861   2.338   3.598  10.440  0.5742  0.1812  0.0627
  175SOPE    HX19862   2.397   3.688  10.414 -0.3099  0.6430 -0.3805
  175SOPE    HY19863   2.249   3.625  10.501  0.6280 -3.4073  1.9732
  175SOPE   O3119864   2.316   3.553  10.304 -0.2837 -0.1380 -0.1745
  175SOPE   C3119865   2.221   3.461  10.296 -0.3536  0.3405 -0.0333
  175SOPE   O3219866   2.160   3.413  10.391 -0.3071  0.7679 -0.0327
  175SOPE   C3219867   2.199   3.417  10.153  0.0135 -0.7051 -0.6797
  175SOPE   H2X19868   2.154   3.315  10.149 -1.7029  0.0445 -1.2743
  175SOPE   H2Y19869   2.297   3.428  10.100 -0.4954 -0.5935 -1.6248
  175SOPE   C2319870   2.758   3.491  10.308 -0.2785 -0.3249 -0.5494
  175SOPE   H3R19871   2.858   3.477  10.263  1.0558  4.1841  0.4547
  175SOPE   H3S19872   2.761   3.563  10.393 -3.8779 -1.2432  0.5191
  175SOPE   C2419873   2.663   3.556  10.205 -0.1979  0.2927  0.7756
  175SOPE   H4R19874   2.561   3.567  10.250 -0.1144 -0.3037  1.1162
  175SOPE   H4S19875   2.697   3.660  10.188  1.3125 -0.2286  0.4959
  175SOPE   C2519876   2.663   3.484  10.066  0.5456  0.8960  0.3301
  175SOPE   H5R19877   2.765   3.466  10.025 -0.3053 -1.9449 -0.7322
  175SOPE   H5S19878   2.619   3.385  10.088 -0.8068  1.8293  2.0725
  175SOPE   C2619879   2.575   3.555   9.969 -0.3257 -0.2383 -0.4178
  175SOPE   H6R19880   2.473   3.573  10.010 -0.6535 -1.6083 -0.5603
  175SOPE   H6S19881   2.615   3.653   9.935  1.1627 -0.1817  1.3388
  175SOPE   C2719882   2.531   3.459   9.852 -0.6573  0.5460 -0.2850
  175SOPE   H7R19883   2.506   3.364   9.902 -2.2792  1.5783  0.9564
  175SOPE   H7S19884   2.442   3.500   9.798  0.7173  1.9398 -1.6080
  175SOPE   C2819885   2.653   3.433   9.753  0.0101  0.1200 -0.1399
  175SOPE   H8R19886   2.684   3.534   9.717  2.5341  0.0150  1.4236
  175SOPE   H8S19887   2.737   3.393   9.813 -1.0267  0.6770  1.7469
  175SOPE   C2919888   2.620   3.338   9.636 -0.3540 -0.5036 -0.2851
  175SOPE   H9119889   2.599   3.236   9.671  1.1470  0.0551  2.6142
  175SOPE  C21019890   2.640   3.360   9.503 -1.0392 -0.0443  0.5965
  175SOPE  H10119891   2.605   3.286   9.429  0.1882  1.2910 -1.3883
  175SOPE  C21119892   2.690   3.485   9.436 -0.2728 -0.6403  0.0615
  175SOPE  H11R19893   2.797   3.461   9.421 -0.0946  0.0177  0.2328
  175SOPE  H11S19894   2.670   3.574   9.500 -0.4471 -1.2800  0.9142
  175SOPE  C21219895   2.624   3.517   9.300 -0.4504 -0.0595 -0.1849
  175SOPE  H12R19896   2.515   3.522   9.320 -0.3841  0.2707  0.1169
  175SOPE  H12S19897   2.651   3.433   9.233  0.5628  1.2389 -1.4885
  175SOPE  C21319898   2.674   3.652   9.233  0.9969 -0.0609  0.3457
  175SOPE  H13R19899   2.783   3.645   9.256  0.6871 -1.1449  1.5793
  175SOPE  H13S19900   2.640   3.739   9.292 -0.1068 -0.6646  0.6172
  175SOPE  C21419901   2.645   3.671   9.082 -0.3954  0.9563 -0.4532
  175SOPE  H14R19902   2.537   3.654   9.062 -0.6805 -1.1454  2.3076
  175SOPE  H14S19903   2.700   3.596   9.021 -0.3546  1.1010 -0.5936
  175SOPE  C21519904   2.673   3.804   9.022  0.7336 -0.2855  0.0181
  175SOPE  H15R19905   2.595   3.881   9.041  0.6353 -0.2287 -0.5920
  175SOPE  H15S19906   2.668   3.811   8.912  0.8468  3.4727  0.1065
  175SOPE  C21619907   2.807   3.860   9.069  0.4366  0.4433  0.1062
  175SOPE  H16R19908   2.798   3.870   9.180 -0.4636 -3.8712  0.5973
  175SOPE  H16S19909   2.824   3.960   9.025 -0.8624  0.5148 -0.2730
  175SOPE  C21719910   2.928   3.781   9.016  0.8812  0.9043  0.3189
  175SOPE  H17R19911   2.900   3.674   9.026 -2.2276  1.3009 -2.4268
  175SOPE  H17S19912   3.019   3.796   9.079 -0.1524  2.3683  1.5401
  175SOPE  C21819913   2.962   3.800   8.867 -0.2503  0.9133 -0.2615
  175SOPE  H18R19914   2.961   3.909   8.846 -2.0448  1.2538  1.3122
  175SOPE  H18S19915   2.887   3.753   8.799  1.4340  0.6577 -2.0345
  175SOPE  H18T19916   3.049   3.737   8.841 -2.6910 -2.4858 -0.8131
  175SOPE   C3319917   2.087   3.503  10.081  0.4112 -0.2755 -0.1775
  175SOPE   H3X19918   2.123   3.608  10.075  1.6104 -0.6561  0.0808
  175SOPE   H3Y19919   1.999   3.516  10.147 -0.7890 -0.4725 -1.6770
  175SOPE   C3419920   2.042   3.461   9.947 -0.3947 -0.2959  0.0756
  175SOPE   H4X19921   1.948   3.511   9.918 -0.0480  1.0265  1.1447
  175SOPE   H4Y19922   2.005   3.356   9.946  0.0695 -0.4646  0.3070
  175SOPE   C3519923   2.154   3.467   9.844  0.8160 -0.0432 -0.8049
  175SOPE   H5X19924   2.238   3.401   9.872  0.3287 -0.1226  0.4934
  175SOPE   H5Y19925   2.186   3.574   9.834 -0.9134  0.3796 -2.5018
  175SOPE   C3619926   2.112   3.418   9.702 -0.1208 -0.0880 -0.0746
  175SOPE   H6X19927   2.031   3.486   9.668  0.5090 -0.2152 -1.9308
  175SOPE   H6Y19928   2.085   3.311   9.713 -2.0146  0.3066 -0.5117
  175SOPE   C3719929   2.220   3.441   9.594  0.1110 -0.8322 -0.8152
  175SOPE   H7X19930   2.310   3.383   9.624  0.2545 -0.5729 -0.7410
  175SOPE   H7Y19931   2.233   3.551   9.594 -0.5127 -0.7283  0.6131
  175SOPE   C3819932   2.165   3.378   9.464 -0.3948 -0.2895  0.0737
  175SOPE   H8X19933   2.059   3.408   9.448 -0.4000 -1.1723 -1.8823
  175SOPE   H8Y19934   2.171   3.268   9.475  1.7328 -0.2193  0.0844
  175SOPE   C3919935   2.246   3.428   9.334 -0.8079  0.1475 -0.2880
  175SOPE   H9X19936   2.348   3.389   9.350 -1.0344 -0.5624 -0.5318
  175SOPE   H9Y19937   2.240   3.539   9.337 -0.1094  0.1794 -0.1104
  175SOPE  C31019938   2.190   3.371   9.205 -0.4166  0.1255 -0.2484
  175SOPE  H10X19939   2.081   3.393   9.212 -0.5752 -0.2814 -1.2514
  175SOPE  H10Y19940   2.207   3.262   9.192 -1.6828 -0.7626  3.8290
  175SOPE  C31119941   2.237   3.437   9.077 -0.2245 -0.6017 -0.2982
  175SOPE  H11X19942   2.222   3.547   9.082 -3.0726 -0.9593  1.3360
  175SOPE  H11Y19943   2.166   3.398   9.000  0.6444 -1.5239 -0.6612
  175SOPE  C31219944   2.378   3.412   9.030  0.6143  0.0230  0.2344
  175SOPE  H12X19945   2.397   3.303   9.041 -2.9954 -0.7609 -0.1275
  175SOPE  H12Y19946   2.437   3.465   9.107 -0.2426  0.8168  0.3538
  175SOPE  C31319947   2.411   3.476   8.892  0.4248 -0.6024 -0.0044
  175SOPE  H13X19948   2.406   3.587   8.898  2.8969 -0.4723  1.0366
  175SOPE  H13Y19949   2.337   3.450   8.814 -2.0913  0.3044  1.9614
  175SOPE  C31419950   2.548   3.434   8.840  0.6543 -0.6288 -0.7966
  175SOPE  H14X19951   2.538   3.330   8.803 -0.1539 -2.0566  2.9396
  175SOPE  H14Y19952   2.618   3.436   8.926  0.8981 -0.0401 -1.0026
  175SOPE  C31519953   2.587   3.513   8.714 -0.0130  0.8094 -0.1191
  175SOPE  H15X19954   2.583   3.619   8.747 -2.1162  0.4523  0.9272
  175SOPE  H15Y19955   2.526   3.499   8.622  1.6036  0.6362 -1.2129
  175SOPE  C31619956   2.732   3.477   8.663 -0.2885 -0.2914  0.2407
  175SOPE  H16X19957   2.725   3.367   8.647  2.1785 -0.6087  0.9115
  175SOPE  H16Y19958   2.813   3.481   8.739  1.5264 -0.7284 -1.5638
  175SOPE  C31719959   2.764   3.565   8.543  0.1373 -0.3292  0.5844
  175SOPE  H17X19960   2.760   3.669   8.581 -0.6450 -0.4767  0.9206
  175SOPE  H17Y19961   2.690   3.543   8.463  0.5804 -0.1614  0.1218
  175SOPE  C31819962   2.898   3.542   8.477  1.1286 -0.2483 -0.1884
  175SOPE  H18X19963   2.903   3.445   8.422 -1.9712  0.0349 -1.1734
  175SOPE  H18Y19964   2.985   3.554   8.545  1.1741  0.3458 -0.3445
  175SOPE  H18Z19965   2.910   3.613   8.393  0.3016  0.9789  0.7065
  176SOPE     N19966   1.347   2.504  10.571 -0.3794  0.9618 -0.2658
  176SOPE   HN119967   1.262   2.488  10.513 -1.0465 -0.9835  1.1243
  176SOPE   HN219968   1.319   2.459  10.661  0.9041 -0.3993 -0.5120
  176SOPE   HN319969   1.365   2.606  10.577  0.6673  0.7958 -0.5057
  176SOPE   C1219970   1.457   2.440  10.503  0.2358 -0.8203  0.3632
  176SOPE  H12A19971   1.433   2.339  10.463 -1.6924  1.3260 -4.6964
  176SOPE  H12B19972   1.543   2.431  10.573  0.4217  1.1102  0.4261
  176SOPE   C1119973   1.487   2.522  10.377  0.0739 -0.1124 -0.2633
  176SOPE  H11A19974   1.402   2.514  10.306 -0.7529  0.6731  0.6028
  176SOPE  H11B19975   1.572   2.465  10.334 -2.0213 -2.0266 -2.1276
  176SOPE     P19976   1.565   2.768  10.325  0.3119  0.2936 -0.2246
  176SOPE   O1319977   1.697   2.793  10.366 -0.4838  0.2576  0.0969
  176SOPE   O1419978   1.463   2.872  10.315 -0.2587 -0.1109  0.3021
  176SOPE   O1219979   1.515   2.655  10.421 -0.2911  0.1758 -0.6098
  176SOPE   O1119980   1.578   2.712  10.184 -0.6504  0.2986 -0.5908
  176SOPE    C119981   1.527   2.775  10.070 -0.6852  0.3195  0.7405
  176SOPE    HA19982   1.420   2.800  10.076 -1.3207 -1.9890  0.1029
  176SOPE    HB19983   1.529   2.696   9.992 -0.6216  2.1585 -1.2134
  176SOPE    C219984   1.614   2.896  10.007 -0.1693  0.2579  0.0299
  176SOPE    HS19985   1.607   2.983  10.076 -0.0794 -0.3592  0.8315
  176SOPE   O2119986   1.563   2.927   9.875 -0.3285  0.1242 -0.5425
  176SOPE   C2119987   1.434   2.971   9.864 -0.5494 -0.0108 -0.6453
  176SOPE   O2219988   1.361   2.995   9.958 -0.0837  0.0132 -0.0883
  176SOPE   C2219989   1.392   2.993   9.716  0.3646 -0.4307 -1.0764
  176SOPE   H2R19990   1.300   2.935   9.690  0.3776 -1.1591  0.4180
  176SOPE   H2S19991   1.472   2.952   9.650  0.3595  0.2644 -1.5185
  176SOPE    C319992   1.759   2.850   9.991 -0.7143  0.1114  0.4849
  176SOPE    HX19993   1.756   2.755   9.934 -2.0699  0.7184 -0.5006
  176SOPE    HY19994   1.789   2.836  10.097 -0.7551  0.4483  0.5421
  176SOPE   O3119995   1.843   2.947   9.923  0.3857  0.7071  0.3352
  176SOPE   C3119996   1.971   2.945   9.961  0.6706  0.3403 -0.1271
  176SOPE   O3219997   2.013   2.879  10.055  0.5344 -0.6615  0.3830
  176SOPE   C3219998   2.046   3.059   9.891  0.1936 -0.5691  0.9813
  176SOPE   H2X19999   2.116   3.100   9.968 -0.0296  1.0856  0.3249
  176SOPE   H2Y20000   1.973   3.137   9.863 -0.0017 -1.4312 -1.1268
  176SOPE   C2320001   1.395   3.143   9.684  0.5785  0.0460  0.2247
  176SOPE   H3R20002   1.495   3.190   9.700  0.1034  1.9880 -1.9577
  176SOPE   H3S20003   1.324   3.200   9.748  1.4058  1.2275  0.1280
  176SOPE   C2420004   1.356   3.161   9.540 -0.1609 -0.5763  1.0227
  176SOPE   H4R20005   1.435   3.111   9.480 -1.1209  1.3028 -2.0386
  176SOPE   H4S20006   1.259   3.108   9.524 -0.5701  0.5324 -0.3685
  176SOPE   C2520007   1.349   3.309   9.492 -0.1795 -0.1462  0.1582
  176SOPE   H5R20008   1.266   3.336   9.560  1.0574 -2.0326  2.5803
  176SOPE   H5S20009   1.442   3.365   9.517 -0.1369  0.5145 -1.3223
  176SOPE   C2620010   1.316   3.334   9.345 -0.4982  0.1090  0.4705
  176SOPE   H6R20011   1.412   3.331   9.289  0.6784 -1.6863  2.4106
  176SOPE   H6S20012   1.245   3.252   9.320  2.3089 -2.0941 -0.9815
  176SOPE   C2720013   1.242   3.470   9.321 -0.5895  0.3622  0.4981
  176SOPE   H7R20014   1.149   3.469   9.383 -1.4104  0.0687 -0.6920
  176SOPE   H7S20015   1.301   3.552   9.366  0.5448 -1.0105  1.6456
  176SOPE   C2820016   1.194   3.499   9.179  0.1220  0.5251 -0.3781
  176SOPE   H8R20017   1.180   3.609   9.187 -1.9523  0.3188 -0.5149
  176SOPE   H8S20018   1.275   3.484   9.105 -1.5452  0.3844 -2.2914
  176SOPE   C2920019   1.073   3.414   9.152  0.1846 -0.0834  0.7230
  176SOPE   H9120020   1.083   3.304   9.161 -1.4403 -0.4461 -1.3304
  176SOPE  C21020021   0.944   3.458   9.150 -0.4912  0.0331 -0.5050
  176SOPE  H10120022   0.871   3.390   9.105 -0.1769 -1.7037  1.4805
  176SOPE  C21120023   0.902   3.600   9.164 -0.0147  0.4303 -0.2285
  176SOPE  H11R20024   0.980   3.678   9.173 -0.0774  0.3543  1.3258
  176SOPE  H11S20025   0.844   3.619   9.257  1.0571  2.0458  0.1447
  176SOPE  C21220026   0.816   3.630   9.042 -0.0183  0.2612 -0.1947
  176SOPE  H12R20027   0.776   3.732   9.062  0.3361  0.5427 -0.8848
  176SOPE  H12S20028   0.726   3.566   9.041 -0.5968  1.0651 -1.0438
  176SOPE  C21320029   0.886   3.620   8.909 -0.0321 -0.3789 -0.5574
  176SOPE  H13R20030   0.904   3.511   8.895 -1.1305 -0.8914  1.5944
  176SOPE  H13S20031   0.977   3.683   8.920 -1.0647  2.0665 -4.0631
  176SOPE  C21420032   0.794   3.684   8.802  0.1912  0.6523  0.9455
  176SOPE  H14R20033   0.698   3.628   8.798  1.2602 -1.3647  1.7882
  176SOPE  H14S20034   0.823   3.671   8.696 -4.0337  0.3178 -0.3464
  176SOPE  C21520035   0.769   3.834   8.824  0.1417 -0.6111  0.7385
  176SOPE  H15R20036   0.702   3.843   8.913  0.2031 -0.7263  0.7963
  176SOPE  H15S20037   0.722   3.871   8.731 -2.9712 -1.4482  1.8343
  176SOPE  C21620038   0.890   3.926   8.848 -0.6360 -0.3418  0.9357
  176SOPE  H16R20039   0.963   3.901   8.767 -1.4976 -0.3966  0.1592
  176SOPE  H16S20040   0.941   3.898   8.943  1.7355  1.2141  0.2163
  176SOPE  C21720041   0.859   4.079   8.831 -0.2776  0.4060 -0.0379
  176SOPE  H17R20042   0.766   4.098   8.888  0.5486  1.0582  1.1346
  176SOPE  H17S20043   0.831   4.095   8.724 -1.0587  1.4726  0.3063
  176SOPE  C21820044   0.957   4.191   8.876  0.4002  0.3330 -0.1677
  176SOPE  H18R20045   0.979   4.177   8.984 -1.3851  3.1924  0.6885
  176SOPE  H18S20046   0.918   4.290   8.842 -2.0318 -1.2321 -2.3733
  176SOPE  H18T20047   1.055   4.178   8.825  1.3427  0.2939  1.5951
  176SOPE   C3320048   2.136   3.016   9.767  1.4628 -0.3471  0.2830
  176SOPE   H3X20049   2.210   2.938   9.796 -0.6743 -1.5580  3.0065
  176SOPE   H3Y20050   2.196   3.104   9.738  2.0754 -0.3870  1.3967
  176SOPE   C3420051   2.044   2.976   9.646  0.1402 -1.0532 -0.2428
  176SOPE   H4X20052   1.979   3.063   9.625  0.8800  0.1728  2.1928
  176SOPE   H4Y20053   1.986   2.884   9.670  0.8002 -0.9678  1.8094
  176SOPE   C3520054   2.112   2.937   9.516 -0.8822  0.6214 -0.5305
  176SOPE   H5X20055   2.190   2.864   9.547 -4.2523 -3.9883 -1.6449
  176SOPE   H5Y20056   2.158   3.029   9.473  0.1846 -0.5190 -1.9691
  176SOPE   C3620057   2.013   2.872   9.423 -0.0487 -0.0047  0.3041
  176SOPE   H6X20058   1.925   2.938   9.406 -0.8793 -1.6382 -2.3778
  176SOPE   H6Y20059   1.983   2.769   9.454  1.4345 -2.2572 -4.6796
  176SOPE   C3720060   2.081   2.854   9.288  0.2226 -1.4330  0.9761
  176SOPE   H7X20061   2.024   2.781   9.227  0.6084  0.4832 -1.8635
  176SOPE   H7Y20062   2.187   2.821   9.286  1.2689  1.5173 -1.6385
  176SOPE   C3820063   2.074   2.987   9.201 -0.1397 -0.1987  0.1164
  176SOPE   H8X20064   2.140   3.061   9.250 -1.8245  2.3320 -1.2180
  176SOPE   H8Y20065   1.969   3.023   9.195 -0.8365 -2.2001 -0.5706
  176SOPE   C3920066   2.122   2.957   9.061 -0.3996 -0.6988  0.1091
  176SOPE   H9X20067   2.031   2.915   9.014 -0.8263 -0.3539  0.6147
  176SOPE   H9Y20068   2.196   2.874   9.053  0.0373 -0.1728 -1.9234
  176SOPE  C31020069   2.163   3.076   8.978  0.1878  0.6667 -0.7276
  176SOPE  H10X20070   2.244   3.125   9.037  0.1508  2.4859 -2.0745
  176SOPE  H10Y20071   2.083   3.154   8.974 -0.0624  0.4050 -0.8578
  176SOPE  C31120072   2.213   3.030   8.846  0.5766  0.4715  0.2988
  176SOPE  H11X20073   2.145   2.951   8.807  1.4124 -0.7606  1.2464
  176SOPE  H11Y20074   2.317   2.992   8.854  0.3133  0.0471  1.9592
  176SOPE  C31220075   2.222   3.145   8.738  0.3097 -0.0557 -0.0113
  176SOPE  H12X20076   2.253   3.241   8.783  1.9889  0.3733 -1.9289
  176SOPE  H12Y20077   2.113   3.156   8.718 -0.0043  0.6314  1.8653
  176SOPE  C31320078   2.308   3.116   8.615  0.2733 -0.1991  0.3215
  176SOPE  H13X20079   2.265   3.031   8.559  0.9480 -1.6834  1.9454
  176SOPE  H13Y20080   2.409   3.094   8.658 -0.2750  0.7564  2.2403
  176SOPE  C31420081   2.319   3.244   8.526  0.1538  0.9268  0.4895
  176SOPE  H14X20082   2.356   3.203   8.430  0.9250  0.5993  0.9218
  176SOPE  H14Y20083   2.395   3.314   8.568 -0.3536  1.3606  0.7010
  176SOPE  C31520084   2.181   3.321   8.510  0.5860  0.3697  0.0490
  176SOPE  H15X20085   2.138   3.361   8.604 -0.6904  1.9485 -1.1499
  176SOPE  H15Y20086   2.121   3.232   8.479 -0.4961  1.1552 -0.1947
  176SOPE  C31620087   2.174   3.427   8.394  0.6671 -0.6539 -0.4329
  176SOPE  H16X20088   2.221   3.377   8.306  0.7732  0.6109 -1.1241
  176SOPE  H16Y20089   2.233   3.516   8.426 -0.6957 -0.7249  2.5583
  176SOPE  C31720090   2.031   3.461   8.349 -0.1701 -0.0353 -0.7798
  176SOPE  H17X20091   1.976   3.485   8.443 -1.8785  0.4938 -1.8717
  176SOPE  H17Y20092   1.984   3.367   8.315 -0.2625 -0.1493 -0.3508
  176SOPE  C31820093   2.030   3.593   8.259 -0.5614 -0.2676 -0.3551
  176SOPE  H18X20094   1.950   3.586   8.182  1.2641 -0.6047 -2.3353
  176SOPE  H18Y20095   2.122   3.608   8.198 -2.1372  0.8007 -2.6444
  176SOPE  H18Z20096   2.004   3.687   8.312 -0.6616  0.2483 -1.2996
  177SOPE     N20097   0.709   0.535  10.528 -0.1158 -0.2778 -0.2078
  177SOPE   HN120098   0.698   0.626  10.479 -3.2975 -1.1694 -1.3769
  177SOPE   HN220099   0.682   0.545  10.628  0.8553 -1.2053  0.1757
  177SOPE   HN320100   0.810   0.509  10.521 -0.0813  0.1944 -2.1026
  177SOPE   C1220101   0.617   0.448  10.449 -0.0498 -0.1633  0.0926
  177SOPE  H12A20102   0.625   0.484  10.344 -4.4414 -0.6912 -0.6072
  177SOPE  H12B20103   0.513   0.474  10.477 -0.8238 -1.0191 -1.8343
  177SOPE   C1120104   0.658   0.298  10.456  0.0396 -0.1118 -0.4266
  177SOPE  H11A20105   0.763   0.295  10.422 -0.0314  0.2698 -0.6800
  177SOPE  H11B20106   0.608   0.244  10.373 -2.4686  1.2636  0.0941
  177SOPE     P20107   0.495   0.194  10.639  0.1231 -0.2094  0.3370
  177SOPE   O1320108   0.408   0.311  10.656  0.4278 -0.3968 -0.0713
  177SOPE   O1420109   0.516   0.115  10.756 -0.3289 -0.6861  0.2266
  177SOPE   O1220110   0.637   0.245  10.588  0.5399 -0.3863  0.3727
  177SOPE   O1120111   0.446   0.089  10.523  0.3645 -0.2480  0.0483
  177SOPE    C120112   0.530  -0.024  10.498  0.1062 -0.2997  0.3533
  177SOPE    HA20113   0.458  -0.105  10.523 -2.5155  1.8982  0.3862
  177SOPE    HB20114   0.623  -0.024  10.560  0.2232  0.9351  0.2062
  177SOPE    C220115   0.574  -0.030  10.347 -0.6512 -0.1162 -0.1446
  177SOPE    HS20116   0.628   0.065  10.328  0.3105  0.3877  4.1240
  177SOPE   O2120117   0.450  -0.042  10.272 -0.1774 -0.2631 -0.0498
  177SOPE   C2120118   0.435   0.031  10.162  0.2513 -0.5803  0.0651
  177SOPE   O2220119   0.515   0.122  10.135 -0.5802 -0.0145  0.5120
  177SOPE   C2220120   0.307  -0.004  10.086 -0.7717 -0.3209  0.7905
  177SOPE   H2R20121   0.215   0.030  10.139 -1.0832  0.3809 -0.1665
  177SOPE   H2S20122   0.315  -0.114  10.078 -0.7970 -0.2158 -1.4581
  177SOPE    C320123   0.661  -0.154  10.317 -0.5794 -0.5274  0.1304
  177SOPE    HX20124   0.591  -0.239  10.323 -2.9372  1.2233 -0.7629
  177SOPE    HY20125   0.744  -0.172  10.388  1.7105  2.1471 -1.6351
  177SOPE   O3120126   0.715  -0.154  10.183 -0.2882 -0.0306  0.4351
  177SOPE   C3120127   0.797  -0.060  10.148 -0.1485  0.2226  0.6131
  177SOPE   O3220128   0.855   0.016  10.223 -0.5540  0.0816 -0.3201
  177SOPE   C3220129   0.818  -0.066   9.999  0.0662  0.0028  0.3055
  177SOPE   H2X20130   0.720  -0.042   9.954  0.1801  2.7285  1.3023
  177SOPE   H2Y20131   0.825  -0.173   9.971  0.5452  0.0094  0.3858
  177SOPE   C2320132   0.299   0.050   9.941  0.4650  0.2119  0.2832
  177SOPE   H3R20133   0.312   0.160   9.939 -2.1194  0.6120  1.2136
  177SOPE   H3S20134   0.200   0.024   9.898  1.4985 -2.0193 -0.9647
  177SOPE   C2420135   0.402  -0.034   9.854  0.5388 -0.0821 -1.0474
  177SOPE   H4R20136   0.503  -0.021   9.898 -0.8663 -0.7620  2.7786
  177SOPE   H4S20137   0.389  -0.143   9.874 -0.0298 -0.0389 -1.1687
  177SOPE   C2520138   0.416   0.004   9.708 -0.9631 -1.5958 -0.6371
  177SOPE   H5R20139   0.429   0.114   9.706  0.6704 -1.5983  2.7172
  177SOPE   H5S20140   0.510  -0.042   9.669  0.3892 -1.1112  1.8487
  177SOPE   C2620141   0.290  -0.029   9.624 -0.5484  0.2084 -0.1836
  177SOPE   H6R20142   0.256  -0.131   9.653  0.2994  0.7001  2.8395
  177SOPE   H6S20143   0.202   0.031   9.655  0.1163  0.7773  0.6219
  177SOPE   C2720144   0.315  -0.010   9.480  0.1784  0.9032 -0.1453
  177SOPE   H7R20145   0.309   0.094   9.442  1.7587  1.0000 -0.1648
  177SOPE   H7S20146   0.405  -0.065   9.447  0.9151  0.9527  1.6728
  177SOPE   C2820147   0.193  -0.077   9.406 -0.0288 -0.2196 -0.4590
  177SOPE   H8R20148   0.178  -0.181   9.442 -0.2477 -0.3434 -0.9032
  177SOPE   H8S20149   0.105  -0.021   9.443  0.3217  1.8536 -2.4983
  177SOPE   C2920150   0.210  -0.078   9.262 -0.6092  0.7903  0.0249
  177SOPE   H9120151   0.307  -0.121   9.232 -1.5826 -0.7538 -1.0560
  177SOPE  C21020152   0.127  -0.035   9.166  0.4565  0.2757  0.1067
  177SOPE  H10120153   0.159  -0.026   9.061  1.3708  2.9207  0.5345
  177SOPE  C21120154  -0.011   0.016   9.186 -0.1939 -0.0307  0.9355
  177SOPE  H11R20155  -0.070  -0.043   9.260 -0.1492 -1.9314 -0.4445
  177SOPE  H11S20156  -0.070  -0.013   9.096  1.3192  0.5153 -0.2699
  177SOPE  C21220157  -0.032   0.169   9.197  0.7032  0.0017 -0.6381
  177SOPE  H12R20158   0.032   0.204   9.281  0.9873  1.0440 -1.2755
  177SOPE  H12S20159  -0.133   0.204   9.226  1.1384  0.6786  0.1198
  177SOPE  C21320160   0.017   0.245   9.073  0.6323 -0.3277  0.4153
  177SOPE  H13R20161   0.124   0.230   9.050  0.4098 -2.2059  0.4896
  177SOPE  H13S20162  -0.003   0.352   9.098  0.1097  0.1781 -1.8973
  177SOPE  C21420163  -0.045   0.197   8.942  0.2442  0.5067  0.0642
  177SOPE  H14R20164  -0.156   0.198   8.948  0.0237 -1.5310 -1.9447
  177SOPE  H14S20165  -0.015   0.092   8.918  0.8814  1.0532 -1.7043
  177SOPE  C21520166  -0.004   0.280   8.814 -0.2247  0.4459 -0.3062
  177SOPE  H15R20167   0.105   0.275   8.794 -0.6248  0.2456 -2.7104
  177SOPE  H15S20168  -0.015   0.390   8.827  1.4104  0.8039 -1.6167
  177SOPE  C21620169  -0.084   0.230   8.694  0.4038 -0.9700  0.1371
  177SOPE  H16R20170  -0.086   0.120   8.704  0.6285 -1.2159 -1.9698
  177SOPE  H16S20171  -0.015   0.255   8.610 -1.1105  3.5730 -0.0198
  177SOPE  C21720172  -0.225   0.292   8.685 -0.5112  0.1842  0.8347
  177SOPE  H17R20173  -0.226   0.403   8.673 -0.4271  0.1556  0.5699
  177SOPE  H17S20174  -0.285   0.272   8.777  1.0928 -0.4374  1.7926
  177SOPE  C21820175  -0.302   0.217   8.569  0.2682  0.6517  0.1109
  177SOPE  H18R20176  -0.282   0.259   8.468 -1.6948 -2.8475 -1.8909
  177SOPE  H18S20177  -0.411   0.223   8.587  0.0121 -3.1161  0.5612
  177SOPE  H18T20178  -0.267   0.112   8.568 -0.4517  0.3922 -1.5888
  177SOPE   C3320179   0.937   0.016   9.954 -0.4321 -0.5680  0.6982
  177SOPE   H3X20180   1.034  -0.005  10.003  0.4512 -2.5821 -1.6721
  177SOPE   H3Y20181   0.905   0.119   9.981 -1.6776 -0.7177 -0.0955
  177SOPE   C3420182   0.972  -0.004   9.802 -0.8092  0.3588  0.1376
  177SOPE   H4X20183   1.007  -0.109   9.796  0.5217  0.8730 -1.9988
  177SOPE   H4Y20184   1.055   0.063   9.772 -1.4733  0.0880 -2.5926
  177SOPE   C3520185   0.860   0.021   9.698 -0.3800  0.6105 -0.4300
  177SOPE   H5X20186   0.835   0.128   9.712 -1.4547  0.2205  0.8267
  177SOPE   H5Y20187   0.767  -0.029   9.732 -0.6382  2.0675  1.0851
  177SOPE   C3620188   0.886  -0.011   9.557 -0.4238  0.2916  0.4225
  177SOPE   H6X20189   0.787  -0.012   9.506  0.0976 -1.2203 -0.6319
  177SOPE   H6Y20190   0.923  -0.114   9.540 -1.9244 -0.6287  2.2733
  177SOPE   C3720191   0.972   0.096   9.491  0.5682  0.4708 -0.5419
  177SOPE   H7X20192   1.079   0.069   9.508  0.5027  0.3488 -0.3335
  177SOPE   H7Y20193   0.959   0.197   9.536  0.8141  0.6276 -0.8137
  177SOPE   C3820194   0.945   0.117   9.343  0.0770 -0.1733 -0.1620
  177SOPE   H8X20195   0.840   0.098   9.314  0.8450 -1.4759 -2.2302
  177SOPE   H8Y20196   1.010   0.045   9.288  1.8840  0.9071  0.4490
  177SOPE   C3920197   0.979   0.261   9.293 -0.5688  0.5947 -0.1742
  177SOPE   H9X20198   1.084   0.288   9.319 -0.3542  0.8797 -1.2974
  177SOPE   H9Y20199   0.916   0.337   9.343  0.4594  1.2320  0.1852
  177SOPE  C31020200   0.940   0.283   9.147  0.5714 -0.4408  0.3185
  177SOPE  H10X20201   0.835   0.261   9.119  1.0158 -0.5098 -1.3687
  177SOPE  H10Y20202   1.006   0.219   9.085 -0.1257 -0.4365 -0.4284
  177SOPE  C31120203   0.986   0.422   9.103  0.3233  0.4235  0.4139
  177SOPE  H11X20204   1.093   0.439   9.126 -0.3156  0.6103  3.5797
  177SOPE  H11Y20205   0.928   0.505   9.147  0.4394 -0.4234  2.2744
  177SOPE  C31220206   0.965   0.428   8.951  0.2119 -0.3089 -0.3114
  177SOPE  H12X20207   0.956   0.534   8.917 -0.8456 -0.1171  0.4985
  177SOPE  H12Y20208   0.869   0.376   8.932  0.1342 -0.5289  0.6483
  177SOPE  C31320209   1.075   0.365   8.870  0.4119  0.2825 -0.5489
  177SOPE  H13X20210   1.079   0.255   8.885 -1.3358 -0.0938 -2.3964
  177SOPE  H13Y20211   1.172   0.403   8.909 -0.1114  1.2595 -0.1603
  177SOPE  C31420212   1.063   0.381   8.722 -0.2514  0.6606  0.0321
  177SOPE  H14X20213   1.067   0.490   8.698 -0.8303  0.0998 -3.0840
  177SOPE  H14Y20214   0.959   0.349   8.699  0.3493 -1.1441 -0.3620
  177SOPE  C31520215   1.143   0.281   8.640  0.1159  0.1122 -0.1005
  177SOPE  H15X20216   1.142   0.182   8.691  1.5800 -0.6270 -1.4301
  177SOPE  H15Y20217   1.251   0.304   8.644 -0.4816  3.1054  1.0920
  177SOPE  C31620218   1.102   0.271   8.489  0.0186  0.4336  0.1056
  177SOPE  H16X20219   0.996   0.243   8.474  0.0084  1.3358 -1.7253
  177SOPE  H16Y20220   1.169   0.195   8.444  0.2930 -0.3926  1.7954
  177SOPE  C31720221   1.129   0.397   8.394 -0.2868 -0.4193  0.0256
  177SOPE  H17X20222   1.239   0.412   8.387 -0.2161  0.1501  1.8541
  177SOPE  H17Y20223   1.093   0.484   8.454  0.2524 -0.1663 -0.0139
  177SOPE  C31820224   1.068   0.379   8.253 -0.4365 -0.1088 -0.3658
  177SOPE  H18X20225   1.067   0.476   8.198 -1.8095  0.5368  0.7366
  177SOPE  H18Y20226   0.961   0.350   8.260 -0.4595  0.4254  2.9788
  177SOPE  H18Z20227   1.128   0.300   8.204  2.2952  1.3679  0.4054
  178SOPE     N20228   4.396   6.313  10.922 -0.3125 -0.4821  0.4904
  178SOPE   HN120229   4.298   6.346  10.911  0.8027  3.1864  0.1962
  178SOPE   HN220230   4.423   6.222  10.879 -0.8416 -0.4897  0.1586
  178SOPE   HN320231   4.415   6.325  11.024  1.0423 -1.0352  0.3271
  178SOPE   C1220232   4.470   6.420  10.840 -0.4134  0.9076 -0.1371
  178SOPE  H12A20233   4.480   6.381  10.737  0.5448  0.6971  0.0193
  178SOPE  H12B20234   4.567   6.434  10.893 -0.6461  0.0112  0.5561
  178SOPE   C1120235   4.394   6.549  10.843  0.1892 -0.3032 -0.6801
  178SOPE  H11A20236   4.300   6.546  10.784 -0.8980 -1.0963  0.9910
  178SOPE  H11B20237   4.451   6.628  10.789 -1.6962 -0.9471 -3.8684
  178SOPE     P20238   4.292   6.711  11.043  0.1789  0.1807  0.1827
  178SOPE   O1320239   4.311   6.703  11.189  0.9286  0.2460 -0.1196
  178SOPE   O1420240   4.162   6.744  10.982  0.1072  0.3281  0.4673
  178SOPE   O1220241   4.360   6.584  10.981  0.4245  0.9606 -0.1623
  178SOPE   O1120242   4.402   6.813  10.991  0.4981 -0.2972 -0.0881
  178SOPE    C120243   4.380   6.953  11.022 -0.2087  0.0513 -0.2621
  178SOPE    HA20244   4.462   6.989  11.089 -1.4129  0.7767  0.8620
  178SOPE    HB20245   4.288   6.965  11.083 -0.6708 -1.4645 -0.6164
  178SOPE    C220246   4.355   7.049  10.899  0.2297 -0.2208 -0.5093
  178SOPE    HS20247   4.284   7.130  10.928 -0.1786 -0.3252 -1.1961
  178SOPE   O2120248   4.310   6.977  10.782  0.4631 -0.6300 -0.1677
  178SOPE   C2120249   4.175   6.968  10.781 -0.0385  0.2556 -0.1661
  178SOPE   O2220250   4.101   7.034  10.849  0.7469  1.1411 -0.5534
  178SOPE   C2220251   4.131   6.855  10.680 -0.7856 -0.2219  0.3121
  178SOPE   H2R20252   4.081   6.773  10.735 -0.8475 -0.7533 -0.5203
  178SOPE   H2S20253   4.224   6.814  10.636  0.3676  1.6972  0.8423
  178SOPE    C320254   4.490   7.114  10.856  0.1368  0.0181 -1.3727
  178SOPE    HX20255   4.556   7.028  10.834 -0.3969 -0.7525 -0.0686
  178SOPE    HY20256   4.539   7.168  10.941 -1.2791  2.3727 -1.9611
  178SOPE   O3120257   4.475   7.192  10.735 -0.5507  0.0935  0.5217
  178SOPE   C3120258   4.438   7.312  10.753  0.2320 -0.2709  0.0854
  178SOPE   O3220259   4.400   7.372  10.855 -0.1158 -0.0560  0.1646
  178SOPE   C3220260   4.457   7.385  10.615  0.3213 -0.7251  0.4525
  178SOPE   H2X20261   4.561   7.376  10.579  0.7580  1.5726  0.9999
  178SOPE   H2Y20262   4.454   7.495  10.629  7.3659  0.1954 -1.6152
  178SOPE   C2320263   4.036   6.897  10.567  0.3780 -0.7742 -0.3042
  178SOPE   H3R20264   3.947   6.948  10.610  2.1913  1.0095  1.6049
  178SOPE   H3S20265   3.986   6.810  10.520 -1.1599  0.8239 -1.7697
  178SOPE   C2420266   4.098   6.984  10.464  0.3546 -0.4756  0.4134
  178SOPE   H4R20267   4.019   7.046  10.416  1.7635  2.0740  1.1789
  178SOPE   H4S20268   4.180   7.047  10.504 -0.2030  1.6360 -1.5155
  178SOPE   C2520269   4.161   6.907  10.355  0.1990 -0.4131  0.5028
  178SOPE   H5R20270   4.234   6.841  10.408  0.9568  0.0227  0.0207
  178SOPE   H5S20271   4.093   6.842  10.296 -0.0545 -1.1418  1.5587
  178SOPE   C2620272   4.237   6.999  10.256 -0.1745  0.0798  0.1291
  178SOPE   H6R20273   4.288   7.078  10.315  0.1257  1.3050 -1.6990
  178SOPE   H6S20274   4.312   6.926  10.218 -0.8416 -0.5188 -0.0582
  178SOPE   C2720275   4.143   7.067  10.155 -0.2799 -0.3896  0.2869
  178SOPE   H7R20276   4.086   6.979  10.120  0.8279 -1.0769  0.1590
  178SOPE   H7S20277   4.075   7.142  10.202 -1.6765 -0.4021 -1.5602
  178SOPE   C2820278   4.206   7.127  10.023 -0.9787 -0.5209  0.5084
  178SOPE   H8R20279   4.124   7.177   9.967  0.0980  1.2944  0.4808
  178SOPE   H8S20280   4.270   7.210  10.059 -0.1848 -0.2967 -1.2695
  178SOPE   C2920281   4.283   7.033   9.936 -0.2557 -0.2193  0.9128
  178SOPE   H9120282   4.336   6.951   9.987 -0.8878 -0.6303  0.9196
  178SOPE  C21020283   4.280   7.045   9.803 -0.6827  0.4567 -0.4317
  178SOPE  H10120284   4.321   6.963   9.742 -1.4312 -1.4609  1.5295
  178SOPE  C21120285   4.215   7.159   9.726 -0.5339 -0.3988 -0.6894
  178SOPE  H11R20286   4.270   7.253   9.743 -1.2473  0.1269 -1.2454
  178SOPE  H11S20287   4.107   7.168   9.751 -0.0603 -1.2614  1.9850
  178SOPE  C21220288   4.214   7.154   9.571 -0.3665 -0.3630  0.0575
  178SOPE  H12R20289   4.316   7.146   9.526 -0.8584  1.0094 -1.4226
  178SOPE  H12S20290   4.181   7.254   9.535 -1.4734 -0.8962 -0.4614
  178SOPE  C21320291   4.118   7.049   9.507  0.3041 -0.1742  0.3881
  178SOPE  H13R20292   4.013   7.080   9.525  1.0270  2.6468  0.1125
  178SOPE  H13S20293   4.136   6.944   9.540  2.5953 -0.2711 -0.9464
  178SOPE  C21420294   4.136   7.066   9.352  0.1697  0.5806 -0.3085
  178SOPE  H14R20295   4.237   7.027   9.324 -1.0191 -1.9440 -1.4393
  178SOPE  H14S20296   4.132   7.171   9.318 -1.0402  0.6589  0.0493
  178SOPE  C21520297   4.037   6.986   9.263 -0.5006 -1.1415 -0.2448
  178SOPE  H15R20298   3.940   7.040   9.255 -0.2831 -0.7278 -0.0834
  178SOPE  H15S20299   4.023   6.889   9.315 -0.4998 -0.3572  1.2606
  178SOPE  C21620300   4.087   6.966   9.118 -0.2090  0.2162  0.2182
  178SOPE  H16R20301   4.184   6.913   9.118 -0.8054 -0.9682 -1.9382
  178SOPE  H16S20302   4.094   7.064   9.068  0.1886  0.1687  0.1769
  178SOPE  C21720303   3.979   6.882   9.052 -0.0869  0.1975 -0.2385
  178SOPE  H17R20304   3.883   6.939   9.050 -1.1818 -1.5662 -1.4757
  178SOPE  H17S20305   3.975   6.783   9.102 -0.7236  1.4159  2.2635
  178SOPE  C21820306   4.002   6.850   8.903  0.0825 -0.1075 -0.1965
  178SOPE  H18R20307   4.099   6.798   8.889 -0.7210 -1.3112 -1.6386
  178SOPE  H18S20308   4.017   6.949   8.854  0.3782  1.6457  3.1586
  178SOPE  H18T20309   3.912   6.798   8.865 -2.9089  1.9052  3.4437
  178SOPE   C3320310   4.347   7.350  10.503 -0.0483  0.2297  0.4366
  178SOPE   H3X20311   4.336   7.240  10.502  0.6667  0.0982  2.3184
  178SOPE   H3Y20312   4.400   7.374  10.408  0.1186  2.5116  1.0432
  178SOPE   C3420313   4.213   7.416  10.505  0.2784  0.2319 -0.4434
  178SOPE   H4X20314   4.226   7.526  10.517 -0.1718  0.2757 -0.3428
  178SOPE   H4Y20315   4.152   7.382  10.592  2.0315  1.8554  1.5446
  178SOPE   C3520316   4.130   7.392  10.379  0.1698  0.1198 -0.5926
  178SOPE   H5X20317   4.045   7.464  10.382  1.6818  1.9414  0.6490
  178SOPE   H5Y20318   4.085   7.290  10.382 -1.7276  0.9249  1.8251
  178SOPE   C3620319   4.196   7.415  10.243  0.0630 -0.8903  0.3103
  178SOPE   H6X20320   4.105   7.416  10.180  0.5942  0.7672 -0.5175
  178SOPE   H6Y20321   4.257   7.334  10.199  0.3791 -0.8876  0.7392
  178SOPE   C3720322   4.264   7.554  10.211  0.2493  0.3957 -0.0638
  178SOPE   H7X20323   4.353   7.559  10.278  2.8797 -0.2375 -3.2740
  178SOPE   H7Y20324   4.197   7.641  10.231 -0.4198  0.1554 -1.2141
  178SOPE   C3820325   4.286   7.568  10.064 -0.0724 -0.1137 -0.5784
  178SOPE   H8X20326   4.343   7.483  10.022 -0.9829 -0.4577 -1.1644
  178SOPE   H8Y20327   4.354   7.655  10.070  1.3901 -1.2970  0.9309
  178SOPE   C3920328   4.168   7.605   9.978  0.0283 -0.1259 -0.7414
  178SOPE   H9X20329   4.115   7.681  10.039 -1.9141 -2.0546  0.1443
  178SOPE   H9Y20330   4.102   7.515   9.979  1.8401 -1.5659 -1.9692
  178SOPE  C31020331   4.189   7.662   9.838  0.0019  0.7013 -0.5285
  178SOPE  H10X20332   4.264   7.741   9.861 -0.3371  0.9060 -0.1090
  178SOPE  H10Y20333   4.094   7.708   9.804 -1.8093 -2.1869  0.3150
  178SOPE  C31120334   4.252   7.556   9.744  0.0164 -0.6259 -0.5784
  178SOPE  H11X20335   4.179   7.471   9.741  0.3227 -0.9502  0.6204
  178SOPE  H11Y20336   4.341   7.528   9.803 -0.0860 -0.4572 -0.3402
  178SOPE  C31220337   4.292   7.611   9.600 -0.3570 -0.3023 -0.7161
  178SOPE  H12X20338   4.304   7.513   9.548 -2.4119 -0.7534 -0.4094
  178SOPE  H12Y20339   4.387   7.667   9.613  0.4110 -1.7252 -0.0343
  178SOPE  C31320340   4.193   7.708   9.537  0.1143 -0.5691  0.3571
  178SOPE  H13X20341   4.160   7.792   9.602 -4.4444 -1.4204 -0.4699
  178SOPE  H13Y20342   4.098   7.651   9.527  0.2939 -1.0575  1.3652
  178SOPE  C31420343   4.245   7.758   9.401 -0.6255  0.3298  0.4094
  178SOPE  H14X20344   4.343   7.808   9.419  0.4041 -1.2442 -0.5371
  178SOPE  H14Y20345   4.173   7.832   9.360 -1.6478 -0.4458  0.7484
  178SOPE  C31520346   4.242   7.646   9.291 -0.5262 -0.6246 -0.6022
  178SOPE  H15X20347   4.139   7.608   9.307 -1.3991  2.3325  1.6611
  178SOPE  H15Y20348   4.326   7.578   9.316  0.6986  0.6270 -1.1477
  178SOPE  C31620349   4.260   7.683   9.141 -0.0492  0.3708 -0.2692
  178SOPE  H16X20350   4.250   7.586   9.087  2.1332 -1.7456  2.8345
  178SOPE  H16Y20351   4.352   7.742   9.122 -0.8923  1.9679  0.3866
  178SOPE  C31720352   4.153   7.766   9.080 -0.8249  0.4862 -0.0247
  178SOPE  H17X20353   4.144   7.861   9.136 -0.9116  1.4220 -1.5588
  178SOPE  H17Y20354   4.057   7.714   9.100 -0.9274  1.0507  1.0197
  178SOPE  C31820355   4.148   7.794   8.926 -0.5651  0.2748 -0.5595
  178SOPE  H18X20356   4.042   7.808   8.894 -0.7327 -2.3920 -1.3796
  178SOPE  H18Y20357   4.191   7.711   8.867  2.5872  1.7181 -0.4656
  178SOPE  H18Z20358   4.203   7.886   8.898 -1.8815  0.7458 -1.6836
  179SOPE     N20359   5.162   3.061   6.483 -0.1190 -0.0452 -0.4165
  179SOPE   HN120360   5.107   3.149   6.470  0.3559  0.4505  0.8176
  179SOPE   HN220361   5.258   3.094   6.504 -0.6930  0.7146  1.2472
  179SOPE   HN320362   5.150   3.012   6.392  2.4005  1.8128 -1.8630
  179SOPE   C1220363   5.090   2.996   6.598 -0.9926 -0.4201 -0.0164
  179SOPE  H12A20364   4.982   2.984   6.575 -1.6038  0.6889  2.0381
  179SOPE  H12B20365   5.093   3.064   6.686 -1.7447  0.8945 -0.9652
  179SOPE   C1120366   5.171   2.875   6.623  0.3849  0.6120  0.4189
  179SOPE  H11A20367   5.153   2.841   6.727  0.9834 -0.9070  0.0579
  179SOPE  H11B20368   5.282   2.881   6.633  0.3406 -0.6682  2.1250
  179SOPE     P20369   5.018   2.668   6.551 -0.1422 -0.1123  0.0536
  179SOPE   O1320370   5.017   2.568   6.443 -0.4916 -0.5511  0.1937
  179SOPE   O1420371   4.889   2.746   6.567 -0.1207  0.2392  0.8169
  179SOPE   O1220372   5.138   2.766   6.532  0.0580  0.2001 -0.1494
  179SOPE   O1120373   5.053   2.599   6.691 -0.2345 -0.2195  0.1056
  179SOPE    C120374   5.130   2.477   6.673  1.1425 -0.6208 -0.0683
  179SOPE    HA20375   5.200   2.476   6.587 -0.0278 -0.7661 -1.0484
  179SOPE    HB20376   5.063   2.388   6.666 -0.8219  0.7455  0.5654
  179SOPE    C220377   5.219   2.441   6.797 -0.1073 -0.4272 -0.8138
  179SOPE    HS20378   5.250   2.337   6.776 -0.5811 -0.8614  0.5234
  179SOPE   O2120379   5.144   2.459   6.924  0.3074 -0.0018  0.2251
  179SOPE   C2120380   5.050   2.366   6.953 -0.8572  0.7340  0.2122
  179SOPE   O2220381   5.031   2.268   6.885  0.1914  0.0732 -0.0296
  179SOPE   C2220382   4.998   2.389   7.098 -0.3058 -0.1715 -0.8988
  179SOPE   H2R20383   4.888   2.398   7.106 -0.1431  1.6633 -0.0473
  179SOPE   H2S20384   5.047   2.477   7.145 -1.4077  0.4696 -0.9200
  179SOPE    C320385   5.341   2.536   6.796 -0.0032 -0.3170  0.9212
  179SOPE    HX20386   5.302   2.640   6.805 -1.2701 -0.8087  1.3126
  179SOPE    HY20387   5.386   2.535   6.694 -1.4915  1.5130  0.1673
  179SOPE   O3120388   5.436   2.480   6.892 -0.3666  0.0718 -0.4827
  179SOPE   C3120389   5.472   2.571   6.982 -0.7326 -0.1272  0.3352
  179SOPE   O3220390   5.446   2.688   6.988 -0.4116 -0.2781  0.2331
  179SOPE   C3220391   5.569   2.507   7.079 -0.3308 -0.0968 -0.5096
  179SOPE   H2X20392   5.648   2.583   7.095  0.7423 -0.9359 -1.5688
  179SOPE   H2Y20393   5.618   2.419   7.030  0.1883 -1.5248  2.3487
  179SOPE   C2320394   5.042   2.269   7.192  0.1202  0.5648 -0.5642
  179SOPE   H3R20395   5.055   2.312   7.294  1.0923 -0.2184 -0.3273
  179SOPE   H3S20396   5.142   2.244   7.150 -0.0731  1.3804 -1.5364
  179SOPE   C2420397   4.944   2.149   7.196 -0.1764 -0.2105  0.1983
  179SOPE   H4R20398   4.925   2.114   7.093 -0.8232 -2.4262  1.0028
  179SOPE   H4S20399   4.978   2.065   7.260 -3.3894 -0.2945  2.0309
  179SOPE   C2520400   4.806   2.170   7.269 -0.8575 -0.5420  0.6561
  179SOPE   H5R20401   4.751   2.244   7.206  0.1579 -1.5176 -1.5069
  179SOPE   H5S20402   4.758   2.071   7.254 -0.4894 -0.7300  0.7221
  179SOPE   C2620403   4.808   2.222   7.409  0.4791 -0.2585 -0.9794
  179SOPE   H6R20404   4.840   2.328   7.414  0.8519 -0.4034 -0.1925
  179SOPE   H6S20405   4.700   2.228   7.435  0.5788  1.3140 -0.8666
  179SOPE   C2720406   4.888   2.138   7.504 -0.4898 -0.4671  0.4329
  179SOPE   H7R20407   4.858   2.032   7.493 -1.4074 -0.1349 -0.3870
  179SOPE   H7S20408   4.998   2.141   7.489 -0.3209  1.1190  1.6319
  179SOPE   C2820409   4.886   2.184   7.649  0.9654 -0.3341  1.0855
  179SOPE   H8R20410   4.976   2.139   7.696  1.0705 -1.1509  0.1376
  179SOPE   H8S20411   4.894   2.294   7.657 -2.0218  0.5455 -3.4598
  179SOPE   C2920412   4.755   2.145   7.714 -0.4902 -0.2060  0.2505
  179SOPE   H9120413   4.662   2.139   7.657  0.6662  0.2518 -1.7507
  179SOPE  C21020414   4.749   2.107   7.838  0.1484  0.4267  0.5083
  179SOPE  H10120415   4.649   2.106   7.884 -0.1867 -0.0872 -0.2273
  179SOPE  C21120416   4.857   2.083   7.939  0.0640  0.0886 -0.0443
  179SOPE  H11R20417   4.907   2.180   7.961  1.0906 -0.2119 -0.9296
  179SOPE  H11S20418   4.936   2.027   7.885  0.1264 -0.1054  0.2447
  179SOPE  C21220419   4.823   1.991   8.059 -0.3110 -0.6394 -0.7479
  179SOPE  H12R20420   4.918   1.981   8.116 -0.8213 -1.6176 -0.0366
  179SOPE  H12S20421   4.792   1.889   8.028  0.4126 -0.8563 -0.7878
  179SOPE  C21320422   4.718   2.045   8.155  0.0438  1.1182 -1.1148
  179SOPE  H13R20423   4.628   2.067   8.095 -0.3369 -0.0087 -0.9756
  179SOPE  H13S20424   4.767   2.137   8.195  1.5812 -0.2405  0.2710
  179SOPE  C21420425   4.688   1.946   8.268 -0.1487 -0.1047 -0.0516
  179SOPE  H14R20426   4.683   1.847   8.219  2.7166 -0.0269 -0.6872
  179SOPE  H14S20427   4.592   1.972   8.317 -0.0579  2.0567 -0.9238
  179SOPE  C21520428   4.793   1.930   8.385 -0.6135 -0.0124 -0.4081
  179SOPE  H15R20429   4.803   2.026   8.441  0.3123  0.4173 -1.2829
  179SOPE  H15S20430   4.894   1.907   8.346 -0.9204 -1.2531 -0.4923
  179SOPE  C21620431   4.744   1.829   8.490 -0.1064  0.3020 -0.3152
  179SOPE  H16R20432   4.730   1.732   8.438  1.2744 -0.8653  1.3427
  179SOPE  H16S20433   4.650   1.872   8.531  0.2692  0.5438  0.3209
  179SOPE  C21720434   4.843   1.804   8.611 -0.2605 -0.6791  0.2663
  179SOPE  H17R20435   4.865   1.899   8.665 -0.0090  0.2944 -1.4456
  179SOPE  H17S20436   4.941   1.784   8.561  0.4357 -1.1344  1.7683
  179SOPE  C21820437   4.805   1.684   8.701  0.2993 -0.2084  0.1851
  179SOPE  H18R20438   4.888   1.650   8.767 -0.8020 -4.1239 -0.2197
  179SOPE  H18S20439   4.792   1.595   8.637 -0.1333 -0.2677  0.3543
  179SOPE  H18T20440   4.714   1.697   8.762  0.4620 -2.3569  0.9415
  179SOPE   C3320441   5.502   2.464   7.206 -0.1927  0.0491 -0.0595
  179SOPE   H3X20442   5.452   2.552   7.252 -2.1887 -0.5557 -0.9651
  179SOPE   H3Y20443   5.578   2.426   7.278 -0.5402 -0.3650  0.0981
  179SOPE   C3420444   5.390   2.360   7.200  0.1482  0.3483 -0.1317
  179SOPE   H4X20445   5.413   2.272   7.135 -2.3657 -0.6412  0.2303
  179SOPE   H4Y20446   5.306   2.411   7.149  0.4003  1.3379  0.4079
  179SOPE   C3520447   5.343   2.302   7.338 -0.4037 -0.8892 -0.0797
  179SOPE   H5X20448   5.432   2.263   7.392 -1.8491 -2.1065  1.5544
  179SOPE   H5Y20449   5.290   2.207   7.318  2.1927 -1.9267 -2.4813
  179SOPE   C3620450   5.289   2.415   7.427 -0.1701 -0.6006 -0.3270
  179SOPE   H6X20451   5.200   2.456   7.374 -0.1134 -2.0122 -1.5644
  179SOPE   H6Y20452   5.365   2.494   7.447 -0.8809 -0.0854  0.4247
  179SOPE   C3720453   5.245   2.379   7.569  0.7145 -0.3287  0.5689
  179SOPE   H7X20454   5.325   2.330   7.628 -0.5286 -1.0514  1.7082
  179SOPE   H7Y20455   5.159   2.308   7.563 -0.5349  1.1718 -0.0032
  179SOPE   C3820456   5.194   2.505   7.646  0.5146  0.6964 -0.0626
  179SOPE   H8X20457   5.121   2.561   7.584  1.7821  0.0301 -2.2946
  179SOPE   H8Y20458   5.283   2.569   7.663 -0.8466  2.2199  1.7631
  179SOPE   C3920459   5.133   2.474   7.789 -0.0431 -0.4638 -0.0426
  179SOPE   H9X20460   5.038   2.422   7.766  0.7746 -0.7271 -3.3153
  179SOPE   H9Y20461   5.120   2.573   7.838  0.0199 -1.6939  2.6501
  179SOPE  C31020462   5.224   2.393   7.882 -0.4546  0.0167  0.3824
  179SOPE  H10X20463   5.306   2.458   7.920  1.7593 -2.4660  0.1388
  179SOPE  H10Y20464   5.278   2.307   7.836  0.6076 -0.3130  2.1452
  179SOPE  C31120465   5.159   2.334   8.008 -0.5627  0.3042  0.0252
  179SOPE  H11X20466   5.235   2.289   8.075 -0.7341  0.8983  0.6336
  179SOPE  H11Y20467   5.084   2.257   7.979  0.8634 -0.8472 -0.7311
  179SOPE  C31220468   5.083   2.440   8.097  0.3102  0.0114  0.2854
  179SOPE  H12X20469   5.022   2.498   8.024 -0.6375 -1.6139 -0.2558
  179SOPE  H12Y20470   5.157   2.509   8.142  1.9257 -0.2211 -1.8610
  179SOPE  C31320471   4.995   2.372   8.202  0.0593  0.1221  0.0511
  179SOPE  H13X20472   4.946   2.280   8.165 -1.1172 -0.3152  2.4921
  179SOPE  H13Y20473   4.905   2.431   8.229 -0.0593 -0.6150  1.3755
  179SOPE  C31420474   5.071   2.334   8.331  0.0756 -0.3218  0.3253
  179SOPE  H14X20475   5.072   2.428   8.390  0.6927  0.0109 -0.1982
  179SOPE  H14Y20476   5.175   2.304   8.305  0.7532  1.3296  1.0414
  179SOPE  C31520477   5.004   2.226   8.418  0.1042 -0.3265  0.3074
  179SOPE  H15X20478   4.957   2.145   8.358 -0.2384  0.3011 -0.2827
  179SOPE  H15Y20479   4.913   2.276   8.458 -0.2972  0.7811 -1.8275
  179SOPE  C31620480   5.095   2.162   8.525 -0.0280 -0.0587  0.3153
  179SOPE  H16X20481   5.179   2.108   8.476 -0.1485  1.0576 -1.1987
  179SOPE  H16Y20482   5.048   2.081   8.583  1.9587 -0.2917  1.7061
  179SOPE  C31720483   5.148   2.269   8.620 -0.0667 -0.3403  0.4058
  179SOPE  H17X20484   5.219   2.339   8.571 -0.1550 -0.1910  0.4914
  179SOPE  H17Y20485   5.202   2.218   8.702 -1.0926  0.7888  1.8282
  179SOPE  C31820486   5.037   2.359   8.683 -0.0944 -0.1850  0.1991
  179SOPE  H18X20487   4.984   2.423   8.609  2.5914  1.5729 -0.3165
  179SOPE  H18Y20488   5.074   2.431   8.759  1.9137 -0.5360 -0.3965
  179SOPE  H18Z20489   4.958   2.291   8.723 -0.5329  1.1103  1.6659
  180SOPE     N20490   2.493   1.916   6.509 -0.2480  0.0064 -0.2134
  180SOPE   HN120491   2.547   2.002   6.484 -1.0424  1.1785  1.7991
  180SOPE   HN220492   2.518   1.847   6.435 -0.5789 -0.2819 -0.0547
  180SOPE   HN320493   2.391   1.928   6.497 -0.0145 -0.3776 -3.3131
  180SOPE   C1220494   2.523   1.856   6.642 -0.0428  0.5519 -0.0645
  180SOPE  H12A20495   2.457   1.767   6.650 -0.2248  0.5735 -1.2012
  180SOPE  H12B20496   2.508   1.927   6.726  0.7890  0.4649  0.1732
  180SOPE   C1120497   2.672   1.820   6.653  0.5687  0.4989  0.0762
  180SOPE  H11A20498   2.685   1.788   6.759 -4.0007 -0.5706  0.5344
  180SOPE  H11B20499   2.732   1.909   6.628  2.5438 -0.8771 -0.2792
  180SOPE     P20500   2.850   1.668   6.544  0.2169  0.1747  0.3332
  180SOPE   O1320501   2.896   1.739   6.424  0.1609  0.1755  1.2215
  180SOPE   O1420502   2.856   1.522   6.527 -0.2441 -0.1861  0.3041
  180SOPE   O1220503   2.699   1.714   6.560 -0.0373  0.5340  0.2267
  180SOPE   O1120504   2.924   1.711   6.677  0.0600 -0.2683  0.5473
  180SOPE    C120505   3.071   1.686   6.663  0.5792 -0.3839  0.4776
  180SOPE    HA20506   3.109   1.729   6.568 -0.9034 -1.5355 -0.6818
  180SOPE    HB20507   3.090   1.577   6.673  0.1606 -0.4497  0.5674
  180SOPE    C220508   3.158   1.760   6.772 -0.5871  0.9415 -0.6103
  180SOPE    HS20509   3.262   1.729   6.748 -1.4277 -1.2981 -1.5140
  180SOPE   O2120510   3.127   1.718   6.903 -0.6669 -0.2397 -0.7134
  180SOPE   C2120511   3.151   1.586   6.933 -0.1092  0.6178  0.6379
  180SOPE   O2220512   3.218   1.509   6.867  0.0999 -0.1221  0.3754
  180SOPE   C2220513   3.093   1.553   7.073 -0.0741  0.6014 -0.0865
  180SOPE   H2R20514   3.047   1.452   7.076  1.0607  0.1000  1.6005
  180SOPE   H2S20515   3.016   1.632   7.087  0.0366  0.4962  1.1716
  180SOPE    C320516   3.141   1.912   6.765  0.2944 -0.4270  0.7903
  180SOPE    HX20517   3.031   1.923   6.768  0.4880  2.2759  0.4439
  180SOPE    HY20518   3.166   1.952   6.664  0.9527 -0.4491  0.9369
  180SOPE   O3120519   3.191   1.991   6.878 -0.0702 -0.1621  0.5081
  180SOPE   C3120520   3.320   2.008   6.865  0.1552 -0.2851 -0.2493
  180SOPE   O3220521   3.390   1.962   6.778 -0.5540 -0.4605  0.6286
  180SOPE   C3220522   3.370   2.101   6.975  0.6491  0.0576 -0.4777
  180SOPE   H2X20523   3.371   2.036   7.066  2.0001  0.2456 -0.3308
  180SOPE   H2Y20524   3.285   2.172   6.976 -0.5380 -1.2844  1.5924
  180SOPE   C2320525   3.206   1.555   7.185  0.1844 -0.0609 -0.6365
  180SOPE   H3R20526   3.250   1.656   7.178  1.8976 -0.4539  2.5552
  180SOPE   H3S20527   3.281   1.477   7.161  0.1312  0.1722 -1.5866
  180SOPE   C2420528   3.159   1.526   7.337 -0.4402  0.1328  0.7485
  180SOPE   H4R20529   3.245   1.566   7.395  0.5654  2.8972 -2.3192
  180SOPE   H4S20530   3.070   1.586   7.366 -2.3796 -1.5744 -1.3130
  180SOPE   C2520531   3.143   1.375   7.367  1.2668 -0.3863  0.0621
  180SOPE   H5R20532   3.053   1.345   7.310  0.1126  5.0400 -1.6040
  180SOPE   H5S20533   3.234   1.321   7.332 -0.1203 -1.4374 -2.1107
  180SOPE   C2620534   3.108   1.350   7.509 -0.3594 -0.5737 -0.9267
  180SOPE   H6R20535   3.007   1.391   7.534 -0.3125 -0.3467 -1.1036
  180SOPE   H6S20536   3.100   1.240   7.525 -0.3336 -0.4787 -0.2211
  180SOPE   C2720537   3.208   1.413   7.608 -0.5507  0.0823 -0.3761
  180SOPE   H7R20538   3.309   1.393   7.566 -0.9338  1.8171 -2.2910
  180SOPE   H7S20539   3.201   1.523   7.622 -2.1688 -0.1394  0.8777
  180SOPE   C2820540   3.191   1.345   7.745 -0.7842 -0.6216 -0.2424
  180SOPE   H8R20541   3.194   1.235   7.741  2.2859 -0.6313  0.4045
  180SOPE   H8S20542   3.286   1.363   7.800  0.8362 -1.8231 -2.5152
  180SOPE   C2920543   3.065   1.403   7.814 -1.0125 -0.2319  0.0067
  180SOPE   H9120544   3.018   1.493   7.772  0.4525  0.4302 -0.3047
  180SOPE  C21020545   3.017   1.359   7.932 -0.2071 -1.0165  0.8557
  180SOPE  H10120546   2.928   1.403   7.980 -1.0407  0.1613 -1.6223
  180SOPE  C21120547   3.071   1.244   8.010 -0.6215 -0.1628  0.3137
  180SOPE  H11R20548   3.126   1.175   7.943  0.6467  2.0106 -1.0114
  180SOPE  H11S20549   2.994   1.198   8.076  0.0188 -1.1899  0.3626
  180SOPE  C21220550   3.186   1.292   8.100  0.1369  0.4614 -0.0651
  180SOPE  H12R20551   3.157   1.388   8.150 -1.8066  0.3902 -0.9551
  180SOPE  H12S20552   3.277   1.320   8.043  1.7495 -1.4577  1.4308
  180SOPE  C21320553   3.231   1.187   8.204  0.0148 -0.2440 -0.2307
  180SOPE  H13R20554   3.211   1.083   8.171 -0.7896 -0.2786  0.3422
  180SOPE  H13S20555   3.163   1.203   8.290 -1.9210 -1.5512 -1.4405
  180SOPE  C21420556   3.380   1.201   8.259 -0.1118  0.3157 -0.2204
  180SOPE  H14R20557   3.452   1.187   8.175  0.2731 -0.3934  0.2269
  180SOPE  H14S20558   3.400   1.127   8.338 -1.6433  0.3655  0.2386
  180SOPE  C21520559   3.407   1.338   8.322  0.6620  0.0195  0.2938
  180SOPE  H15R20560   3.341   1.351   8.411  1.6161  0.4322  0.9665
  180SOPE  H15S20561   3.380   1.413   8.245 -2.0146 -0.4931  0.6134
  180SOPE  C21620562   3.552   1.350   8.362 -0.0548  0.1601 -0.2164
  180SOPE  H16R20563   3.605   1.359   8.264  0.1693 -1.6604 -0.2848
  180SOPE  H16S20564   3.597   1.258   8.404  0.8057 -0.1778 -1.7933
  180SOPE  C21720565   3.586   1.476   8.447  0.1966  0.2868  0.3520
  180SOPE  H17R20566   3.568   1.560   8.377 -0.2865  0.9077  1.2029
  180SOPE  H17S20567   3.694   1.478   8.472  0.4439 -1.6521 -0.3987
  180SOPE  C21820568   3.519   1.476   8.587 -0.4050 -0.1253 -0.0640
  180SOPE  H18R20569   3.410   1.466   8.570 -0.2475 -1.2804 -0.5190
  180SOPE  H18S20570   3.538   1.571   8.640 -0.2655  1.1105 -2.2198
  180SOPE  H18T20571   3.560   1.389   8.644 -3.1738 -1.6927 -0.2895
  180SOPE   C3320572   3.505   2.165   6.943  0.0772  0.3503  0.7626
  180SOPE   H3X20573   3.499   2.218   6.845 -1.4891  0.0496  0.6764
  180SOPE   H3Y20574   3.586   2.089   6.933 -0.5919 -0.2060 -0.7941
  180SOPE   C3420575   3.543   2.271   7.051 -0.5336  0.5689  0.7017
  180SOPE   H4X20576   3.469   2.354   7.053 -1.5817  0.0408 -4.1874
  180SOPE   H4Y20577   3.637   2.320   7.018  0.1348 -0.4764  1.0069
  180SOPE   C3520578   3.559   2.204   7.190 -0.3208  0.4925 -0.0114
  180SOPE   H5X20579   3.610   2.105   7.185  0.0442  0.5679  1.5882
  180SOPE   H5Y20580   3.452   2.194   7.216 -0.9873  1.8893 -1.9580
  180SOPE   C3620581   3.618   2.288   7.304  0.3406 -1.0495  0.3776
  180SOPE   H6X20582   3.573   2.389   7.311  3.1521  0.6467 -2.8458
  180SOPE   H6Y20583   3.726   2.312   7.296 -0.3452  2.4201 -0.1324
  180SOPE   C3720584   3.597   2.207   7.432 -0.1880 -0.6257  0.2608
  180SOPE   H7X20585   3.660   2.116   7.442  0.1882 -0.0995  4.2540
  180SOPE   H7Y20586   3.492   2.170   7.428 -0.9088  1.3595 -1.0690
  180SOPE   C3820587   3.604   2.297   7.559  0.4181  0.0317  0.0731
  180SOPE   H8X20588   3.532   2.380   7.543  0.6297 -0.0465 -1.5220
  180SOPE   H8Y20589   3.708   2.331   7.580 -0.8306  1.9688  3.9304
  180SOPE   C3920590   3.558   2.195   7.668 -0.6566 -0.0344  0.2719
  180SOPE   H9X20591   3.624   2.107   7.653 -0.6489 -0.0904  0.6214
  180SOPE   H9Y20592   3.453   2.169   7.644 -1.4138  2.7695  0.2049
  180SOPE  C31020593   3.580   2.245   7.811  0.1558  0.0855 -0.2384
  180SOPE  H10X20594   3.502   2.324   7.821 -0.2151 -0.3105  0.0519
  180SOPE  H10Y20595   3.678   2.296   7.818 -0.1733  0.4562  2.5297
  180SOPE  C31120596   3.582   2.133   7.916  0.2548 -1.2766 -0.0506
  180SOPE  H11X20597   3.630   2.167   8.011 -0.6036  0.6832 -0.2687
  180SOPE  H11Y20598   3.642   2.049   7.876  1.9068  0.2595 -0.9189
  180SOPE  C31220599   3.443   2.071   7.947 -0.0230 -0.2704 -0.8553
  180SOPE  H12X20600   3.387   2.031   7.860  0.3909 -2.1659 -0.3074
  180SOPE  H12Y20601   3.380   2.144   8.001  2.6268  0.7697  1.0519
  180SOPE  C31320602   3.465   1.956   8.058 -0.3990 -0.6520  0.1366
  180SOPE  H13X20603   3.530   1.997   8.140 -0.5418 -0.4695  0.1602
  180SOPE  H13Y20604   3.522   1.874   8.010  1.6334  1.5680 -1.4628
  180SOPE  C31420605   3.337   1.919   8.130 -0.0319  0.0330  0.3753
  180SOPE  H14X20606   3.264   1.884   8.053  0.7069 -0.1849 -0.2361
  180SOPE  H14Y20607   3.298   1.998   8.198  0.1038 -0.4331  1.0091
  180SOPE  C31520608   3.364   1.810   8.236  0.1559 -0.8686 -0.5680
  180SOPE  H15X20609   3.453   1.832   8.299  0.0061  2.1776 -1.2301
  180SOPE  H15Y20610   3.370   1.718   8.174 -2.5765 -0.1622 -2.0456
  180SOPE  C31620611   3.247   1.792   8.340  1.0848 -0.9045  0.6294
  180SOPE  H16X20612   3.228   1.887   8.394  1.9681 -0.0742 -0.4693
  180SOPE  H16Y20613   3.282   1.730   8.425  0.7902  0.2766  1.6344
  180SOPE  C31720614   3.117   1.743   8.269  0.0075 -0.3418 -0.4004
  180SOPE  H17X20615   3.142   1.642   8.230  0.5675 -0.6634  0.7457
  180SOPE  H17Y20616   3.086   1.811   8.187  0.6105 -0.6332 -0.8730
  180SOPE  C31820617   2.999   1.735   8.369 -1.0051  0.2369 -0.2778
  180SOPE  H18X20618   2.915   1.678   8.323  0.4910 -1.7351 -0.7178
  180SOPE  H18Y20619   2.972   1.840   8.392  2.5666  1.1688  0.2606
  180SOPE  H18Z20620   3.038   1.682   8.459  0.0493 -0.2980 -1.0162
  181SOPE     N20621   3.245   6.682   5.840 -0.4337 -0.0065  0.2211
  181SOPE   HN120622   3.160   6.708   5.786 -0.4298  0.7238  0.5625
  181SOPE   HN220623   3.300   6.767   5.861 -1.3901  0.4540  0.8855
  181SOPE   HN320624   3.296   6.634   5.762 -0.5414 -0.1972  0.2659
  181SOPE   C1220625   3.209   6.594   5.953  0.8232  0.1953 -0.2433
  181SOPE  H12A20626   3.165   6.501   5.912 -1.3435  0.5969  1.0120
  181SOPE  H12B20627   3.131   6.651   6.008  2.2728  1.4520  0.5938
  181SOPE   C1120628   3.330   6.568   6.035  0.4268 -0.1303 -0.0970
  181SOPE  H11A20629   3.308   6.491   6.112 -0.6237  0.1148 -0.1378
  181SOPE  H11B20630   3.341   6.661   6.094 -3.0356 -0.9235  2.0536
  181SOPE     P20631   3.590   6.521   6.026  0.0447  0.3370 -0.1680
  181SOPE   O1320632   3.679   6.610   5.942 -0.3406  0.9171 -0.3594
  181SOPE   O1420633   3.617   6.376   6.021  0.6222  0.3921  0.0258
  181SOPE   O1220634   3.451   6.533   5.961  0.5068 -0.1949 -0.2350
  181SOPE   O1120635   3.565   6.568   6.173 -0.6666 -0.8856  0.1571
  181SOPE    C120636   3.540   6.476   6.284 -0.1791 -0.1840 -0.1856
  181SOPE    HA20637   3.590   6.378   6.267 -2.7526 -1.3426 -1.6150
  181SOPE    HB20638   3.432   6.452   6.287 -0.2611 -0.0006 -1.3262
  181SOPE    C220639   3.585   6.541   6.421 -0.5331 -0.5219 -0.4359
  181SOPE    HS20640   3.574   6.465   6.501 -0.8764 -1.9279 -1.7616
  181SOPE   O2120641   3.489   6.648   6.432 -0.1283  0.4540 -0.0829
  181SOPE   C2120642   3.381   6.611   6.489 -0.4447 -0.0204 -0.6399
  181SOPE   O2220643   3.354   6.499   6.524  0.0457 -0.0930  0.5192
  181SOPE   C2220644   3.283   6.731   6.509  0.4839  0.3422  0.1467
  181SOPE   H2R20645   3.197   6.708   6.443  1.5820  0.9471 -1.5649
  181SOPE   H2S20646   3.321   6.830   6.478  2.4903  0.9403  3.9003
  181SOPE    C320647   3.731   6.603   6.429  0.1530 -0.1233 -0.3022
  181SOPE    HX20648   3.748   6.668   6.340  2.3703 -0.0033  0.1507
  181SOPE    HY20649   3.803   6.519   6.419 -0.1966 -1.0065  3.2330
  181SOPE   O3120650   3.750   6.674   6.548  0.0436 -0.0673  0.0256
  181SOPE   C3120651   3.717   6.805   6.557  0.3705 -0.0464  0.4277
  181SOPE   O3220652   3.682   6.873   6.464 -0.0152  0.7556 -0.3906
  181SOPE   C3220653   3.719   6.841   6.704  0.1039  0.3124 -0.4844
  181SOPE   H2X20654   3.694   6.753   6.767 -1.8250  0.2898 -1.2005
  181SOPE   H2Y20655   3.638   6.916   6.719  0.0473 -0.2787  3.1281
  181SOPE   C2320656   3.225   6.729   6.653  0.6752  0.2651  0.0990
  181SOPE   H3R20657   3.228   6.624   6.690 -0.2780  0.0467 -0.4260
  181SOPE   H3S20658   3.121   6.768   6.653 -0.3121 -2.1901 -0.0396
  181SOPE   C2420659   3.302   6.825   6.748 -0.3000  0.4411 -0.5142
  181SOPE   H4R20660   3.412   6.820   6.732 -0.6622 -0.6815 -3.2743
  181SOPE   H4S20661   3.267   6.928   6.728 -3.0626 -0.3137  0.0841
  181SOPE   C2520662   3.264   6.813   6.900  0.0875 -0.1930  0.3523
  181SOPE   H5R20663   3.157   6.784   6.908  0.2588 -0.8636  0.2832
  181SOPE   H5S20664   3.309   6.725   6.951  0.0733 -0.9432 -0.8708
  181SOPE   C2620665   3.297   6.935   6.989 -0.2079  0.4467 -0.1923
  181SOPE   H6R20666   3.408   6.947   6.990 -0.1477  0.4806  3.1401
  181SOPE   H6S20667   3.252   7.029   6.951  2.3966  2.6571  1.7878
  181SOPE   C2720668   3.252   6.920   7.131  0.4174  0.0613 -0.0877
  181SOPE   H7R20669   3.142   6.902   7.138  0.3980  0.6678  1.5553
  181SOPE   H7S20670   3.301   6.831   7.174  1.7191  0.3573 -0.9238
  181SOPE   C2820671   3.308   7.030   7.221  0.2953  0.2624 -0.3575
  181SOPE   H8R20672   3.415   7.049   7.199  0.9156 -0.2565  1.9345
  181SOPE   H8S20673   3.260   7.126   7.193  1.4433  1.3275  1.1312
  181SOPE   C2920674   3.277   7.006   7.369  0.0099 -1.0870 -0.5009
  181SOPE   H9120675   3.194   6.938   7.393 -0.0781  0.0715  3.0054
  181SOPE  C21020676   3.332   7.079   7.475  0.7342 -0.0381  0.9018
  181SOPE  H10120677   3.291   7.055   7.575  0.2408 -1.8495  0.3093
  181SOPE  C21120678   3.444   7.177   7.458  0.2927  0.2691 -0.3289
  181SOPE  H11R20679   3.428   7.260   7.531  1.3776  0.6863 -0.5388
  181SOPE  H11S20680   3.441   7.236   7.364 -0.7106  3.4706  1.5453
  181SOPE  C21220681   3.587   7.122   7.496  0.1439  0.6873  0.7311
  181SOPE  H12R20682   3.659   7.206   7.507  1.8962 -0.7673  0.8724
  181SOPE  H12S20683   3.621   7.060   7.410 -0.6282  1.2690 -0.0147
  181SOPE  C21320684   3.602   7.052   7.627  0.5188  0.2035 -0.3746
  181SOPE  H13R20685   3.712   7.039   7.640  0.3540 -0.9157 -0.0137
  181SOPE  H13S20686   3.564   6.948   7.621  1.9592 -0.4053  0.4652
  181SOPE  C21420687   3.549   7.131   7.749  0.1596 -0.3471  0.0421
  181SOPE  H14R20688   3.440   7.116   7.761  0.4040 -0.6881  2.1397
  181SOPE  H14S20689   3.559   7.241   7.735 -1.3400  0.1961  2.5931
  181SOPE  C21520690   3.612   7.083   7.889  0.2189  0.0828  0.1275
  181SOPE  H15R20691   3.722   7.068   7.880  0.1598  0.6508 -2.2979
  181SOPE  H15S20692   3.567   6.985   7.918 -2.0528  1.5839  2.0757
  181SOPE  C21620693   3.586   7.190   7.989 -0.3734  0.5701 -0.0195
  181SOPE  H16R20694   3.477   7.206   8.005 -0.9571 -1.0861 -1.9756
  181SOPE  H16S20695   3.631   7.284   7.951  3.6250 -0.8973  0.5652
  181SOPE  C21720696   3.658   7.157   8.126 -0.1584 -0.3112 -0.1145
  181SOPE  H17R20697   3.664   7.249   8.189  1.4683 -0.6085  0.1891
  181SOPE  H17S20698   3.759   7.117   8.104  0.7004  1.8123 -0.3329
  181SOPE  C21820699   3.601   7.043   8.204  0.4429  1.3666  0.5290
  181SOPE  H18R20700   3.651   7.036   8.303 -1.7259  0.5533  1.6254
  181SOPE  H18S20701   3.594   6.948   8.147 -2.1078  0.5224  2.0719
  181SOPE  H18T20702   3.494   7.050   8.235 -0.5786 -2.8909 -1.2010
  181SOPE   C3320703   3.852   6.906   6.735 -0.1080  0.2311 -0.1197
  181SOPE   H3X20704   3.834   6.960   6.831  0.5699 -1.5263  1.0544
  181SOPE   H3Y20705   3.887   6.990   6.672  2.9637  0.2683  1.4468
  181SOPE   C3420706   3.960   6.800   6.767 -0.1561  0.5352 -0.6537
  181SOPE   H4X20707   4.065   6.835   6.753  0.3125 -1.1876 -1.7995
  181SOPE   H4Y20708   3.942   6.723   6.688  0.3534  0.3495 -0.5929
  181SOPE   C3520709   3.952   6.716   6.899  0.1824 -0.4800  0.0188
  181SOPE   H5X20710   4.033   6.640   6.900  0.9079  0.2841  0.2863
  181SOPE   H5Y20711   3.849   6.678   6.883 -0.2048  0.2667  0.6603
  181SOPE   C3620712   3.961   6.790   7.038  0.0605 -0.3626  0.1643
  181SOPE   H6X20713   3.867   6.848   7.045 -0.4998 -1.0530 -1.2567
  181SOPE   H6Y20714   4.044   6.863   7.026  0.2992 -0.2784  2.0802
  181SOPE   C3720715   3.977   6.699   7.156 -0.5106  0.2535  0.2603
  181SOPE   H7X20716   4.073   6.644   7.161  0.0641  0.8972 -2.3631
  181SOPE   H7Y20717   3.896   6.624   7.165  0.0900 -0.5127 -0.5859
  181SOPE   C3820718   3.975   6.788   7.285 -0.1932  0.1800  0.0578
  181SOPE   H8X20719   3.886   6.854   7.275  0.6077  1.3010  0.1033
  181SOPE   H8Y20720   4.063   6.856   7.290 -0.8806  1.0346  1.1108
  181SOPE   C3920721   3.952   6.697   7.401 -0.1345  0.7310  0.5508
  181SOPE   H9X20722   4.032   6.622   7.421  0.5251  1.9028  2.5798
  181SOPE   H9Y20723   3.862   6.632   7.391  0.0766  0.4931  0.1767
  181SOPE  C31020724   3.937   6.772   7.538  0.9247 -0.3793  1.0929
  181SOPE  H10X20725   3.862   6.852   7.518  2.2176  0.8205  0.8658
  181SOPE  H10Y20726   4.029   6.831   7.557  0.1889  0.4162  2.3603
  181SOPE  C31120727   3.875   6.677   7.639  0.1562 -0.2836 -0.6393
  181SOPE  H11X20728   3.954   6.604   7.668  0.0553  0.4356  1.6806
  181SOPE  H11Y20729   3.786   6.625   7.596 -0.3208  0.1876 -0.2335
  181SOPE  C31220730   3.843   6.748   7.776 -0.5224  0.0005 -0.2348
  181SOPE  H12X20731   3.741   6.793   7.775 -1.6876 -2.3842  1.3777
  181SOPE  H12Y20732   3.910   6.837   7.780 -1.7574  0.9493 -0.1749
  181SOPE  C31320733   3.866   6.657   7.904  0.1482 -0.3536  0.2723
  181SOPE  H13X20734   3.958   6.597   7.887 -0.8655 -1.3514 -2.0760
  181SOPE  H13Y20735   3.787   6.578   7.907 -1.6060  1.0290 -3.2599
  181SOPE  C31420736   3.871   6.755   8.028  0.0212 -0.3682  0.5647
  181SOPE  H14X20737   3.792   6.832   8.014 -0.1209 -0.6696 -0.3359
  181SOPE  H14Y20738   3.972   6.802   8.020  0.0538 -0.5332 -0.0688
  181SOPE  C31520739   3.853   6.669   8.153  0.3863 -0.2887  0.4814
  181SOPE  H15X20740   3.943   6.605   8.161  3.9077  4.0566 -0.5576
  181SOPE  H15Y20741   3.765   6.603   8.136  0.5573 -0.4980  0.4108
  181SOPE  C31620742   3.827   6.749   8.284 -0.6553  0.4505  0.1192
  181SOPE  H16X20743   3.801   6.676   8.364 -0.6320 -0.2658 -0.5114
  181SOPE  H16Y20744   3.725   6.792   8.274 -0.3406  1.4466  1.0185
  181SOPE  C31720745   3.948   6.833   8.330  0.1079  0.2277  0.2470
  181SOPE  H17X20746   4.007   6.882   8.250  0.8546  1.2601  1.3946
  181SOPE  H17Y20747   4.019   6.774   8.393  0.1072  1.1281  1.1231
  181SOPE  C31820748   3.899   6.952   8.418 -0.2804 -0.1202 -0.6107
  181SOPE  H18X20749   3.983   6.990   8.479 -0.5366  0.4969 -0.6350
  181SOPE  H18Y20750   3.817   6.924   8.487  1.1031 -0.3410  1.0108
  181SOPE  H18Z20751   3.854   7.038   8.364  0.2209  0.9931  0.6930
  182SOPE     N20752   1.773   0.990   6.132  0.2492  0.5043  0.6751
  182SOPE   HN120753   1.854   0.970   6.069  0.6367  0.6476  1.1191
  182SOPE   HN220754   1.772   1.093   6.143  2.4716  0.8003 -1.0795
  182SOPE   HN320755   1.788   0.942   6.224 -1.4320 -3.6624 -0.9732
  182SOPE   C1220756   1.645   0.950   6.068  0.6694  0.6599 -0.0251
  182SOPE  H12A20757   1.668   0.849   6.030  0.1146 -0.8816  3.3560
  182SOPE  H12B20758   1.610   1.032   6.002 -0.9341 -2.4891 -3.3808
  182SOPE   C1120759   1.546   0.924   6.191  0.1952 -0.0662  0.1326
  182SOPE  H11A20760   1.450   0.892   6.144  1.2285 -0.0026 -2.1435
  182SOPE  H11B20761   1.528   1.017   6.249 -0.4457  0.4789 -0.9144
  182SOPE     P20762   1.593   0.668   6.242  0.3617 -0.3013  0.1200
  182SOPE   O1320763   1.726   0.606   6.213 -0.7214 -0.6400 -0.7253
  182SOPE   O1420764   1.486   0.644   6.151  0.5701  0.1560  0.4637
  182SOPE   O1220765   1.608   0.823   6.264  0.1206 -0.1176  0.0766
  182SOPE   O1120766   1.540   0.630   6.377 -0.1676  0.0826  0.1500
  182SOPE    C120767   1.626   0.630   6.489 -0.3711 -0.4522  0.1237
  182SOPE    HA20768   1.735   0.618   6.471 -0.1858  1.7676 -0.5228
  182SOPE    HB20769   1.588   0.550   6.557  0.1387 -2.2909 -1.6346
  182SOPE    C220770   1.621   0.756   6.575  0.6987 -0.6262 -0.0108
  182SOPE    HS20771   1.689   0.828   6.526  1.7540  0.5323  2.9459
  182SOPE   O2120772   1.667   0.728   6.708  0.1854  0.1302 -0.2386
  182SOPE   C2120773   1.797   0.740   6.727 -0.0134 -0.5242  0.3195
  182SOPE   O2220774   1.872   0.781   6.640  0.4664  0.4563  0.1204
  182SOPE   C2220775   1.839   0.680   6.863  0.7725 -0.0642  0.3996
  182SOPE   H2R20776   1.836   0.570   6.846 -2.9624  0.0501 -0.6460
  182SOPE   H2S20777   1.761   0.700   6.940  0.4713 -3.5030  1.1609
  182SOPE    C320778   1.476   0.813   6.585 -0.1862 -0.2870  0.1270
  182SOPE    HX20779   1.403   0.742   6.628 -0.0086  0.7737  2.3442
  182SOPE    HY20780   1.446   0.840   6.482  0.5984  1.5822  0.3446
  182SOPE   O3120781   1.462   0.931   6.663 -0.1456 -0.6758 -0.0574
  182SOPE   C3120782   1.342   0.986   6.648  0.5889 -0.1833  1.2504
  182SOPE   O3220783   1.251   0.933   6.585  0.4634  0.2948 -0.4179
  182SOPE   C3220784   1.346   1.124   6.712 -0.0728 -0.1252 -0.0712
  182SOPE   H2X20785   1.365   1.194   6.628  2.9661 -0.8786 -0.1343
  182SOPE   H2Y20786   1.434   1.145   6.778 -0.9047 -0.7919  1.2829
  182SOPE   C2320787   1.985   0.733   6.897 -0.1865  0.6154  0.0089
  182SOPE   H3R20788   1.994   0.842   6.879 -0.8059  0.6806  0.0734
  182SOPE   H3S20789   2.052   0.683   6.824 -1.1443 -0.1006 -0.4002
  182SOPE   C2420790   2.026   0.708   7.044  0.4111  0.5451 -0.2440
  182SOPE   H4R20791   2.137   0.704   7.056  0.1919 -0.8520  1.7358
  182SOPE   H4S20792   1.973   0.778   7.112  1.4795  0.8267  0.3165
  182SOPE   C2520793   1.984   0.572   7.101  0.6408  0.2305  0.1231
  182SOPE   H5R20794   1.875   0.558   7.086  0.5880 -0.0826  0.7281
  182SOPE   H5S20795   2.033   0.484   7.053 -0.6864  0.0308 -0.9151
  182SOPE   C2620796   2.000   0.554   7.260 -0.3356 -0.0786  0.1848
  182SOPE   H6R20797   1.960   0.453   7.281 -2.4185  0.2551 -1.7213
  182SOPE   H6S20798   2.109   0.561   7.279 -0.2051 -0.0872 -0.5193
  182SOPE   C2720799   1.934   0.662   7.356  0.0574  1.3746 -0.2576
  182SOPE   H7R20800   1.979   0.758   7.324  0.4162  1.2719 -0.0597
  182SOPE   H7S20801   1.823   0.656   7.348  0.1529  1.4220 -2.3375
  182SOPE   C2820802   1.993   0.638   7.499  1.2019 -0.3537  0.2200
  182SOPE   H8R20803   2.087   0.579   7.490  1.6319  0.2660  0.6321
  182SOPE   H8S20804   2.025   0.735   7.542  3.9306 -1.8898  1.9390
  182SOPE   C2920805   1.885   0.572   7.586  0.1048  0.3391  0.5795
  182SOPE   H9120806   1.822   0.497   7.536  0.9958  0.1666 -0.3029
  182SOPE  C21020807   1.860   0.587   7.720 -0.0606 -0.1647  0.0535
  182SOPE  H10120808   1.784   0.524   7.768  0.3463 -1.6682 -1.2163
  182SOPE  C21120809   1.947   0.657   7.817  0.6626 -0.0303  0.0857
  182SOPE  H11R20810   1.897   0.741   7.869  1.3017  1.4967 -1.6642
  182SOPE  H11S20811   2.039   0.698   7.771  0.9318  0.1508  0.7664
  182SOPE  C21220812   2.004   0.560   7.920 -0.1916  0.3816 -0.5200
  182SOPE  H12R20813   2.068   0.481   7.874 -0.9611  0.1142 -1.1533
  182SOPE  H12S20814   1.923   0.505   7.973 -0.4884  1.2115 -0.1069
  182SOPE  C21320815   2.100   0.632   8.016  0.6352 -0.2311  0.1487
  182SOPE  H13R20816   2.075   0.740   8.025 -0.1695 -0.5256  1.8193
  182SOPE  H13S20817   2.204   0.623   7.979  0.6702 -0.8149  0.3845
  182SOPE  C21420818   2.112   0.556   8.151  0.3122  0.8398  0.2501
  182SOPE  H14R20819   2.120   0.447   8.131 -2.2185  0.5347  0.4823
  182SOPE  H14S20820   2.022   0.568   8.215 -0.7853  2.5573 -1.5081
  182SOPE  C21520821   2.225   0.610   8.240 -0.2139  0.0804  0.8626
  182SOPE  H15R20822   2.318   0.611   8.179  0.3998  0.2271  1.7748
  182SOPE  H15S20823   2.240   0.543   8.328 -0.3888  0.9621  1.5766
  182SOPE  C21620824   2.197   0.747   8.296 -0.1516  0.3095 -0.2801
  182SOPE  H16R20825   2.093   0.763   8.330 -1.0207 -2.9055 -1.0198
  182SOPE  H16S20826   2.214   0.812   8.207  1.9649  0.9886  0.5613
  182SOPE  C21720827   2.302   0.786   8.399  0.5036 -0.0403  0.1378
  182SOPE  H17R20828   2.298   0.713   8.482 -0.3335 -0.5240 -0.3075
  182SOPE  H17S20829   2.286   0.894   8.421 -0.1527 -0.0777 -0.1213
  182SOPE  C21820830   2.445   0.781   8.337 -0.1125  0.1959 -0.3722
  182SOPE  H18R20831   2.463   0.838   8.243  1.9917 -3.2271 -2.2534
  182SOPE  H18S20832   2.488   0.680   8.323  1.5168  0.8162 -0.0853
  182SOPE  H18T20833   2.515   0.836   8.405  1.4892 -1.6907 -0.4017
  182SOPE   C3320834   1.220   1.171   6.783 -0.5929  0.7757 -0.3182
  182SOPE   H3X20835   1.127   1.128   6.738  0.8915 -0.5768 -2.2625
  182SOPE   H3Y20836   1.218   1.282   6.777 -1.5471  0.7861 -0.0044
  182SOPE   C3420837   1.233   1.130   6.930 -0.3717 -0.0995  0.2543
  182SOPE   H4X20838   1.320   1.185   6.972 -0.0557 -0.1872 -0.2710
  182SOPE   H4Y20839   1.242   1.020   6.939 -0.7190 -0.2593 -1.1209
  182SOPE   C3520840   1.108   1.170   7.006  0.5692  0.3152 -0.1373
  182SOPE   H5X20841   1.020   1.142   6.944 -2.6754  0.4432  3.9899
  182SOPE   H5Y20842   1.101   1.280   7.016 -1.6231  0.1102  1.1219
  182SOPE   C3620843   1.104   1.084   7.140  0.3726 -0.0752 -0.4073
  182SOPE   H6X20844   1.109   0.974   7.127 -2.5046 -0.1551 -1.7246
  182SOPE   H6Y20845   1.010   1.108   7.195  1.0515  0.9581  0.3419
  182SOPE   C3720846   1.215   1.124   7.237  0.0585 -0.1204 -0.9953
  182SOPE   H7X20847   1.231   1.234   7.234  0.7567 -0.2225 -1.2448
  182SOPE   H7Y20848   1.308   1.071   7.205  0.3092 -0.0201 -0.4415
  182SOPE   C3820849   1.185   1.070   7.381 -0.5253  0.7868 -0.3235
  182SOPE   H8X20850   1.185   0.959   7.378 -3.5347  0.7230 -1.0918
  182SOPE   H8Y20851   1.080   1.098   7.404 -0.2152  0.9574  0.9697
  182SOPE   C3920852   1.277   1.136   7.484  1.1517  0.2981 -0.3334
  182SOPE   H9X20853   1.291   1.246   7.478  0.5347  0.4735  1.0844
  182SOPE   H9Y20854   1.375   1.084   7.479  1.3967  0.4669  1.9535
  182SOPE  C31020855   1.232   1.099   7.626 -0.1105 -0.2702 -0.0808
  182SOPE  H10X20856   1.264   0.995   7.651  1.5730  0.5530  1.4147
  182SOPE  H10Y20857   1.121   1.107   7.631 -0.2034 -0.2017 -1.6570
  182SOPE  C31120858   1.289   1.195   7.727  0.2018 -0.1962  0.1513
  182SOPE  H11X20859   1.262   1.301   7.711 -1.8334 -0.7244 -0.1745
  182SOPE  H11Y20860   1.399   1.189   7.713  0.2461  0.0922  0.3681
  182SOPE  C31220861   1.270   1.156   7.877  0.6735 -0.4305 -0.4692
  182SOPE  H12X20862   1.320   1.060   7.902 -1.4435 -1.5279 -0.1835
  182SOPE  H12Y20863   1.163   1.136   7.900  1.0594 -1.5190  0.4657
  182SOPE  C31320864   1.315   1.263   7.975 -0.1674 -0.2786 -0.1115
  182SOPE  H13X20865   1.258   1.357   7.961 -0.4626 -0.2754  1.0233
  182SOPE  H13Y20866   1.416   1.298   7.947  0.2066 -1.2556 -0.0100
  182SOPE  C31420867   1.301   1.229   8.124  0.3130 -1.1439 -0.5508
  182SOPE  H14X20868   1.343   1.126   8.127 -0.8318 -1.6304 -0.5043
  182SOPE  H14Y20869   1.192   1.221   8.141  0.2426 -1.6379 -1.1471
  182SOPE  C31520870   1.377   1.320   8.228 -0.7870 -0.2727  0.0150
  182SOPE  H15X20871   1.372   1.266   8.324  2.4173 -0.0735  0.4138
  182SOPE  H15Y20872   1.326   1.418   8.239  1.8098  1.1492  0.1151
  182SOPE  C31620873   1.521   1.345   8.192  0.4609  0.1792  0.5123
  182SOPE  H16X20874   1.564   1.397   8.280  0.7288  0.7918  0.0244
  182SOPE  H16Y20875   1.530   1.411   8.104  1.1207 -1.3017 -0.5669
  182SOPE  C31720876   1.601   1.218   8.157  0.1839 -0.4022  0.6502
  182SOPE  H17X20877   1.563   1.168   8.066 -0.0633 -1.2251  1.2019
  182SOPE  H17Y20878   1.574   1.150   8.240 -0.5755 -1.3071 -0.3140
  182SOPE  C31820879   1.755   1.233   8.135  0.4611 -1.0612 -0.4188
  182SOPE  H18X20880   1.802   1.132   8.137  0.3571 -1.1106 -0.4010
  182SOPE  H18Y20881   1.799   1.284   8.224  2.9229 -0.3587 -1.9557
  182SOPE  H18Z20882   1.779   1.292   8.045  0.2928  3.3729  2.1420
  183SOPE     N20883   6.539   6.140   6.396 -0.3518 -0.5391 -0.6693
  183SOPE   HN120884   6.548   6.113   6.496 -0.5901  0.8780 -0.2407
  183SOPE   HN220885   6.572   6.238   6.382  2.9664 -1.3544  0.6707
  183SOPE   HN320886   6.441   6.117   6.371 -1.0075 -1.0953  2.0775
  183SOPE   C1220887   6.630   6.062   6.307 -0.0578  0.3885 -0.0915
  183SOPE  H12A20888   6.736   6.091   6.324 -0.1949  0.7328  0.2108
  183SOPE  H12B20889   6.603   6.091   6.203  0.7244  0.2840 -0.3257
  183SOPE   C1120890   6.598   5.918   6.338 -0.0407 -0.6771 -0.3336
  183SOPE  H11A20891   6.607   5.887   6.445 -1.6356  0.0134  0.0332
  183SOPE  H11B20892   6.669   5.868   6.269  0.5117  1.1815 -1.1719
  183SOPE     P20893   6.414   5.743   6.272 -0.3966  0.1238 -0.0088
  183SOPE   O1320894   6.519   5.671   6.197  0.8719 -0.5813 -0.0951
  183SOPE   O1420895   6.277   5.751   6.211  0.5401  0.0124  0.3742
  183SOPE   O1220896   6.459   5.892   6.308 -0.7501 -0.2624 -0.4964
  183SOPE   O1120897   6.410   5.681   6.413  0.2657 -0.0844 -0.2010
  183SOPE    C120898   6.363   5.739   6.535 -0.2857  0.5310  0.4896
  183SOPE    HA20899   6.255   5.715   6.539 -0.2979  0.3054 -0.7302
  183SOPE    HB20900   6.387   5.848   6.536  0.8312  0.2963  1.0386
  183SOPE    C220901   6.421   5.663   6.660  0.4048 -0.3113  0.1818
  183SOPE    HS20902   6.414   5.552   6.653  0.5962 -0.2357 -2.0930
  183SOPE   O2120903   6.366   5.727   6.774  0.2062 -0.0285 -0.3505
  183SOPE   C2120904   6.267   5.665   6.839  0.1706  0.6078  0.0308
  183SOPE   O2220905   6.207   5.565   6.805 -0.3178  0.2563  0.5653
  183SOPE   C2220906   6.235   5.750   6.965  0.2572  0.5631  0.5247
  183SOPE   H2R20907   6.138   5.797   6.936 -0.0916 -1.1034 -1.2502
  183SOPE   H2S20908   6.314   5.827   6.967  1.0275 -0.2285  2.0505
  183SOPE    C320909   6.569   5.688   6.662  0.2446 -0.1625 -0.6917
  183SOPE    HX20910   6.590   5.796   6.652  0.4635  0.1587  2.3145
  183SOPE    HY20911   6.609   5.640   6.569  1.3767  1.8659 -1.3186
  183SOPE   O3120912   6.639   5.647   6.782  0.6503  0.4161  0.0474
  183SOPE   C3120913   6.669   5.732   6.872  0.2125 -0.7769  0.8087
  183SOPE   O3220914   6.666   5.854   6.868  0.0199 -0.1666  0.3646
  183SOPE   C3220915   6.679   5.656   6.999  0.8889  0.1878 -0.1207
  183SOPE   H2X20916   6.769   5.591   6.997  1.2770  0.6135 -3.8697
  183SOPE   H2Y20917   6.596   5.582   7.001  0.3296  0.8053  0.6063
  183SOPE   C2320918   6.242   5.672   7.092  0.2030  0.3914  0.1140
  183SOPE   H3R20919   6.337   5.617   7.111  0.8994  1.4541 -0.2220
  183SOPE   H3S20920   6.161   5.596   7.102  1.7648 -1.4672 -0.6740
  183SOPE   C2420921   6.227   5.758   7.220 -0.4467 -0.0056  0.0919
  183SOPE   H4R20922   6.322   5.811   7.241 -0.7143  0.5417 -0.0554
  183SOPE   H4S20923   6.152   5.835   7.193 -1.0884 -1.6733 -3.4714
  183SOPE   C2520924   6.196   5.677   7.346  0.1558  0.0516 -0.2864
  183SOPE   H5R20925   6.091   5.641   7.344  0.0323  0.4385 -1.6594
  183SOPE   H5S20926   6.263   5.590   7.363 -0.7171 -0.3369  1.4049
  183SOPE   C2620927   6.190   5.765   7.472 -0.3305 -0.2768  0.1762
  183SOPE   H6R20928   6.285   5.818   7.496 -2.2421  2.2436  3.0076
  183SOPE   H6S20929   6.117   5.844   7.446  1.3564 -0.0909 -5.4093
  183SOPE   C2720930   6.146   5.695   7.597  0.1706  0.2381  0.6411
  183SOPE   H7R20931   6.071   5.623   7.560 -1.6814  2.3586  0.0283
  183SOPE   H7S20932   6.233   5.641   7.640  0.6592  0.8656  0.4655
  183SOPE   C2820933   6.077   5.776   7.710  1.0857 -0.4223 -0.2361
  183SOPE   H8R20934   5.984   5.820   7.666  0.6999 -0.5941  0.3943
  183SOPE   H8S20935   6.057   5.690   7.778 -0.8445 -1.0004 -1.4443
  183SOPE   C2920936   6.176   5.875   7.789  0.5969  0.9075 -0.0914
  183SOPE   H9120937   6.276   5.829   7.790 -1.0718 -3.1332  0.2644
  183SOPE  C21020938   6.160   6.000   7.827  0.2617  0.8369  0.8755
  183SOPE  H10120939   6.238   6.060   7.876  2.1155  1.4106 -2.4713
  183SOPE  C21120940   6.033   6.089   7.814  0.4240  0.5825  0.3396
  183SOPE  H11R20941   6.013   6.130   7.915  1.6505 -1.7721  1.6189
  183SOPE  H11S20942   5.942   6.031   7.786  1.7790 -2.3649  1.6279
  183SOPE  C21220943   6.031   6.206   7.712 -0.4198  0.4786 -0.0027
  183SOPE  H12R20944   6.111   6.276   7.744  0.7240 -0.9234  0.3133
  183SOPE  H12S20945   5.933   6.258   7.712 -1.0950 -0.6442  2.3889
  183SOPE  C21320946   6.045   6.162   7.562 -0.3303  0.1045 -0.1300
  183SOPE  H13R20947   5.950   6.119   7.524 -0.4783 -0.7880  1.1816
  183SOPE  H13S20948   6.121   6.081   7.558  0.3541  0.7812 -3.1781
  183SOPE  C21420949   6.089   6.276   7.463 -0.0003  0.2838 -0.2560
  183SOPE  H14R20950   6.195   6.300   7.486  0.5181 -0.6521 -1.5656
  183SOPE  H14S20951   6.032   6.366   7.497 -0.1325 -0.3740  1.3648
  183SOPE  C21520952   6.048   6.239   7.313 -0.1886 -0.3018  0.0837
  183SOPE  H15R20953   6.074   6.132   7.302  3.3727  0.5529 -1.3127
  183SOPE  H15S20954   6.092   6.313   7.243 -1.7925  0.3568 -0.2690
  183SOPE  C21620955   5.903   6.237   7.277 -0.5150 -0.1574 -0.6933
  183SOPE  H16R20956   5.868   6.341   7.291  1.6017  0.3673  1.2826
  183SOPE  H16S20957   5.850   6.183   7.358  1.5933 -1.1150  0.1374
  183SOPE  C21720958   5.877   6.187   7.138  0.8365 -0.0653  0.0714
  183SOPE  H17R20959   5.895   6.078   7.149  2.2777 -0.1391 -2.2913
  183SOPE  H17S20960   5.943   6.233   7.061 -0.6358 -0.1743 -1.3289
  183SOPE  C21820961   5.724   6.201   7.096 -0.3233 -0.1650 -0.3321
  183SOPE  H18R20962   5.699   6.159   6.996  1.5241 -2.6508  0.1533
  183SOPE  H18S20963   5.689   6.306   7.092 -2.0291 -0.4897  2.5266
  183SOPE  H18T20964   5.660   6.154   7.175  3.5619 -0.1116  3.1755
  183SOPE   C3320965   6.663   5.725   7.135 -0.4965  0.4792 -0.1840
  183SOPE   H3X20966   6.585   5.803   7.149 -0.0581  1.0812 -0.9454
  183SOPE   H3Y20967   6.765   5.758   7.166  0.5890 -1.4112 -1.5051
  183SOPE   C3420968   6.631   5.620   7.240  0.3227 -0.7337 -0.9657
  183SOPE   H4X20969   6.661   5.521   7.199 -1.7205 -0.9680 -2.0062
  183SOPE   H4Y20970   6.521   5.609   7.236  0.1846  0.0438  0.2250
  183SOPE   C3520971   6.673   5.635   7.391  0.0570  0.5475  0.7343
  183SOPE   H5X20972   6.783   5.652   7.396  0.1997 -0.0853 -0.2186
  183SOPE   H5Y20973   6.662   5.537   7.443 -0.6193  0.5341  0.5644
  183SOPE   C3620974   6.609   5.756   7.463  0.0005 -0.7502 -0.2523
  183SOPE   H6X20975   6.498   5.760   7.455 -0.2071 -0.9772  1.7816
  183SOPE   H6Y20976   6.642   5.850   7.413 -1.6174  0.6114  1.1108
  183SOPE   C3720977   6.650   5.760   7.611  0.5327 -0.6537 -0.6918
  183SOPE   H7X20978   6.636   5.863   7.652  1.3906 -1.3988  1.6442
  183SOPE   H7Y20979   6.752   5.720   7.631  0.0491 -1.0988  1.0374
  183SOPE   C3820980   6.544   5.681   7.689  0.0322 -0.6687  0.4019
  183SOPE   H8X20981   6.507   5.600   7.624 -0.1467  0.5342 -1.0444
  183SOPE   H8Y20982   6.457   5.745   7.713  0.4688 -0.7144  2.2777
  183SOPE   C3920983   6.589   5.635   7.825  0.2102  0.9658 -0.5024
  183SOPE   H9X20984   6.507   5.617   7.897 -0.3910 -1.1959 -1.6295
  183SOPE   H9Y20985   6.642   5.719   7.875 -1.0816  2.0268 -0.8754
  183SOPE  C31020986   6.682   5.506   7.828  0.5410 -0.6059 -0.3392
  183SOPE  H10X20987   6.771   5.515   7.762  0.8640 -0.9039  0.0516
  183SOPE  H10Y20988   6.614   5.430   7.783 -1.0376  0.5004  0.0604
  183SOPE  C31120989   6.731   5.479   7.971 -0.2590 -0.2525  0.1147
  183SOPE  H11X20990   6.789   5.384   7.973  3.2013  1.6996  0.2347
  183SOPE  H11Y20991   6.639   5.471   8.032  0.0360  1.0983  0.7656
  183SOPE  C31220992   6.826   5.582   8.032 -0.6320 -0.0828 -1.0367
  183SOPE  H12X20993   6.766   5.668   8.069 -0.0483  0.0401 -0.3733
  183SOPE  H12Y20994   6.904   5.619   7.962 -0.6101 -0.5567 -1.2658
  183SOPE  C31320995   6.894   5.529   8.166 -0.3054 -0.0412 -0.2994
  183SOPE  H13X20996   6.947   5.434   8.147  1.8001  0.5664  2.0375
  183SOPE  H13Y20997   6.818   5.504   8.243  0.9346 -1.1846  0.5912
  183SOPE  C31420998   7.005   5.613   8.237  0.3392 -0.2377 -0.1023
  183SOPE  H14X20999   6.957   5.709   8.266 -1.2571 -0.4476 -1.7973
  183SOPE  H14Y21000   7.088   5.632   8.165 -1.0117 -1.9139 -2.2610
  183SOPE  C31521001   7.049   5.523   8.354  0.0292 -0.5437  1.0610
  183SOPE  H15X21002   7.118   5.446   8.314  0.9667  1.6632 -1.9855
  183SOPE  H15Y21003   6.961   5.490   8.413 -0.5842  0.8119  0.9446
  183SOPE  C31621004   7.131   5.615   8.455 -0.2237  1.3943 -0.2078
  183SOPE  H16X21005   7.046   5.669   8.502 -2.4567 -0.1794 -2.1449
  183SOPE  H16Y21006   7.195   5.688   8.402  2.5980 -0.7339  0.0584
  183SOPE  C31721007   7.223   5.536   8.555  1.0709  0.3744  0.1711
  183SOPE  H17X21008   7.289   5.465   8.501  0.2098 -0.4762  0.2013
  183SOPE  H17Y21009   7.154   5.462   8.602 -0.2665  1.0839 -0.5896
  183SOPE  C31821010   7.305   5.627   8.644 -0.1719  0.9347  0.2047
  183SOPE  H18X21011   7.247   5.663   8.731 -0.4768  2.2456 -0.5069
  183SOPE  H18Y21012   7.350   5.712   8.588 -1.2575  0.8909 -0.7778
  183SOPE  H18Z21013   7.388   5.567   8.687 -1.7410 -0.5967  1.2118
  184SOPE     N21014   5.315   4.722   6.224 -0.5211 -1.4843  0.4876
  184SOPE   HN121015   5.414   4.720   6.256 -0.1641 -2.5995 -0.6323
  184SOPE   HN221016   5.245   4.725   6.302 -0.4993 -0.9631  0.4934
  184SOPE   HN321017   5.288   4.638   6.170 -2.2243 -0.0407 -1.0264
  184SOPE   C1221018   5.288   4.844   6.147  0.2442 -0.0738 -0.1657
  184SOPE  H12A21019   5.179   4.864   6.151 -0.1653 -2.2958  2.1572
  184SOPE  H12B21020   5.305   4.829   6.038  1.1054  1.5362 -0.2791
  184SOPE   C1121021   5.374   4.962   6.186 -0.3018  0.4508 -0.2581
  184SOPE  H11A21022   5.481   4.931   6.182 -0.0856  0.2105  3.4206
  184SOPE  H11B21023   5.348   5.002   6.287 -1.5387 -1.5297  0.2577
  184SOPE     P21024   5.435   5.194   6.075 -0.1114  0.2258 -0.2851
  184SOPE   O1321025   5.388   5.270   5.954  0.3270 -0.2397  0.2516
  184SOPE   O1421026   5.576   5.155   6.077  0.3922  0.0438  0.0641
  184SOPE   O1221027   5.341   5.070   6.096 -0.1256 -0.4490 -0.0233
  184SOPE   O1121028   5.397   5.266   6.212 -0.2259  0.2996  0.4266
  184SOPE    C121029   5.276   5.347   6.215 -0.3591 -0.4040 -0.2358
  184SOPE    HA21030   5.207   5.306   6.291  0.9698 -0.1263  1.1805
  184SOPE    HB21031   5.220   5.359   6.119 -1.2802 -0.1564  0.3168
  184SOPE    C221032   5.317   5.494   6.269  0.1424  0.0766 -0.2367
  184SOPE    HS21033   5.395   5.524   6.195  0.3977  0.3709  0.1465
  184SOPE   O2121034   5.354   5.478   6.409 -0.5846 -0.3061  0.1284
  184SOPE   C2121035   5.429   5.578   6.454 -0.1371 -0.0394 -0.2469
  184SOPE   O2221036   5.455   5.683   6.395 -0.1434  0.3231  0.7077
  184SOPE   C2221037   5.477   5.562   6.604  0.5860  0.1567  0.4548
  184SOPE   H2R21038   5.498   5.662   6.649 -0.8290  0.0003  1.5347
  184SOPE   H2S21039   5.577   5.516   6.595  0.2591 -0.3080 -1.1070
  184SOPE    C321040   5.212   5.604   6.254  0.1937  0.5310 -0.4865
  184SOPE    HX21041   5.201   5.616   6.144 -0.5049  1.6086 -0.3196
  184SOPE    HY21042   5.244   5.705   6.288 -0.8753  1.1236 -1.1499
  184SOPE   O3121043   5.083   5.562   6.311 -0.1501 -0.0590 -0.0429
  184SOPE   C3121044   5.038   5.630   6.421 -0.0730 -0.0464  0.5345
  184SOPE   O3221045   5.099   5.721   6.475  0.8618  0.2056  0.0706
  184SOPE   C3221046   4.912   5.563   6.460 -0.8149  0.6781 -0.6975
  184SOPE   H2X21047   4.874   5.505   6.374  1.4249 -0.6802 -0.8339
  184SOPE   H2Y21048   4.834   5.637   6.488 -0.1458  1.4274 -0.7582
  184SOPE   C2321049   5.388   5.475   6.695 -0.8650 -0.4838 -0.0894
  184SOPE   H3R21050   5.359   5.388   6.631  0.6948 -0.3480 -1.0466
  184SOPE   H3S21051   5.298   5.529   6.731  0.3090  0.6526  1.2713
  184SOPE   C2421052   5.469   5.422   6.814 -0.6253 -0.5764  0.6555
  184SOPE   H4R21053   5.417   5.331   6.852 -1.3826 -0.4025  0.0348
  184SOPE   H4S21054   5.571   5.391   6.784 -0.9217 -0.1496 -0.8195
  184SOPE   C2521055   5.474   5.526   6.931 -0.6528  0.7977  0.1142
  184SOPE   H5R21056   5.539   5.614   6.909  0.2000  0.0760 -0.3624
  184SOPE   H5S21057   5.372   5.564   6.948  0.0864  1.7727  2.7788
  184SOPE   C2621058   5.513   5.462   7.061 -0.1895 -0.4906 -0.0804
  184SOPE   H6R21059   5.467   5.363   7.078 -3.1407  0.6558 -0.6151
  184SOPE   H6S21060   5.623   5.447   7.058 -0.0043  0.7747 -2.4280
  184SOPE   C2721061   5.471   5.543   7.180  0.0658 -0.2540  0.0923
  184SOPE   H7R21062   5.507   5.648   7.172 -0.7120  0.1394  1.4063
  184SOPE   H7S21063   5.361   5.556   7.181 -0.1285 -1.5656 -1.0795
  184SOPE   C2821064   5.506   5.471   7.312 -0.5050 -0.1085  0.4308
  184SOPE   H8R21065   5.451   5.376   7.301  1.4092 -0.9703 -3.4902
  184SOPE   H8S21066   5.614   5.455   7.293 -0.6753  0.0095 -0.6985
  184SOPE   C2921067   5.474   5.565   7.426 -0.2823 -0.4792  0.3385
  184SOPE   H9121068   5.386   5.631   7.423  0.7445  0.9108 -0.2170
  184SOPE  C21021069   5.552   5.583   7.533  0.5044  0.6678  0.5986
  184SOPE  H10121070   5.517   5.647   7.615 -0.5402  0.9758 -0.0700
  184SOPE  C21121071   5.678   5.512   7.571  0.1684 -0.2975  0.0876
  184SOPE  H11R21072   5.769   5.574   7.555 -0.1548 -0.0876 -1.0692
  184SOPE  H11S21073   5.688   5.419   7.512  2.3251  0.2811 -0.5584
  184SOPE  C21221074   5.694   5.465   7.719  0.3465  0.4946 -0.0490
  184SOPE  H12R21075   5.773   5.387   7.711 -0.6989 -0.5062 -0.9047
  184SOPE  H12S21076   5.604   5.413   7.759  0.5626  0.8477  0.9371
  184SOPE  C21321077   5.730   5.584   7.812 -0.4024 -0.0220 -0.0088
  184SOPE  H13R21078   5.643   5.650   7.796 -0.1500  0.0170 -1.3832
  184SOPE  H13S21079   5.829   5.629   7.789 -0.4216  0.6757  1.1928
  184SOPE  C21421080   5.733   5.539   7.951 -0.6007 -0.2578  0.4960
  184SOPE  H14R21081   5.707   5.434   7.978  1.9686 -0.3556  2.9984
  184SOPE  H14S21082   5.660   5.608   8.000 -0.3525  0.5681 -0.2672
  184SOPE  C21521083   5.862   5.577   8.022 -0.4912 -0.1408 -0.3463
  184SOPE  H15R21084   5.846   5.576   8.132  1.4648  0.0361 -0.0262
  184SOPE  H15S21085   5.891   5.678   7.987 -2.2844  0.9558  1.1773
  184SOPE  C21621086   5.984   5.479   8.009  0.4651 -1.1397  1.2379
  184SOPE  H16R21087   6.006   5.465   7.901 -0.3994  1.1454  0.7011
  184SOPE  H16S21088   5.939   5.381   8.035 -2.4992  0.4028  2.4620
  184SOPE  C21721089   6.093   5.512   8.109  0.1602  0.2953  1.0911
  184SOPE  H17R21090   6.167   5.429   8.103 -1.3530 -0.9880 -1.3795
  184SOPE  H17S21091   6.041   5.517   8.206 -0.9477  0.7807  0.4875
  184SOPE  C21821092   6.165   5.646   8.083  0.0927 -0.3750  0.0718
  184SOPE  H18R21093   6.093   5.729   8.071 -0.8533 -1.3975 -1.7504
  184SOPE  H18S21094   6.234   5.636   7.997 -0.7578 -0.9126 -0.5627
  184SOPE  H18T21095   6.222   5.660   8.178 -1.4022 -4.6425  1.8456
  184SOPE   C3321096   4.941   5.469   6.583  0.7669  0.0803  0.2307
  184SOPE   H3X21097   5.026   5.402   6.560  0.1841  0.3564 -3.1384
  184SOPE   H3Y21098   4.855   5.400   6.574  2.0093 -1.5371  0.2354
  184SOPE   C3421099   4.931   5.545   6.717 -0.3031 -0.2677 -0.2422
  184SOPE   H4X21100   4.831   5.593   6.731 -0.1398  0.5577 -1.7571
  184SOPE   H4Y21101   4.998   5.633   6.716 -1.9699  1.0454 -0.8891
  184SOPE   C3521102   4.973   5.455   6.834  1.2524 -0.2398 -0.0612
  184SOPE   H5X21103   5.057   5.388   6.805  3.2933  0.8157  2.9928
  184SOPE   H5Y21104   4.891   5.389   6.868  0.8694  0.3838  0.2397
  184SOPE   C3621105   5.013   5.530   6.960 -0.1039  0.0615  0.2622
  184SOPE   H6X21106   4.919   5.573   7.001  1.0823  1.3981  1.6984
  184SOPE   H6Y21107   5.079   5.613   6.928 -0.6405 -0.3581 -2.1311
  184SOPE   C3721108   5.070   5.449   7.078 -0.1080  0.3190  0.3361
  184SOPE   H7X21109   5.172   5.406   7.067 -0.3688 -0.7078  1.6573
  184SOPE   H7Y21110   5.010   5.357   7.095 -0.2156  0.3444  0.1060
  184SOPE   C3821111   5.054   5.535   7.203  0.1723  0.3315  0.0898
  184SOPE   H8X21112   4.949   5.571   7.210  0.0527 -0.0397  0.2315
  184SOPE   H8Y21113   5.105   5.633   7.190  1.2994 -0.3289 -0.5759
  184SOPE   C3921114   5.084   5.458   7.342  0.2252 -0.0227  0.3133
  184SOPE   H9X21115   5.193   5.438   7.341  0.1566 -0.6383 -2.3483
  184SOPE   H9Y21116   5.032   5.360   7.353  0.5663 -0.0239  2.2248
  184SOPE  C31021117   5.031   5.536   7.464  0.1289  0.7401  0.1689
  184SOPE  H10X21118   5.063   5.489   7.559 -0.8551 -2.1791 -0.8508
  184SOPE  H10Y21119   4.920   5.532   7.463  0.1700 -0.8036 -0.0709
  184SOPE  C31121120   5.061   5.683   7.481 -0.5773  0.5689  0.2018
  184SOPE  H11X21121   5.039   5.744   7.391  1.6239  0.1524 -0.6717
  184SOPE  H11Y21122   5.171   5.688   7.490 -0.5595  0.1213  0.2309
  184SOPE  C31221123   5.005   5.744   7.607 -0.4906  0.3380 -0.6242
  184SOPE  H12X21124   4.897   5.726   7.624  0.2344 -1.5515  2.7919
  184SOPE  H12Y21125   5.036   5.851   7.600 -2.2547  0.9051 -0.2843
  184SOPE  C31321126   5.076   5.688   7.726 -0.1386  0.0188  0.1569
  184SOPE  H13X21127   5.183   5.665   7.707 -0.3384  0.5564 -1.8173
  184SOPE  H13Y21128   5.035   5.590   7.760  3.5439 -1.2897  1.3006
  184SOPE  C31421129   5.053   5.776   7.853 -0.0288 -0.0073 -0.5653
  184SOPE  H14X21130   5.110   5.872   7.853  0.8448 -0.4753 -2.5243
  184SOPE  H14Y21131   5.107   5.738   7.943  0.9977 -0.5952 -1.4104
  184SOPE  C31521132   4.915   5.802   7.897 -0.4027  0.1388  0.1656
  184SOPE  H15X21133   4.885   5.723   7.969 -0.5181 -0.3485 -0.4092
  184SOPE  H15Y21134   4.841   5.789   7.815 -1.7508 -1.5930  1.5743
  184SOPE  C31621135   4.904   5.940   7.954 -0.2310  0.2132 -0.0275
  184SOPE  H16X21136   4.924   6.000   7.862 -0.2859  0.5708  0.1896
  184SOPE  H16Y21137   4.981   5.967   8.030 -0.0668  1.9387 -0.7650
  184SOPE  C31721138   4.768   5.975   8.020 -0.5234 -0.0277 -0.2614
  184SOPE  H17X21139   4.697   5.940   7.943  0.1496 -1.2477 -0.3451
  184SOPE  H17Y21140   4.766   6.086   8.027 -0.3167  0.0208 -0.9323
  184SOPE  C31821141   4.762   5.904   8.156 -0.3055  0.5111 -0.1372
  184SOPE  H18X21142   4.770   5.794   8.143 -3.2510 -0.1569  2.3669
  184SOPE  H18Y21143   4.656   5.920   8.187 -2.8299 -4.1398 -4.8283
  184SOPE  H18Z21144   4.836   5.953   8.223 -1.9460  2.1152  0.5947
  185SAPI   C1221145   0.574   1.988  10.466  0.3947  1.1382  0.0124
  185SAPI    H221146   0.660   2.050  10.432  0.6940  1.1767  0.8163
  185SAPI    O221147   0.584   1.993  10.608 -0.5668  0.2620  0.3293
  185SAPI   HO221148   0.644   2.064  10.633 -2.0211  1.4248  0.6911
  185SAPI   C1321149   0.453   2.044  10.414  0.3767  0.2728  0.1187
  185SAPI    H321150   0.447   2.022  10.305  0.3385 -2.8121  0.6379
  185SAPI    O321151   0.458   2.185  10.423  0.0797 -0.6871 -0.2156
  185SAPI   HO321152   0.422   2.211  10.508  0.0961 -1.9896  0.2136
  185SAPI   C1421153   0.338   1.974  10.478  0.2398  0.3249 -0.2492
  185SAPI    H421154   0.343   1.977  10.589 -0.4390  2.3331 -0.2324
  185SAPI    O421155   0.214   2.027  10.435 -0.4314  0.1875 -0.0121
  185SAPI   HO421156   0.155   1.957  10.464  0.1152  0.1543  1.0794
  185SAPI   C1521157   0.351   1.817  10.458  0.1684 -0.1937  0.0107
  185SAPI    H521158   0.307   1.799  10.358  0.2822  3.2541 -0.7716
  185SAPI    O521159   0.263   1.750  10.550 -0.0511  0.2233  0.2387
  185SAPI   HO521160   0.203   1.694  10.500 -1.1794  2.2456 -0.8056
  185SAPI   C1621161   0.491   1.754  10.453 -0.4252 -0.6315  0.7213
  185SAPI    H621162   0.516   1.727  10.558 -1.2405  1.6302  1.5489
  185SAPI    O621163   0.492   1.629  10.385  0.2684  0.2702 -0.2035
  185SAPI   HO621164   0.583   1.601  10.376 -0.1185 -1.3952  0.8088
  185SAPI   C1121165   0.603   1.849  10.415  0.4434  0.3242 -0.6464
  185SAPI    H121166   0.607   1.855  10.304  3.2262 -0.5788 -0.6728
  185SAPI     P21167   0.822   1.707  10.372  0.1137  0.1619 -0.5259
  185SAPI   O1321168   0.752   1.581  10.352  0.0734 -0.2280  0.2165
  185SAPI   O1421169   0.952   1.681  10.440 -0.4553 -0.5949 -0.2806
  185SAPI   O1221170   0.734   1.806  10.463  0.7613 -0.4163  0.3856
  185SAPI   O1121171   0.842   1.791  10.238 -0.3155  0.3544 -0.7376
  185SAPI    C121172   0.892   1.922  10.252  1.1294  0.7910 -0.7287
  185SAPI    HA21173   0.815   2.000  10.234 -0.9588  0.2332  4.3040
  185SAPI    HB21174   0.936   1.941  10.352  2.7426 -2.5241 -0.6811
  185SAPI    C221175   1.016   1.938  10.164 -0.8075 -0.2532 -0.8298
  185SAPI    HS21176   1.069   2.026  10.206 -0.3463 -0.2093 -1.4917
  185SAPI   O2121177   0.991   1.958  10.030  0.3109  0.2039  0.2739
  185SAPI   C2121178   0.964   2.080   9.984 -0.0825 -0.2722  0.1303
  185SAPI   O2221179   0.930   2.178  10.042  0.8052 -0.3147 -0.1638
  185SAPI   C2221180   0.962   2.055   9.830  0.1141  0.6462 -0.1993
  185SAPI   H2R21181   1.051   1.995   9.799 -0.3105  0.5363 -1.2541
  185SAPI   H2S21182   0.864   2.007   9.810 -0.6801  2.1272  0.0340
  185SAPI    C321183   1.110   1.817  10.182  0.1424 -0.3928  0.0276
  185SAPI    HX21184   1.069   1.726  10.134  2.0617 -1.4410  0.2835
  185SAPI    HY21185   1.134   1.796  10.288  1.2616 -1.7915 -0.4725
  185SAPI   O3121186   1.230   1.847  10.114 -0.1451 -0.4242  0.4633
  185SAPI   C3121187   1.299   1.736  10.073  0.5086 -0.1590  0.3522
  185SAPI   O3221188   1.283   1.625  10.124 -0.6382 -0.1302 -0.2394
  185SAPI   C3221189   1.410   1.766   9.976  0.2629  0.2161  0.1159
  185SAPI   H2X21190   1.466   1.673   9.951  0.2368 -0.0357  0.9942
  185SAPI   H2Y21191   1.475   1.844  10.022 -0.6338  1.5589 -0.8277
  185SAPI   C2321192   0.959   2.185   9.746  0.1164 -0.0898 -0.7534
  185SAPI   H3R21193   1.058   2.233   9.761 -0.4900  0.6651  1.1552
  185SAPI   H3S21194   0.908   2.267   9.801  3.3373  0.9667  0.9214
  185SAPI   C2421195   0.916   2.160   9.599  0.5380  0.0040 -0.1425
  185SAPI   H4R21196   0.915   2.263   9.558  0.9340 -0.3910 -1.1510
  185SAPI   H4S21197   0.809   2.129   9.607  0.8761 -1.3916 -0.8796
  185SAPI   C2521198   0.994   2.070   9.501 -0.3716 -0.1619 -0.3227
  185SAPI   H5R21199   1.045   1.985   9.549  3.1041  1.9384  0.1016
  185SAPI   C2621200   1.002   2.093   9.366  0.2623  0.4928 -0.1448
  185SAPI   H6R21201   1.046   2.016   9.301 -0.4151  1.0236 -1.2717
  185SAPI   C2721202   0.952   2.220   9.291  0.0069  0.0623  0.2949
  185SAPI   H7R21203   0.998   2.314   9.329 -0.7085  0.0983  1.1160
  185SAPI   H7S21204   0.843   2.224   9.315 -0.0055  2.1824  0.0754
  185SAPI   C2821205   0.978   2.197   9.145  0.2259 -0.1180  0.3765
  185SAPI   H8R21206   1.079   2.221   9.107 -0.4044  0.5454 -0.9453
  185SAPI   C2921207   0.893   2.130   9.060  0.2068 -0.4542 -0.8622
  185SAPI   H9R21208   0.899   2.120   8.951 -0.2228 -2.7012 -0.7173
  185SAPI  C21021209   0.754   2.083   9.099  0.1260  0.0111  0.3841
  185SAPI  H10R21210   0.676   2.154   9.064  0.5367  0.6460  0.7343
  185SAPI  H10S21211   0.744   2.078   9.209 -1.8119  0.3877  0.2639
  185SAPI  C21121212   0.707   1.951   9.040 -0.4219  0.3973 -0.4395
  185SAPI  H11R21213   0.786   1.892   8.990  2.0875  2.3444  1.0115
  185SAPI  C21221214   0.583   1.901   9.047  0.7320 -0.6363  0.1033
  185SAPI  H12R21215   0.559   1.806   8.996 -0.4936 -1.4954  2.1502
  185SAPI  C21321216   0.472   1.952   9.138  0.3621  0.3538  0.0487
  185SAPI  H13R21217   0.500   2.057   9.164  2.2727 -0.7710  2.9892
  185SAPI  H13S21218   0.468   1.896   9.233 -1.9528 -0.1154 -0.2698
  185SAPI  C21421219   0.331   1.942   9.074 -0.1892 -0.1634  0.2563
  185SAPI  H14R21220   0.257   1.865   9.102  0.3577 -0.6848  0.3081
  185SAPI  C21521221   0.294   2.036   8.977  0.2541  0.1064  0.3450
  185SAPI  H15R21222   0.192   2.023   8.937 -0.6781  1.1666  2.2303
  185SAPI  C21621223   0.380   2.149   8.921  0.3975  0.5077  0.4284
  185SAPI  H16R21224   0.470   2.175   8.982  2.7552 -1.1386 -2.1083
  185SAPI  H16S21225   0.318   2.241   8.915  1.0861  1.0294  0.9641
  185SAPI  C21721226   0.439   2.130   8.779  0.3084  0.1250 -0.5614
  185SAPI  H17R21227   0.362   2.114   8.701  0.7357 -1.2308 -0.7272
  185SAPI  H17S21228   0.504   2.040   8.787  0.9212  0.7104  2.1934
  185SAPI  C21821229   0.524   2.251   8.738 -0.6022  0.6161  0.1536
  185SAPI  H18R21230   0.586   2.276   8.827 -1.1485  2.1109  0.1516
  185SAPI  H18S21231   0.466   2.344   8.720 -0.8531  0.5420  0.5585
  185SAPI  C21921232   0.624   2.242   8.616 -0.9019  0.1470 -0.4815
  185SAPI  H19R21233   0.569   2.234   8.520 -2.3971  1.4301  0.2161
  185SAPI  H19S21234   0.704   2.167   8.633 -1.7333 -0.9070 -1.0953
  185SAPI  C22021235   0.705   2.373   8.609  0.5900  0.1960 -0.1028
  185SAPI  H20R21236   0.750   2.398   8.511  0.1355  1.1094 -0.0920
  185SAPI  H20S21237   0.785   2.379   8.686 -0.0570 -0.4029  0.6364
  185SAPI  H20T21238   0.630   2.453   8.629 -0.1316 -0.8389  1.5359
  185SAPI   C3321239   1.366   1.816   9.834 -0.0070 -0.0768  0.0893
  185SAPI   H3X21240   1.295   1.900   9.839  0.5510  0.3963  0.1328
  185SAPI   H3Y21241   1.320   1.729   9.782 -0.3898 -0.1270  0.4997
  185SAPI   C3421242   1.487   1.858   9.756  1.1428  0.5084  0.6460
  185SAPI   H4X21243   1.554   1.771   9.748 -0.7722 -0.9674 -0.2734
  185SAPI   H4Y21244   1.549   1.935   9.807 -0.2640  2.4599 -0.4468
  185SAPI   C3521245   1.434   1.898   9.615 -0.4583 -0.0211  0.1243
  185SAPI   H5X21246   1.401   2.004   9.625 -0.6573 -0.2191  1.9485
  185SAPI   H5Y21247   1.356   1.826   9.583  2.1617 -2.1319 -1.9558
  185SAPI   C3621248   1.536   1.881   9.500 -0.0513 -0.3556 -0.1719
  185SAPI   H6X21249   1.587   1.783   9.507 -0.7791 -0.6530  1.4535
  185SAPI   H6Y21250   1.620   1.953   9.510 -2.9630  3.1694  1.0841
  185SAPI   C3721251   1.475   1.907   9.358 -0.1537 -0.3216  0.7378
  185SAPI   H7X21252   1.430   2.008   9.355 -1.5534 -0.9483  0.1524
  185SAPI   H7Y21253   1.397   1.828   9.353 -2.7080  1.7905  3.5738
  185SAPI   C3821254   1.588   1.898   9.254 -0.3873 -0.1806  0.2132
  185SAPI   H8X21255   1.648   1.807   9.274 -1.1256 -1.6987 -3.5420
  185SAPI   H8Y21256   1.648   1.991   9.263 -1.1239  0.6297 -2.3363
  185SAPI   C3921257   1.537   1.883   9.107  0.6498  0.1364 -0.1420
  185SAPI   H9X21258   1.462   1.963   9.092  1.1660  0.9596  1.4765
  185SAPI   H9Y21259   1.485   1.787   9.082 -1.8302  0.9289  1.5628
  185SAPI  C31021260   1.660   1.889   9.009 -0.3305  0.2037 -0.0530
  185SAPI  H10X21261   1.726   1.801   9.022 -0.0361  0.3794 -0.3405
  185SAPI  H10Y21262   1.716   1.980   9.041 -1.6168  0.3966  1.8318
  185SAPI  C31121263   1.629   1.871   8.866 -0.2932 -0.3275 -0.2072
  185SAPI  H11X21264   1.728   1.851   8.820 -0.6127 -0.2403 -0.9537
  185SAPI  H11Y21265   1.590   1.961   8.815  0.2810 -0.4962 -0.9652
  185SAPI  C31221266   1.530   1.764   8.835  0.2555 -0.3751 -0.3306
  185SAPI  H12X21267   1.427   1.793   8.867 -0.1202 -1.2829 -0.7013
  185SAPI  H12Y21268   1.553   1.673   8.894 -2.0747 -1.3653 -0.8147
  185SAPI  C31321269   1.533   1.751   8.675  0.6939 -0.9031 -0.5160
  185SAPI  H13X21270   1.638   1.740   8.642  1.3793  0.2394  1.1494
  185SAPI  H13Y21271   1.499   1.854   8.649  1.5961 -1.1755 -3.1141
  185SAPI  C31421272   1.449   1.640   8.616 -0.1559 -0.3547  0.0688
  185SAPI  H14X21273   1.353   1.621   8.669 -0.4328 -0.4379 -0.4568
  185SAPI  H14Y21274   1.502   1.543   8.616 -0.3449 -0.4656  1.0128
  185SAPI  C31521275   1.408   1.665   8.468 -0.2665  0.8372 -0.6530
  185SAPI  H15X21276   1.413   1.566   8.418  1.6596 -0.4239  1.8041
  185SAPI  H15Y21277   1.480   1.724   8.408  1.4799 -0.4563  0.0964
  185SAPI  C31621278   1.273   1.736   8.465  0.7353  0.1751 -0.0036
  185SAPI  H16X21279   1.278   1.841   8.500  0.1247  0.2990 -0.2661
  185SAPI  H16Y21280   1.198   1.686   8.531  0.1981  2.7935  1.5048
  185SAPI  C31721281   1.216   1.713   8.322  0.4139 -0.4234  0.2030
  185SAPI  H17X21282   1.108   1.734   8.332  0.1718 -1.0524 -0.9337
  185SAPI  H17Y21283   1.238   1.613   8.279 -1.9181 -0.1859 -1.7633
  185SAPI  C31821284   1.260   1.813   8.218 -0.0949 -0.3761 -0.0533
  185SAPI  H18X21285   1.367   1.804   8.189  0.4336  1.9415  0.9076
  185SAPI  H18Y21286   1.262   1.916   8.259  0.8207  1.1080 -3.4317
  185SAPI  H18Z21287   1.204   1.827   8.123 -1.0368 -0.8642  0.4203
  186SAPI   C1221288   1.289   6.655  10.540 -0.8977  0.7015  0.1768
  186SAPI    H221289   1.376   6.723  10.553 -0.8013  0.6850 -0.3452
  186SAPI    O221290   1.324   6.549  10.448  0.1039  0.3722 -0.4430
  186SAPI   HO221291   1.352   6.585  10.364 -0.4904 -1.8978 -1.7020
  186SAPI   C1321292   1.268   6.602  10.677  0.1292  0.0929  0.0426
  186SAPI    H321293   1.234   6.688  10.739 -2.3507 -0.5535 -0.3147
  186SAPI    O321294   1.387   6.563  10.750  0.0264  0.0219 -0.1415
  186SAPI   HO321295   1.432   6.494  10.700 -0.2110  0.6219 -1.2377
  186SAPI   C1421296   1.158   6.500  10.681 -0.1796  0.0804  0.0976
  186SAPI    H421297   1.204   6.410  10.634  0.1497  0.8469 -1.0973
  186SAPI    O421298   1.128   6.450  10.807 -0.5854  0.1141  0.2121
  186SAPI   HO421299   1.164   6.361  10.805  1.5277  0.9340 -0.0609
  186SAPI   C1521300   1.032   6.543  10.601  0.3445  0.4047  0.3289
  186SAPI    H521301   0.976   6.601  10.678 -1.5208 -1.2572  0.2998
  186SAPI    O521302   0.958   6.430  10.555  0.2656  0.4517 -0.4643
  186SAPI   HO521303   0.876   6.434  10.605  0.1360 -1.3602 -0.4584
  186SAPI   C1621304   1.050   6.648  10.488 -0.1277 -0.0880 -0.1929
  186SAPI    H621305   1.057   6.586  10.396 -0.0354  1.1383 -1.0407
  186SAPI    O621306   0.932   6.726  10.468 -0.1049 -0.1281 -0.6084
  186SAPI   HO621307   0.923   6.711  10.373  2.5185  0.8082 -1.0666
  186SAPI   C1121308   1.169   6.734  10.489 -0.5788  0.1842 -0.5213
  186SAPI    H121309   1.136   6.809  10.565 -1.4449 -0.4956 -0.2104
  186SAPI     P21310   1.256   6.974  10.393 -0.1429  0.2172  0.2674
  186SAPI   O1321311   1.355   6.983  10.289 -1.1934 -0.4276  0.0916
  186SAPI   O1421312   1.303   7.006  10.529 -0.3370  0.0946  0.0119
  186SAPI   O1221313   1.203   6.814  10.378  0.4913 -0.5768  0.8837
  186SAPI   O1121314   1.132   7.060  10.355 -0.2818 -0.1410  0.2657
  186SAPI    C121315   1.050   7.030  10.241  0.0464  0.0669 -0.1325
  186SAPI    HA21316   1.067   6.932  10.193 -0.1155  0.6289 -1.3771
  186SAPI    HB21317   0.946   7.024  10.280  0.2914  0.7218  0.6609
  186SAPI    C221318   1.056   7.135  10.126  0.4877 -0.9235 -0.4768
  186SAPI    HS21319   1.035   7.226  10.187 -0.9083 -2.0153  0.7610
  186SAPI   O2121320   0.954   7.115  10.023 -0.3362  0.2707 -0.3821
  186SAPI   C2121321   0.828   7.115  10.056 -0.5183 -0.3211  0.0890
  186SAPI   O2221322   0.777   7.151  10.157 -0.6563 -0.2442 -0.1284
  186SAPI   C2221323   0.742   7.058   9.938  0.2300 -0.3429  0.2544
  186SAPI   H2R21324   0.803   6.998   9.867  1.2080 -0.9782  1.5889
  186SAPI   H2S21325   0.663   6.994   9.983 -2.1570  1.6431 -0.8915
  186SAPI    C321326   1.196   7.151  10.069  0.0739 -0.0802  0.0644
  186SAPI    HX21327   1.228   7.045  10.061 -0.8439 -0.3909  0.3713
  186SAPI    HY21328   1.273   7.196  10.135  2.7959 -1.3023 -2.1011
  186SAPI   O3121329   1.200   7.220   9.940 -0.2077 -0.3824 -0.2398
  186SAPI   C3121330   1.317   7.231   9.886  0.2701  0.2090 -0.1030
  186SAPI   O3221331   1.417   7.173   9.928 -0.4944 -0.3786 -0.5266
  186SAPI   C3221332   1.296   7.294   9.746 -0.6777  0.1677  0.8821
  186SAPI   H2X21333   1.344   7.394   9.751 -0.7315  0.2678 -0.2939
  186SAPI   H2Y21334   1.187   7.313   9.730 -0.7734 -0.4648  0.7689
  186SAPI   C2321335   0.669   7.171   9.859 -0.0555  0.1070 -0.2660
  186SAPI   H3R21336   0.666   7.264   9.920 -2.3648 -1.7941  2.8127
  186SAPI   H3S21337   0.563   7.142   9.841 -1.1175  2.6042  1.4634
  186SAPI   C2421338   0.741   7.204   9.725 -0.1397 -0.7962  0.1400
  186SAPI   H4R21339   0.791   7.112   9.688 -0.1518 -1.4748  1.7358
  186SAPI   H4S21340   0.828   7.269   9.747  1.2402 -3.0582  1.7294
  186SAPI   C2521341   0.640   7.260   9.625 -0.8714 -0.3320  0.0911
  186SAPI   H5R21342   0.619   7.362   9.659  1.4807 -0.3310  1.7506
  186SAPI   C2621343   0.602   7.219   9.506  0.6808 -0.5304  0.3014
  186SAPI   H6R21344   0.531   7.281   9.448  0.2873 -0.4597  0.8477
  186SAPI   C2721345   0.635   7.083   9.444 -1.2324 -0.4290 -0.3010
  186SAPI   H7R21346   0.693   7.019   9.514 -0.7425  0.7051  0.3704
  186SAPI   H7S21347   0.696   7.088   9.352 -2.7159  0.4402 -1.2785
  186SAPI   C2821348   0.511   7.005   9.402 -0.2171  0.3915  0.1098
  186SAPI   H8R21349   0.476   6.929   9.473  0.1698 -0.7430 -0.9044
  186SAPI   C2921350   0.437   7.032   9.292  0.0071  0.3506  0.2940
  186SAPI   H9R21351   0.344   6.975   9.277 -1.2182  1.7761  1.9392
  186SAPI  C21021352   0.479   7.127   9.176  0.0942  0.4050 -0.4401
  186SAPI  H10R21353   0.589   7.120   9.163  0.0868 -2.7031  0.4495
  186SAPI  H10S21354   0.446   7.227   9.212 -1.2017 -1.1921  3.2895
  186SAPI  C21121355   0.404   7.106   9.048 -0.0094  0.0021 -0.2947
  186SAPI  H11R21356   0.311   7.164   9.035 -0.5513 -0.5926  0.8057
  186SAPI  C21221357   0.429   7.015   8.944  0.1234 -0.3204 -0.2040
  186SAPI  H12R21358   0.364   7.017   8.855 -0.8099 -0.1001  0.4584
  186SAPI  C21321359   0.547   6.927   8.940 -0.4681  0.1101  0.4035
  186SAPI  H13R21360   0.596   6.908   9.038  1.1684 -1.2090 -0.6334
  186SAPI  H13S21361   0.618   6.975   8.870  0.3798 -0.8142  0.6119
  186SAPI  C21421362   0.512   6.791   8.883  0.0647 -0.3866  0.3501
  186SAPI  H14R21363   0.420   6.748   8.924  0.3253 -0.7842  0.5331
  186SAPI  C21521364   0.595   6.724   8.799  0.2067  0.3764 -0.2488
  186SAPI  H15R21365   0.573   6.619   8.775  0.4092 -0.0421  1.2751
  186SAPI  C21621366   0.726   6.777   8.735 -0.4174  0.4504 -0.4433
  186SAPI  H16R21367   0.799   6.797   8.816  1.0296 -1.6250 -1.1376
  186SAPI  H16S21368   0.705   6.880   8.699  1.2703  0.6350 -1.0045
  186SAPI  C21721369   0.787   6.710   8.610  0.8142  0.4100  0.3570
  186SAPI  H17R21370   0.815   6.604   8.633  0.6306  0.3078  0.1089
  186SAPI  H17S21371   0.877   6.768   8.583  0.4699  0.6624 -0.2461
  186SAPI  C21821372   0.686   6.715   8.490 -0.3920  0.0996 -0.1841
  186SAPI  H18R21373   0.647   6.814   8.459 -1.3444  0.8575  3.0090
  186SAPI  H18S21374   0.593   6.658   8.511 -0.5343  0.9666  1.7679
  186SAPI  C21921375   0.760   6.655   8.366 -0.2907 -0.4307  0.1131
  186SAPI  H19R21376   0.829   6.576   8.403  0.0124 -0.9992 -1.5661
  186SAPI  H19S21377   0.826   6.725   8.309  1.8442  0.3903  3.3533
  186SAPI  C22021378   0.664   6.588   8.271 -0.2730 -0.2739 -0.8857
  186SAPI  H20R21379   0.592   6.662   8.230 -0.0763  0.6044  0.2923
  186SAPI  H20S21380   0.610   6.506   8.323 -1.6426  2.6093  2.7695
  186SAPI  H20T21381   0.725   6.560   8.183 -0.7201 -1.3607 -0.8592
  186SAPI   C3321382   1.350   7.214   9.624  0.9019  0.5928  0.0990
  186SAPI   H3X21383   1.320   7.107   9.633  0.7074  0.8191  3.1622
  186SAPI   H3Y21384   1.461   7.212   9.626  0.9146 -1.6542  0.0634
  186SAPI   C3421385   1.309   7.263   9.486  0.5037  0.0270 -0.3168
  186SAPI   H4X21386   1.352   7.365   9.473 -0.6932  0.8427  1.5801
  186SAPI   H4Y21387   1.198   7.267   9.481  0.5372  1.8957 -0.4370
  186SAPI   C3521388   1.357   7.164   9.385 -0.4472 -0.0572  0.4846
  186SAPI   H5X21389   1.284   7.081   9.372  0.9931 -1.6368  2.0194
  186SAPI   H5Y21390   1.445   7.108   9.422 -1.4294 -1.8075  0.2658
  186SAPI   C3621391   1.374   7.226   9.241  0.0792  0.6610  0.3771
  186SAPI   H6X21392   1.456   7.300   9.238  0.7051 -0.0020  0.8739
  186SAPI   H6Y21393   1.280   7.270   9.200  0.1812 -0.0906 -0.7176
  186SAPI   C3721394   1.435   7.109   9.147  0.6430 -0.5203  0.4598
  186SAPI   H7X21395   1.361   7.027   9.136  1.3373 -0.9336 -1.4966
  186SAPI   H7Y21396   1.521   7.071   9.205  0.9880  1.6725  1.4908
  186SAPI   C3821397   1.476   7.169   9.012 -0.4575  0.9049  0.5695
  186SAPI   H8X21398   1.546   7.255   9.013  0.5636  0.1679 -1.6505
  186SAPI   H8Y21399   1.385   7.202   8.957 -0.2718  1.4841  0.6089
  186SAPI   C3921400   1.531   7.059   8.919 -0.3157 -0.0142 -0.0168
  186SAPI   H9X21401   1.460   6.974   8.911  0.2970 -0.3780 -1.9527
  186SAPI   H9Y21402   1.626   7.019   8.960 -1.2322 -0.5434  1.7240
  186SAPI  C31021403   1.559   7.109   8.774  0.6615 -0.5871  0.2386
  186SAPI  H10X21404   1.609   7.208   8.773  0.9208 -0.7215 -0.4521
  186SAPI  H10Y21405   1.467   7.100   8.712  2.1566 -3.9578 -1.7714
  186SAPI  C31121406   1.662   7.022   8.709  0.4154  0.1286 -0.1277
  186SAPI  H11X21407   1.630   6.916   8.718  0.2193  0.3741  3.4056
  186SAPI  H11Y21408   1.748   7.039   8.777 -0.2855  0.8246  0.5943
  186SAPI  C31221409   1.718   7.070   8.577  1.1472 -0.6851 -0.5320
  186SAPI  H12X21410   1.788   7.156   8.586  0.0305  0.1024  1.1035
  186SAPI  H12Y21411   1.628   7.098   8.518 -1.3313 -2.7962  1.9681
  186SAPI  C31321412   1.798   6.960   8.492  0.1276  0.3341 -0.3750
  186SAPI  H13X21413   1.774   6.855   8.519  3.7025 -0.7951 -1.0508
  186SAPI  H13Y21414   1.902   6.960   8.530  0.1524 -1.4626 -0.3534
  186SAPI  C31421415   1.797   6.964   8.339  0.3358 -0.1638 -0.9514
  186SAPI  H14X21416   1.886   6.907   8.305  1.1497  0.0699  0.7194
  186SAPI  H14Y21417   1.802   7.072   8.313 -1.1927  0.0708 -0.3811
  186SAPI  C31521418   1.674   6.911   8.280  0.0275 -0.2573 -0.2878
  186SAPI  H15X21419   1.587   6.925   8.348 -1.0352  0.5052 -1.7420
  186SAPI  H15Y21420   1.683   6.801   8.272 -0.1941 -0.1866 -1.9109
  186SAPI  C31621421   1.660   6.954   8.134  0.1950  0.2184  0.1922
  186SAPI  H16X21422   1.759   6.938   8.085 -0.2583 -0.9989 -0.3845
  186SAPI  H16Y21423   1.628   7.060   8.140 -1.1515 -0.2346  1.5111
  186SAPI  C31721424   1.557   6.871   8.058  0.2503  0.0221 -0.1442
  186SAPI  H17X21425   1.581   6.762   8.057 -0.6312 -0.1842  0.3084
  186SAPI  H17Y21426   1.560   6.907   7.953 -0.1202 -2.8752 -1.2416
  186SAPI  C31821427   1.411   6.890   8.103 -0.8605  0.5920  0.1066
  186SAPI  H18X21428   1.389   6.846   8.203 -2.2769 -2.1625 -1.3141
  186SAPI  H18Y21429   1.340   6.843   8.032  0.3827 -0.2361 -0.6375
  186SAPI  H18Z21430   1.384   6.997   8.093 -0.7940  0.4445 -2.0071
  187SAPI   C1221431   6.568   1.273   6.125 -0.4654  0.0390  0.4454
  187SAPI    H221432   6.532   1.278   6.230 -0.7721 -0.0184  0.3470
  187SAPI    O221433   6.709   1.277   6.129 -0.1066  0.0410 -0.5254
  187SAPI   HO221434   6.738   1.337   6.060  0.1981 -0.5984 -0.9661
  187SAPI   C1321435   6.522   1.145   6.058 -0.0301  0.3047 -0.5198
  187SAPI    H321436   6.411   1.148   6.053 -0.2258 -3.2092 -1.3929
  187SAPI    O321437   6.552   1.034   6.144 -0.1080 -0.0504 -0.3911
  187SAPI   HO321438   6.644   1.042   6.171  0.0355 -0.4091 -0.7855
  187SAPI   C1421439   6.588   1.124   5.921  0.2684  0.1380 -0.4109
  187SAPI    H421440   6.698   1.116   5.928  0.3184 -2.2410 -2.3894
  187SAPI    O421441   6.543   1.001   5.861 -0.1688 -0.3093 -0.0705
  187SAPI   HO421442   6.530   0.933   5.928  1.2241  0.3756  0.9301
  187SAPI   C1521443   6.565   1.243   5.828 -0.0712 -0.3172  0.1862
  187SAPI    H521444   6.459   1.228   5.797 -1.2947  1.4644  3.1122
  187SAPI    O521445   6.652   1.246   5.713 -0.1747  0.1064 -0.0358
  187SAPI   HO521446   6.741   1.222   5.742 -0.1605  0.0715 -0.1055
  187SAPI   C1621447   6.556   1.380   5.894  0.2432  0.5648 -0.2827
  187SAPI    H621448   6.662   1.413   5.893  0.4290  0.0994 -2.8183
  187SAPI    O621449   6.482   1.472   5.812 -0.0963  0.3929 -0.4507
  187SAPI   HO621450   6.536   1.551   5.808  0.9976 -0.3589 -1.1889
  187SAPI   C1121451   6.516   1.388   6.045 -0.3658 -0.4807  0.2676
  187SAPI    H121452   6.405   1.383   6.044 -0.5431  1.6581 -2.9390
  187SAPI     P21453   6.513   1.574   6.239 -0.1877 -0.0939 -0.3450
  187SAPI   O1321454   6.393   1.505   6.293 -0.0788  0.1999  0.1837
  187SAPI   O1421455   6.512   1.724   6.240 -0.2276 -0.1104 -0.3426
  187SAPI   O1221456   6.546   1.522   6.082 -0.6548  0.4712 -0.4595
  187SAPI   O1121457   6.633   1.526   6.321  0.0624 -0.0941  0.2092
  187SAPI    C121458   6.626   1.483   6.459  0.2856 -0.2509  0.2933
  187SAPI    HA21459   6.534   1.421   6.469 -0.2572 -0.2843 -3.3706
  187SAPI    HB21460   6.708   1.410   6.473  1.0319  0.4656 -0.2460
  187SAPI    C221461   6.641   1.603   6.553 -0.2922  0.2496 -0.6705
  187SAPI    HS21462   6.685   1.561   6.646 -1.0474 -2.3864 -1.4258
  187SAPI   O2121463   6.518   1.672   6.580 -0.3749  0.0331 -0.0280
  187SAPI   C2121464   6.421   1.604   6.631  0.2503 -0.3683  0.7388
  187SAPI   O2221465   6.430   1.495   6.685  0.2931 -0.7211 -0.5416
  187SAPI   C2221466   6.283   1.674   6.625 -0.1993 -0.5455  0.9694
  187SAPI   H2R21467   6.304   1.783   6.617  1.6916 -0.9437  0.0468
  187SAPI   H2S21468   6.226   1.646   6.534  1.6147 -0.0760 -0.3710
  187SAPI    C321469   6.748   1.702   6.509 -0.2322  0.9052 -0.2455
  187SAPI    HX21470   6.724   1.744   6.409 -2.3468 -1.6749 -0.9269
  187SAPI    HY21471   6.836   1.637   6.495 -0.2856  0.4280  1.4131
  187SAPI   O3121472   6.781   1.801   6.605  0.0899  0.3114 -0.2986
  187SAPI   C3121473   6.724   1.921   6.602  0.3617  1.3478 -0.4026
  187SAPI   O3221474   6.630   1.951   6.532 -0.3538  0.5840  0.0663
  187SAPI   C3221475   6.804   2.012   6.696  0.4143  0.3254  0.2844
  187SAPI   H2X21476   6.752   2.110   6.692  1.3269  0.8270  0.2313
  187SAPI   H2Y21477   6.904   2.028   6.651  0.4497 -1.6669 -0.4208
  187SAPI   C2321478   6.192   1.648   6.742 -0.0508  0.1660 -1.0142
  187SAPI   H3R21479   6.174   1.540   6.763  0.2269  0.1502 -0.8524
  187SAPI   H3S21480   6.087   1.684   6.735 -0.4996 -1.3088 -2.4636
  187SAPI   C2421481   6.246   1.724   6.866 -0.5948  0.3356  0.1060
  187SAPI   H4R21482   6.240   1.832   6.840 -0.6812 -0.1488 -2.1193
  187SAPI   H4S21483   6.353   1.696   6.860  0.0275  2.6746 -1.1501
  187SAPI   C2521484   6.182   1.687   6.996  0.5438 -0.2357 -0.1954
  187SAPI   H5R21485   6.082   1.729   7.015 -0.0563 -1.7310  0.1296
  187SAPI   C2621486   6.230   1.607   7.093 -0.2866 -0.1049  0.1446
  187SAPI   H6R21487   6.167   1.588   7.181 -1.1684 -1.9099 -0.8249
  187SAPI   C2721488   6.356   1.524   7.089 -0.2408 -0.8467  0.1020
  187SAPI   H7R21489   6.428   1.577   7.155  0.3162 -0.5822 -0.7107
  187SAPI   H7S21490   6.405   1.530   6.990 -0.6784  1.1199 -0.0385
  187SAPI   C2821491   6.350   1.375   7.137  0.3865 -0.1627 -0.0007
  187SAPI   H8R21492   6.323   1.300   7.062  1.5256 -0.7053  0.1117
  187SAPI   C2921493   6.347   1.324   7.257  0.6655  0.0144 -1.1890
  187SAPI   H9R21494   6.347   1.215   7.270  1.6358  0.1686  0.2746
  187SAPI  C21021495   6.368   1.397   7.390  0.0391 -0.1513 -0.2109
  187SAPI  H10R21496   6.315   1.341   7.470 -0.7162 -1.4263 -1.5453
  187SAPI  H10S21497   6.299   1.481   7.371  1.3991  0.5423 -2.4385
  187SAPI  C21121498   6.499   1.454   7.424  0.7483 -0.4139  0.3613
  187SAPI  H11R21499   6.583   1.432   7.357  2.0581 -2.0676  2.4037
  187SAPI  C21221500   6.537   1.546   7.517  0.0360  0.6009 -0.3013
  187SAPI  H12R21501   6.643   1.574   7.514 -0.2296  1.5538 -1.6177
  187SAPI  C21321502   6.448   1.582   7.633 -0.2629  0.0658  0.1450
  187SAPI  H13R21503   6.392   1.674   7.605  0.3421  0.8724  1.4732
  187SAPI  H13S21504   6.518   1.603   7.716 -0.1175 -0.4642  0.1588
  187SAPI  C21421505   6.349   1.481   7.696 -0.0261  0.1604  0.2169
  187SAPI  H14R21506   6.386   1.378   7.687  0.7278  0.5560 -1.8294
  187SAPI  C21521507   6.224   1.511   7.739  0.0417 -0.6366 -0.2027
  187SAPI  H15R21508   6.150   1.430   7.752 -0.9781 -0.1464 -2.4121
  187SAPI  C21621509   6.166   1.649   7.758  0.4635  0.0828  0.5178
  187SAPI  H16R21510   6.074   1.649   7.695  1.5515  1.2353 -1.1580
  187SAPI  H16S21511   6.243   1.719   7.718  2.0680 -0.5276  2.3868
  187SAPI  C21721512   6.137   1.686   7.897 -0.0529  0.2105 -0.4043
  187SAPI  H17R21513   6.055   1.627   7.943  0.5252 -2.0020 -2.0481
  187SAPI  H17S21514   6.099   1.790   7.889  0.7819  0.5253 -0.4443
  187SAPI  C21821515   6.257   1.685   7.985  0.4713 -0.8561  0.1011
  187SAPI  H18R21516   6.335   1.758   7.955 -1.7906  1.2755 -0.9782
  187SAPI  H18S21517   6.307   1.586   7.977 -0.4592 -1.2793 -0.7088
  187SAPI  C21921518   6.218   1.700   8.135 -0.3864  0.1629 -0.0674
  187SAPI  H19R21519   6.312   1.663   8.183 -0.1035  1.0709  0.1051
  187SAPI  H19S21520   6.133   1.640   8.174  0.9305 -2.1389 -0.5222
  187SAPI  C22021521   6.212   1.855   8.176 -0.0039  0.4204 -0.0096
  187SAPI  H20R21522   6.126   1.906   8.128  0.8047  0.6797 -1.2347
  187SAPI  H20S21523   6.302   1.913   8.146  0.0262  0.3102 -0.1307
  187SAPI  H20T21524   6.205   1.858   8.287  2.7559  1.3209  0.2141
  187SAPI   C3321525   6.824   1.963   6.835  0.0367 -0.3442  0.2339
  187SAPI   H3X21526   6.885   2.033   6.896  0.9830 -1.0766  0.1570
  187SAPI   H3Y21527   6.878   1.866   6.825  1.3742  0.3514  0.4506
  187SAPI   C3421528   6.685   1.951   6.903  0.1583 -0.3061 -0.3284
  187SAPI   H4X21529   6.639   1.854   6.872 -0.4665 -0.7182  1.7271
  187SAPI   H4Y21530   6.629   2.043   6.877 -0.4109  0.5855  3.3873
  187SAPI   C3521531   6.690   1.950   7.063  0.3384  0.1949 -0.2288
  187SAPI   H5X21532   6.711   2.055   7.095  1.4216  0.1077 -0.6087
  187SAPI   H5Y21533   6.771   1.889   7.108 -1.9402  0.4501  4.9129
  187SAPI   C3621534   6.554   1.885   7.120  0.3458  0.3041  0.4396
  187SAPI   H6X21535   6.545   1.782   7.080  3.3852 -0.7431  2.1509
  187SAPI   H6Y21536   6.465   1.931   7.072  0.3875 -2.3272 -2.4350
  187SAPI   C3721537   6.548   1.871   7.271 -0.3735  1.1486 -0.4929
  187SAPI   H7X21538   6.609   1.782   7.296  0.3175  1.5853 -0.5915
  187SAPI   H7Y21539   6.455   1.818   7.300  1.3290 -0.4648  2.5618
  187SAPI   C3821540   6.559   1.997   7.356 -0.0977  0.3381 -0.6227
  187SAPI   H8X21541   6.474   2.068   7.350  1.2201  2.0031 -0.3909
  187SAPI   H8Y21542   6.658   2.045   7.342  0.6082 -0.6516  0.6517
  187SAPI   C3921543   6.545   1.962   7.503  0.0245 -0.0831 -0.7175
  187SAPI   H9X21544   6.603   1.870   7.529 -0.6107 -0.7760 -1.6924
  187SAPI   H9Y21545   6.440   1.931   7.518  0.6834 -2.4186 -0.4139
  187SAPI  C31021546   6.579   2.082   7.601  0.6117  0.0449 -1.2076
  187SAPI  H10X21547   6.513   2.165   7.569 -0.5240 -0.2355  0.3047
  187SAPI  H10Y21548   6.688   2.104   7.597  0.5741  0.4047 -0.3888
  187SAPI  C31121549   6.549   2.034   7.746  0.3632 -0.2650  0.9996
  187SAPI  H11X21550   6.440   2.020   7.760  0.2845 -0.2099  0.4741
  187SAPI  H11Y21551   6.572   2.116   7.817 -1.2694 -0.0411  1.2941
  187SAPI  C31221552   6.623   1.913   7.797  0.4141 -0.0483 -0.2208
  187SAPI  H12X21553   6.731   1.932   7.780  0.1780  1.2851 -0.3627
  187SAPI  H12Y21554   6.580   1.820   7.754  0.9766 -0.3652 -0.1041
  187SAPI  C31321555   6.606   1.907   7.950 -0.4229  0.2905  0.0316
  187SAPI  H13X21556   6.503   1.898   7.991 -0.6790 -0.1265 -0.6734
  187SAPI  H13Y21557   6.636   2.005   7.991 -1.1514  0.7476 -0.5080
  187SAPI  C31421558   6.692   1.792   8.004 -0.0026  0.4303 -0.0911
  187SAPI  H14X21559   6.794   1.834   8.021  0.3379  0.7575 -2.6101
  187SAPI  H14Y21560   6.700   1.720   7.920 -1.8935  3.5804 -3.2511
  187SAPI  C31521561   6.635   1.733   8.132 -0.0283 -0.0851 -0.3312
  187SAPI  H15X21562   6.539   1.680   8.112  0.9243 -2.0253  0.0386
  187SAPI  H15Y21563   6.614   1.819   8.200 -2.4250 -0.7661 -0.1007
  187SAPI  C31621564   6.729   1.632   8.198 -0.3107 -0.4108 -0.3215
  187SAPI  H16X21565   6.697   1.623   8.304 -0.9959 -0.8422 -0.5530
  187SAPI  H16Y21566   6.831   1.674   8.202 -0.4147  0.0539 -1.8586
  187SAPI  C31721567   6.719   1.492   8.129  0.0534  0.1510 -0.5279
  187SAPI  H17X21568   6.760   1.500   8.025 -0.2964 -0.8623 -0.7547
  187SAPI  H17Y21569   6.613   1.460   8.123  0.0981 -0.5218  1.6693
  187SAPI  C31821570   6.808   1.386   8.204 -0.0857 -0.4148  0.3776
  187SAPI  H18X21571   6.789   1.281   8.172 -0.0042 -0.6594  1.1108
  187SAPI  H18Y21572   6.794   1.387   8.315  0.9707  1.3208  0.5256
  187SAPI  H18Z21573   6.914   1.416   8.190  0.5154 -2.7262 -0.5799
  188SAPI   C1221574   1.443   3.874   6.121 -0.3153  0.1790 -0.2478
  188SAPI    H221575   1.461   3.793   6.194 -1.0218  0.7883  0.6225
  188SAPI    O221576   1.365   3.824   6.015  0.0324 -0.3511 -0.5446
  188SAPI   HO221577   1.374   3.729   6.009 -1.5891 -0.4631 -1.7740
  188SAPI   C1321578   1.371   3.984   6.192 -0.0316 -0.9265  0.3557
  188SAPI    H321579   1.437   4.041   6.261 -0.3604  1.8295 -1.4893
  188SAPI    O321580   1.257   3.940   6.265  0.3608 -0.8838 -0.3559
  188SAPI   HO321581   1.182   3.927   6.208 -2.2932  1.7193  2.1886
  188SAPI   C1421582   1.321   4.093   6.094  0.0020 -0.3281 -0.0049
  188SAPI    H421583   1.248   4.040   6.029  0.6666 -0.5026 -0.6234
  188SAPI    O421584   1.257   4.208   6.168 -0.7222  0.0323  0.2508
  188SAPI   HO421585   1.163   4.210   6.145 -0.1398  0.9232 -2.4497
  188SAPI   C1521586   1.439   4.150   6.005 -0.0527  0.0361  0.3687
  188SAPI    H521587   1.484   4.222   6.077 -1.5208 -0.0047  1.3559
  188SAPI    O521588   1.394   4.223   5.893  0.8590 -0.1349 -0.0202
  188SAPI   HO521589   1.310   4.190   5.861  0.5893  0.8392 -0.3510
  188SAPI   C1621590   1.544   4.049   5.968  0.5708 -0.1452  1.0219
  188SAPI    H621591   1.534   4.003   5.867  1.8925  0.6397  0.5004
  188SAPI    O621592   1.666   4.105   5.935 -0.1694 -0.0748  0.2894
  188SAPI   HO621593   1.708   4.042   5.876  1.5284  0.6480  0.6750
  188SAPI   C1121594   1.567   3.932   6.070 -0.4275  1.2712 -0.3504
  188SAPI    H121595   1.632   3.960   6.155  1.9022 -0.1261 -1.5551
  188SAPI     P21596   1.800   3.795   5.972 -0.1446 -0.0632 -0.2966
  188SAPI   O1321597   1.872   3.921   5.929  0.1900  0.3558  0.4849
  188SAPI   O1421598   1.822   3.674   5.890  0.2426 -0.1086  0.0403
  188SAPI   O1221599   1.640   3.828   5.999 -0.2682 -0.2177 -0.0601
  188SAPI   O1121600   1.857   3.757   6.121  0.2373 -0.4635 -0.3943
  188SAPI    C121601   1.791   3.639   6.182  0.0822  0.2277  0.3126
  188SAPI    HA21602   1.708   3.603   6.118  0.5847 -0.2766 -0.0722
  188SAPI    HB21603   1.867   3.560   6.203 -1.4798 -1.2992  0.4211
  188SAPI    C221604   1.727   3.674   6.323 -0.0987 -0.7637  0.5221
  188SAPI    HS21605   1.630   3.718   6.294 -0.6096 -0.4378  2.6109
  188SAPI   O2121606   1.814   3.756   6.390 -0.0277 -0.5791  0.0431
  188SAPI   C2121607   1.755   3.840   6.479  0.0012 -0.1793  0.3351
  188SAPI   O2221608   1.638   3.844   6.496  0.2700 -0.2322  0.2601
  188SAPI   C2221609   1.863   3.927   6.533  0.1236  0.1518  0.2148
  188SAPI   H2R21610   1.949   3.864   6.563 -0.1849 -1.3999 -1.9458
  188SAPI   H2S21611   1.896   3.993   6.450 -3.7880  2.8317  0.5148
  188SAPI    C321612   1.698   3.546   6.407 -0.1929  0.8292 -0.4098
  188SAPI    HX21613   1.789   3.495   6.445 -0.8944 -1.2250 -1.2904
  188SAPI    HY21614   1.653   3.476   6.332  2.4175 -0.2339 -1.1260
  188SAPI   O3121615   1.591   3.563   6.511  0.7295 -0.0075  0.5124
  188SAPI   C3121616   1.633   3.571   6.631 -0.1879  0.0119  0.9417
  188SAPI   O3221617   1.749   3.595   6.666  0.4114  0.7270 -0.4824
  188SAPI   C3221618   1.516   3.557   6.718 -0.6143 -0.3394 -0.6399
  188SAPI   H2X21619   1.535   3.464   6.777  0.2686 -0.5122 -1.1836
  188SAPI   H2Y21620   1.420   3.541   6.664 -1.0176  1.3197 -0.4800
  188SAPI   C2321621   1.816   4.008   6.658 -0.4074  0.6796  0.6942
  188SAPI   H3R21622   1.775   3.952   6.744 -2.7721  0.9797 -0.1529
  188SAPI   H3S21623   1.733   4.069   6.616  0.5366  0.7968 -1.1447
  188SAPI   C2421624   1.930   4.097   6.710 -0.2328 -0.1693 -0.2241
  188SAPI   H4R21625   2.020   4.034   6.725  0.0629  0.3084  0.0341
  188SAPI   H4S21626   1.899   4.133   6.811  0.1160  3.4865 -1.2930
  188SAPI   C2521627   1.950   4.220   6.622  0.6543 -0.4597  0.0615
  188SAPI   H5R21628   2.001   4.194   6.528 -1.3172 -4.1109 -0.1976
  188SAPI   C2621629   1.928   4.348   6.651 -0.6442 -0.2021  0.7023
  188SAPI   H6R21630   1.965   4.418   6.575  2.7389 -0.0444  2.2813
  188SAPI   C2721631   1.900   4.409   6.782  0.2857 -0.2145 -0.2260
  188SAPI   H7R21632   1.990   4.402   6.847 -0.5384  1.3190  1.1497
  188SAPI   H7S21633   1.818   4.357   6.835  2.6585 -1.6763  2.2814
  188SAPI   C2821634   1.868   4.559   6.758 -0.1300  0.2597  0.1797
  188SAPI   H8R21635   1.920   4.602   6.672  2.8645  1.4522  2.3950
  188SAPI   C2921636   1.789   4.640   6.837 -1.1687 -0.2901  0.4723
  188SAPI   H9R21637   1.773   4.747   6.816 -0.9278 -0.5188 -0.9862
  188SAPI  C21021638   1.713   4.586   6.958  0.3630 -0.6621 -0.5886
  188SAPI  H10R21639   1.684   4.481   6.933  2.0740 -0.6681 -2.7826
  188SAPI  H10S21640   1.622   4.649   6.964  0.7123  0.0468 -2.3766
  188SAPI  C21121641   1.794   4.584   7.091 -0.7228 -0.3473  0.6925
  188SAPI  H11R21642   1.902   4.602   7.082 -0.5370 -0.4323  2.4574
  188SAPI  C21221643   1.738   4.582   7.208  0.3766  0.6241  0.4364
  188SAPI  H12R21644   1.792   4.571   7.304  0.6660  0.0293  0.2079
  188SAPI  C21321645   1.587   4.559   7.220  0.5060 -0.2843  0.3416
  188SAPI  H13R21646   1.568   4.455   7.187  1.5630 -0.2461 -0.4175
  188SAPI  H13S21647   1.527   4.626   7.156  0.6404  1.2607  1.7605
  188SAPI  C21421648   1.538   4.599   7.362 -0.7997  0.2388 -0.7207
  188SAPI  H14R21649   1.546   4.704   7.393 -1.5354  0.0665  0.0810
  188SAPI  C21521650   1.481   4.512   7.454  0.0584 -0.1533  0.2168
  188SAPI  H15R21651   1.453   4.547   7.555  0.5832 -0.1812  0.3741
  188SAPI  C21621652   1.446   4.367   7.422  0.1668 -1.2699  0.4428
  188SAPI  H16R21653   1.541   4.310   7.426  1.4759  0.8111  0.7743
  188SAPI  H16S21654   1.408   4.370   7.318  3.4235  0.2284 -0.8370
  188SAPI  C21721655   1.350   4.309   7.518 -0.3935 -0.6552  0.3012
  188SAPI  H17R21656   1.307   4.212   7.482  1.0800 -1.1645 -0.1414
  188SAPI  H17S21657   1.264   4.375   7.545 -0.5696 -1.0259  0.6524
  188SAPI  C21821658   1.421   4.272   7.649  0.5029  0.2308 -0.0826
  188SAPI  H18R21659   1.439   4.357   7.718 -2.1617 -1.0335  2.3588
  188SAPI  H18S21660   1.514   4.221   7.615 -0.5646 -2.0067  0.1973
  188SAPI  C21921661   1.337   4.166   7.730 -0.4375 -0.0323 -0.1345
  188SAPI  H19R21662   1.316   4.072   7.675  3.3235  0.0891 -2.0928
  188SAPI  H19S21663   1.242   4.218   7.758  1.1166  2.7498  0.2904
  188SAPI  C22021664   1.403   4.131   7.858 -0.3027  0.3667 -0.0795
  188SAPI  H20R21665   1.333   4.063   7.911 -0.3639  1.6723  1.5823
  188SAPI  H20S21666   1.417   4.215   7.929 -1.8500  1.7811 -1.3499
  188SAPI  H20T21667   1.494   4.068   7.850 -1.0596 -0.5345 -2.9554
  188SAPI   C3321668   1.512   3.672   6.816 -0.6480  0.5822  0.0657
  188SAPI   H3X21669   1.494   3.765   6.757  0.3888 -0.4496 -2.0011
  188SAPI   H3Y21670   1.610   3.688   6.866  0.2816  1.3857 -1.8911
  188SAPI   C3421671   1.387   3.671   6.908 -0.5737 -0.0860 -0.6518
  188SAPI   H4X21672   1.372   3.564   6.931 -0.8486  0.0391 -0.2372
  188SAPI   H4Y21673   1.290   3.704   6.864 -0.8568 -1.3530 -1.0266
  188SAPI   C3521674   1.405   3.741   7.037 -0.7870  0.2240 -1.1232
  188SAPI   H5X21675   1.422   3.849   7.015  2.3067 -0.3295 -1.8230
  188SAPI   H5Y21676   1.495   3.715   7.096 -1.7163 -1.0156 -0.2118
  188SAPI   C3621677   1.273   3.731   7.112 -0.5361  0.0297 -0.2689
  188SAPI   H6X21678   1.243   3.627   7.136  1.0966 -0.6675 -1.0587
  188SAPI   H6Y21679   1.192   3.767   7.044 -2.5089 -0.9653  1.4320
  188SAPI   C3721680   1.267   3.814   7.241  0.3189  0.0712  0.5649
  188SAPI   H7X21681   1.176   3.796   7.302 -1.1506  1.5500 -1.0550
  188SAPI   H7Y21682   1.268   3.923   7.217 -1.1258 -0.0556 -0.1514
  188SAPI   C3821683   1.383   3.782   7.335 -0.0565 -0.4046  0.3328
  188SAPI   H8X21684   1.469   3.845   7.306 -0.2665  0.2387  1.0617
  188SAPI   H8Y21685   1.422   3.679   7.333  0.8262 -0.1063  1.3697
  188SAPI   C3921686   1.363   3.820   7.484 -0.6193 -0.2935 -0.5290
  188SAPI   H9X21687   1.280   3.764   7.533  0.7975 -3.8099 -1.8773
  188SAPI   H9Y21688   1.356   3.931   7.478  0.6757 -0.1512  0.2456
  188SAPI  C31021689   1.496   3.794   7.567 -0.1689  0.6845  0.0980
  188SAPI  H10X21690   1.482   3.837   7.669  0.5171  1.0530  0.0431
  188SAPI  H10Y21691   1.588   3.833   7.518  0.3454  1.4894  1.6097
  188SAPI  C31121692   1.504   3.650   7.604  0.5366  0.0785 -0.4870
  188SAPI  H11X21693   1.610   3.617   7.597  0.0305 -1.5530 -0.8563
  188SAPI  H11Y21694   1.437   3.590   7.538  0.8226 -1.0156  0.1817
  188SAPI  C31221695   1.454   3.633   7.750 -0.2920 -0.0429 -0.8884
  188SAPI  H12X21696   1.436   3.524   7.763 -1.3998  0.3628  1.6130
  188SAPI  H12Y21697   1.351   3.671   7.761 -1.2677 -2.5997 -0.5158
  188SAPI  C31321698   1.545   3.684   7.862 -0.4893 -0.0867 -0.2682
  188SAPI  H13X21699   1.564   3.793   7.869 -0.6589 -0.1227  1.0542
  188SAPI  H13Y21700   1.648   3.641   7.860 -0.6125 -0.3646 -0.8065
  188SAPI  C31421701   1.490   3.637   8.000  0.0790 -0.0280 -0.4921
  188SAPI  H14X21702   1.499   3.526   7.997  1.7968  0.0796 -0.3146
  188SAPI  H14Y21703   1.382   3.657   8.019  0.3367  0.4263  0.6045
  188SAPI  C31521704   1.577   3.685   8.111  0.3750  0.3936 -0.7853
  188SAPI  H15X21705   1.686   3.682   8.092  0.9254 -0.7760  2.0301
  188SAPI  H15Y21706   1.564   3.624   8.203  2.1819  0.4245 -0.4802
  188SAPI  C31621707   1.542   3.829   8.145 -0.1539 -0.0453 -0.2302
  188SAPI  H16X21708   1.535   3.897   8.058 -3.0373  0.4526  0.2735
  188SAPI  H16Y21709   1.623   3.867   8.211  1.8035 -2.6051 -1.0202
  188SAPI  C31721710   1.406   3.851   8.214  0.0359 -0.3169  0.5613
  188SAPI  H17X21711   1.335   3.777   8.170 -1.1623  1.0038  0.1939
  188SAPI  H17Y21712   1.374   3.957   8.201 -1.7695 -0.9204 -0.2890
  188SAPI  C31821713   1.413   3.808   8.367  1.3996 -0.1709 -0.6772
  188SAPI  H18X21714   1.456   3.895   8.422  1.0570 -0.3473 -0.1226
  188SAPI  H18Y21715   1.478   3.719   8.372  1.4007 -0.1058  1.7339
  188SAPI  H18Z21716   1.309   3.789   8.401  1.7541 -1.5603 -0.2919
  189POPC     N21717   5.310   4.878  10.993 -0.2843  0.1118  0.8120
  189POPC   C1221718   5.369   4.948  10.874 -0.4826 -0.6182 -0.0664
  189POPC  H12A21719   5.308   4.924  10.788 -6.9183  0.5804  3.4931
  189POPC  H12B21720   5.466   4.904  10.856 -0.0754 -1.2441  3.0838
  189POPC   C1321721   5.170   4.924  11.015  0.0563 -0.0636  0.2677
  189POPC  H13A21722   5.128   4.950  10.918  1.8532 -2.3179 -1.2178
  189POPC  H13B21723   5.112   4.855  11.074 -0.2948 -1.9266 -2.0797
  189POPC  H13C21724   5.179   5.020  11.065 -1.2029  0.8916 -1.2110
  189POPC   C1421725   5.297   4.725  10.995 -0.5454 -0.5883  0.4070
  189POPC  H14A21726   5.255   4.692  10.902  0.9671 -3.1599  0.5614
  189POPC  H14B21727   5.398   4.687  10.993 -0.4359 -0.5239  2.4812
  189POPC  H14C21728   5.246   4.698  11.086 -1.0502  1.8352  0.9337
  189POPC   C1521729   5.384   4.910  11.116  0.5537 -0.1863  0.8195
  189POPC  H15A21730   5.461   4.836  11.133  0.6788 -0.1186  0.5507
  189POPC  H15B21731   5.323   4.907  11.205  1.5571  0.0065  1.5245
  189POPC  H15C21732   5.443   5.000  11.117 -0.8051  0.7392  2.5278
  189POPC   C1121733   5.391   5.105  10.869  0.1046  0.4533 -0.4395
  189POPC  H11A21734   5.294   5.149  10.898  0.1212 -0.2213  0.7003
  189POPC  H11B21735   5.418   5.142  10.768 -2.3620  0.9575 -0.9699
  189POPC     P21736   5.628   5.163  10.958 -0.3735  0.2538  0.0652
  189POPC   O1321737   5.675   5.044  10.889 -0.1194  0.1444 -0.0298
  189POPC   O1421738   5.698   5.199  11.085 -0.1550  0.0929 -0.0188
  189POPC   O1221739   5.469   5.153  10.978 -0.0587  0.3732  0.3195
  189POPC   O1121740   5.633   5.287  10.864  0.0267  0.5921 -0.0823
  189POPC    C121741   5.751   5.337  10.803 -0.3824 -0.5400  0.4146
  189POPC    HA21742   5.820   5.258  10.765  1.3897  1.4439 -0.7318
  189POPC    HB21743   5.799   5.389  10.888  0.7371 -1.5830  0.4534
  189POPC    C221744   5.713   5.436  10.687  0.0920  0.6365  0.5562
  189POPC    HS21745   5.670   5.525  10.738  1.1229  0.4175  1.8760
  189POPC   O2121746   5.625   5.356  10.597  0.5755 -0.0959  0.1315
  189POPC   C2121747   5.536   5.422  10.538 -0.6149 -0.1777 -0.0389
  189POPC   O2221748   5.524   5.544  10.548 -0.2865  0.1913  0.3096
  189POPC   C2221749   5.448   5.322  10.457 -0.5418  0.1192  0.4038
  189POPC   H2R21750   5.361   5.301  10.523 -1.8979  0.6090 -1.1614
  189POPC   H2S21751   5.504   5.228  10.438 -0.0913  0.7006 -1.3400
  189POPC    C321752   5.843   5.483  10.611  0.3844 -0.1429 -0.0836
  189POPC    HX21753   5.892   5.389  10.576  2.2447 -0.8452  3.8156
  189POPC    HY21754   5.910   5.519  10.692  0.5483 -1.5008  0.4166
  189POPC   O3121755   5.813   5.583  10.508 -0.6460  0.6956 -0.5460
  189POPC   C3121756   5.914   5.595  10.423 -0.0449  0.1374  0.0087
  189POPC   O3221757   6.023   5.543  10.426  0.0038 -0.0248 -0.4049
  189POPC   C3221758   5.870   5.688  10.309 -0.6466 -0.3479  0.0272
  189POPC   H2X21759   5.844   5.792  10.339  1.5820  0.6703 -1.2677
  189POPC   H2Y21760   5.784   5.642  10.257 -0.7080  1.9530 -2.1161
  189POPC   C2321761   5.401   5.383  10.322  0.0084  0.1390  0.2417
  189POPC   H3R21762   5.485   5.409  10.254  0.2911  0.3376  0.6622
  189POPC   H3S21763   5.352   5.482  10.328  0.2497  0.3592 -1.1404
  189POPC   C2421764   5.308   5.277  10.263  1.6596 -0.5651  0.3269
  189POPC   H4R21765   5.236   5.240  10.339  0.5509  0.7366 -0.0625
  189POPC   H4S21766   5.376   5.189  10.258  2.8901  0.3555  0.1446
  189POPC   C2521767   5.232   5.317  10.140  0.3698  0.0692 -0.0749
  189POPC   H5R21768   5.160   5.399  10.161  2.1525  1.7505 -0.1450
  189POPC   H5S21769   5.171   5.229  10.114  0.0027  0.4231 -0.4223
  189POPC   C2621770   5.327   5.358  10.021 -0.0290 -0.4179  0.0832
  189POPC   H6R21771   5.406   5.280  10.023 -0.9931 -1.3997  1.8718
  189POPC   H6S21772   5.369   5.456  10.052  0.4603 -0.5418 -0.1826
  189POPC   C2721773   5.252   5.373   9.889 -0.8391  0.3158  0.4268
  189POPC   H7R21774   5.310   5.451   9.834 -0.7599 -0.0893 -0.0703
  189POPC   H7S21775   5.147   5.396   9.916  0.2063  2.3251  3.2980
  189POPC   C2821776   5.260   5.238   9.818 -0.3473  0.3343  0.5346
  189POPC   H8R21777   5.228   5.151   9.880  0.6092 -0.8615 -0.5722
  189POPC   H8S21778   5.368   5.222   9.798  0.3122  1.9650  2.5316
  189POPC   C2921779   5.167   5.251   9.695  0.6093  0.1952 -0.9311
  189POPC   H9121780   5.064   5.227   9.724  0.8781 -0.8555 -0.8075
  189POPC  C21021781   5.184   5.261   9.562  0.6622 -0.4191 -0.6543
  189POPC  H10121782   5.094   5.286   9.502  0.7529  0.2211 -0.5328
  189POPC  C21121783   5.319   5.287   9.502  0.0848  1.1203 -0.2752
  189POPC  H11R21784   5.398   5.248   9.569 -1.0124 -0.1854  0.3207
  189POPC  H11S21785   5.342   5.396   9.498  1.5341  0.7886 -1.7120
  189POPC  C21221786   5.340   5.229   9.360 -0.0595 -0.0779  0.7954
  189POPC  H12R21787   5.320   5.121   9.377 -3.7324  0.6820  2.2946
  189POPC  H12S21788   5.446   5.244   9.332 -0.1405  0.2515  0.6623
  189POPC  C21321789   5.250   5.287   9.256  0.1626  0.2718 -0.6902
  189POPC  H13R21790   5.228   5.391   9.289  0.8427  0.4336 -0.7270
  189POPC  H13S21791   5.158   5.224   9.261 -1.2696  2.1291 -2.2351
  189POPC  C21421792   5.292   5.305   9.109 -0.2761  0.5852  0.7208
  189POPC  H14R21793   5.317   5.209   9.059 -0.7307  0.4482  0.7489
  189POPC  H14S21794   5.372   5.380   9.091  1.6224 -1.0970  1.7525
  189POPC  C21521795   5.175   5.358   9.030 -0.0359  0.2395 -0.6927
  189POPC  H15R21796   5.150   5.458   9.072 -2.1770  0.3943 -2.1994
  189POPC  H15S21797   5.084   5.295   9.042  1.3284 -1.8036 -0.6081
  189POPC  C21621798   5.201   5.363   8.876  0.2633 -0.3980  0.1427
  189POPC  H16R21799   5.105   5.372   8.822  0.9808 -1.7382 -1.4485
  189POPC  H16S21800   5.239   5.265   8.840  1.1265  0.1671 -0.5447
  189POPC  C21721801   5.302   5.468   8.811  0.6469  0.1898  0.4965
  189POPC  H17R21802   5.404   5.452   8.851  1.1344 -1.5064 -1.2759
  189POPC  H17S21803   5.269   5.570   8.840  1.3181  0.7237 -0.5989
  189POPC  C21821804   5.305   5.460   8.659 -0.5159  0.0474  0.3662
  189POPC  H18R21805   5.204   5.489   8.623 -0.6538 -1.7539 -0.8754
  189POPC  H18S21806   5.324   5.358   8.618  2.8251  0.3211  0.9455
  189POPC  H18T21807   5.382   5.529   8.618 -1.4618 -0.2046 -1.9450
  189POPC   C3321808   5.977   5.713  10.196 -0.4920  0.0064 -0.8999
  189POPC   H3X21809   6.016   5.615  10.162  2.9517  0.7128  0.6140
  189POPC   H3Y21810   6.066   5.774  10.223 -0.2217 -1.0356  0.6598
  189POPC   C3421811   5.917   5.775  10.069  0.4369  0.1675  0.1034
  189POPC   H4X21812   5.895   5.884  10.070 -0.5447 -0.0217  1.0121
  189POPC   H4Y21813   5.817   5.728  10.051  1.3050 -2.5686  1.7931
  189POPC   C3521814   5.981   5.732   9.939  0.3908 -0.5868  0.6947
  189POPC   H5X21815   5.982   5.621   9.930  0.7702 -0.7526  2.5503
  189POPC   H5Y21816   6.087   5.766   9.941 -0.3074  1.7538  2.6285
  189POPC   C3621817   5.907   5.790   9.814  0.1292  0.5754 -0.0816
  189POPC   H6X21818   5.907   5.901   9.824  0.1407  0.5398  0.3255
  189POPC   H6Y21819   5.802   5.754   9.808 -0.1123  0.8849  1.6176
  189POPC   C3721820   5.979   5.748   9.685 -0.2447 -0.3486 -0.6713
  189POPC   H7X21821   5.966   5.640   9.660  0.3892 -0.7329  0.5252
  189POPC   H7Y21822   6.088   5.762   9.699 -0.2188 -1.7526  0.9924
  189POPC   C3821823   5.924   5.832   9.567  0.8363  0.1343  0.2593
  189POPC   H8X21824   5.924   5.940   9.595  1.1927 -0.0509  1.0016
  189POPC   H8Y21825   5.818   5.799   9.572  0.1563  2.1401  0.1243
  189POPC   C3921826   5.986   5.804   9.430 -0.0766  0.0626  0.2629
  189POPC   H9X21827   5.968   5.700   9.392 -0.0263 -0.1815  0.8940
  189POPC   H9Y21828   6.095   5.823   9.433 -0.1698  0.5301  1.1537
  189POPC  C31021829   5.915   5.888   9.324  0.2397  0.5059  0.1804
  189POPC  H10X21830   5.940   5.994   9.348  1.3405  0.2429  0.2085
  189POPC  H10Y21831   5.804   5.889   9.333  0.3530  2.1297  2.1379
  189POPC  C31121832   5.971   5.879   9.184  0.4201 -0.0049 -0.7456
  189POPC  H11X21833   5.961   5.775   9.147 -0.1295 -0.9872  1.9488
  189POPC  H11Y21834   6.080   5.895   9.179  0.2222  1.7569 -0.1100
  189POPC  C31221835   5.910   5.975   9.075 -0.1352  0.4594 -1.0813
  189POPC  H12X21836   5.906   6.076   9.121  2.1112  0.3675 -0.5715
  189POPC  H12Y21837   5.808   5.936   9.052  0.2568  0.5602 -3.2035
  189POPC  C31321838   5.995   5.994   8.951 -0.0068 -0.3385  0.3370
  189POPC  H13X21839   5.998   5.904   8.885 -0.4643 -1.2183  1.4910
  189POPC  H13Y21840   6.100   6.023   8.974 -0.2959  0.7903  0.2733
  189POPC  C31421841   5.950   6.124   8.875  0.6439  0.0403  0.1494
  189POPC  H14X21842   5.934   6.211   8.942 -1.0751  1.5150 -1.9971
  189POPC  H14Y21843   5.848   6.109   8.832 -0.7295  0.6545  2.9872
  189POPC  C31521844   6.048   6.164   8.768  0.0267 -0.8342 -0.1147
  189POPC  H15X21845   6.033   6.083   8.694  0.4384 -1.6535  0.6718
  189POPC  H15Y21846   6.151   6.161   8.809 -0.4474  0.0222  1.2001
  189POPC  C31621847   6.033   6.307   8.703 -0.2082  0.2410 -0.4643
  189POPC  H16X21848   6.049   6.379   8.786  1.3023 -1.3224  0.6604
  189POPC  H16Y21849   5.929   6.324   8.668 -1.2391  0.0744  2.2248
  189POPC  H16Z21850   6.104   6.311   8.618 -1.7325 -0.1150 -1.8052
  190POPC     N21851   2.873   4.461  11.158  0.1915 -0.3901  0.0120
  190POPC   C1221852   2.810   4.326  11.184 -0.6327  0.6248 -1.0281
  190POPC  H12A21853   2.785   4.328  11.289  1.7696 -1.2129 -0.3174
  190POPC  H12B21854   2.891   4.255  11.172  1.7197  2.8346  0.6397
  190POPC   C1321855   2.781   4.564  11.208  0.9317 -0.4053  0.4100
  190POPC  H13A21856   2.756   4.560  11.313 -2.6289  3.1902 -0.0507
  190POPC  H13B21857   2.831   4.657  11.184  1.3517 -1.0496 -1.3652
  190POPC  H13C21858   2.690   4.557  11.150  0.3447 -0.3873  1.3131
  190POPC   C1421859   3.003   4.464  11.239 -0.0621  0.0394 -0.6317
  190POPC  H14A21860   2.976   4.458  11.344  0.6952 -1.1919 -0.4861
  190POPC  H14B21861   3.067   4.383  11.211 -0.9817 -0.9640  0.0923
  190POPC  H14C21862   3.043   4.563  11.224  0.1224  0.1781  0.6150
  190POPC   C1521863   2.920   4.496  11.021  0.3814  0.1587 -1.1540
  190POPC  H15A21864   3.006   4.433  11.004  1.3163  1.2158 -0.5014
  190POPC  H15B21865   2.965   4.594  11.013  3.2633 -0.9635 -0.3141
  190POPC  H15C21866   2.849   4.472  10.943 -1.4187  1.2389  0.0900
  190POPC   C1121867   2.686   4.291  11.101 -0.0934 -0.0166  0.6217
  190POPC  H11A21868   2.611   4.374  11.100 -0.2792 -0.1769 -0.8347
  190POPC  H11B21869   2.642   4.204  11.153 -0.3152  0.2221  0.8407
  190POPC     P21870   2.795   4.154  10.902 -0.2661 -0.3929  0.1008
  190POPC   O1321871   2.779   4.032  10.989  0.2896  0.2715  0.1599
  190POPC   O1421872   2.935   4.204  10.885  0.3310 -0.0743 -0.2784
  190POPC   O1221873   2.715   4.271  10.963 -0.0507  0.3222 -0.1589
  190POPC   O1121874   2.733   4.128  10.763  0.5524  0.4817  0.3535
  190POPC    C121875   2.695   3.995  10.718 -0.1908 -0.6608  0.6932
  190POPC    HA21876   2.602   3.972  10.774 -0.0272 -0.2655  1.1360
  190POPC    HB21877   2.780   3.930  10.747 -1.4499 -2.6139  0.1754
  190POPC    C221878   2.665   3.986  10.566  0.0199 -0.4360  0.2713
  190POPC    HS21879   2.645   3.882  10.531 -0.5193  1.0247 -4.5759
  190POPC   O2121880   2.782   4.030  10.491  0.3229 -0.3387  0.1401
  190POPC   C2121881   2.869   3.935  10.479 -0.2464  0.3756 -0.0882
  190POPC   O2221882   2.865   3.814  10.521 -0.1592 -0.0346 -0.1825
  190POPC   C2221883   2.977   3.982  10.385 -0.2942  0.2107 -0.2509
  190POPC   H2R21884   3.073   3.929  10.402  0.0518  1.4620  2.0310
  190POPC   H2S21885   3.003   4.083  10.422 -0.1466 -0.2338  0.9291
  190POPC    C321886   2.549   4.081  10.529  0.2679 -0.1027  0.1974
  190POPC    HX21887   2.567   4.187  10.556  1.9761 -0.7415  1.8200
  190POPC    HY21888   2.467   4.048  10.596  1.9417 -1.3541  1.7141
  190POPC   O3121889   2.503   4.064  10.393 -0.5647 -0.2619  0.9044
  190POPC   C3121890   2.566   4.138  10.308  0.4215 -0.1223  0.2823
  190POPC   O3221891   2.626   4.240  10.333 -0.1501  0.1827 -0.2692
  190POPC   C3221892   2.556   4.079  10.164 -0.0588 -0.1120  0.1658
  190POPC   H2X21893   2.446   4.083  10.152 -0.1615  2.0008  1.3566
  190POPC   H2Y21894   2.589   3.973  10.168  0.2319  0.0203  2.5825
  190POPC   C2321895   2.940   4.000  10.239 -0.4630 -0.3163  0.3676
  190POPC   H3R21896   3.015   4.065  10.189 -0.8125 -0.0728  0.1523
  190POPC   H3S21897   2.844   4.056  10.233 -0.1082  0.3489  0.7915
  190POPC   C2421898   2.947   3.873  10.150 -0.5024 -0.1741 -0.2169
  190POPC   H4R21899   2.857   3.814  10.178 -0.7453 -1.2155 -2.9185
  190POPC   H4S21900   3.038   3.810  10.157 -0.5470 -0.5505 -2.4913
  190POPC   C2521901   2.941   3.909   9.995  0.5918  0.4424 -0.3311
  190POPC   H5R21902   3.037   3.961   9.974  1.3652 -0.8364 -0.0610
  190POPC   H5S21903   2.853   3.974   9.980  0.6285  1.1850  2.1875
  190POPC   C2621904   2.931   3.784   9.900  0.4302  0.3220 -0.2729
  190POPC   H6R21905   2.836   3.732   9.924  0.9659  0.8521  3.5907
  190POPC   H6S21906   3.010   3.707   9.916  0.2625  0.2038 -0.0111
  190POPC   C2721907   2.947   3.836   9.751  0.1322 -0.0063  0.3842
  190POPC   H7R21908   3.051   3.876   9.744  0.3388 -0.7255 -1.1643
  190POPC   H7S21909   2.875   3.919   9.738 -0.1537 -0.2950  0.1035
  190POPC   C2821910   2.924   3.732   9.646 -1.0661 -0.4046 -0.2929
  190POPC   H8R21911   2.823   3.687   9.652 -0.7400 -1.0817  0.3035
  190POPC   H8S21912   2.991   3.648   9.674  0.1074 -0.3455 -2.6821
  190POPC   C2921913   2.941   3.792   9.513  0.0461 -0.1987 -0.0844
  190POPC   H9121914   2.891   3.889   9.496  0.6560 -0.0679 -1.2829
  190POPC  C21021915   3.007   3.742   9.409  0.5071  0.0559 -1.1136
  190POPC  H10121916   3.002   3.789   9.310  0.4772 -1.1814 -1.7278
  190POPC  C21121917   3.084   3.618   9.400 -0.6197  0.5656 -0.0428
  190POPC  H11R21918   3.016   3.531   9.389  1.4145 -1.2508  0.9204
  190POPC  H11S21919   3.148   3.597   9.488  2.7494 -0.6246 -2.5704
  190POPC  C21221920   3.195   3.624   9.292 -0.1863  0.3012 -0.5310
  190POPC  H12R21921   3.143   3.607   9.195  0.9323  0.2541 -1.1460
  190POPC  H12S21922   3.260   3.534   9.302 -0.8953 -0.2335 -0.6997
  190POPC  C21321923   3.287   3.742   9.289  0.2824  0.0119 -0.3583
  190POPC  H13R21924   3.325   3.757   9.392 -0.0055 -0.8510 -0.1191
  190POPC  H13S21925   3.225   3.827   9.253 -1.7854 -1.7029 -1.0503
  190POPC  C21421926   3.406   3.738   9.191 -0.1375 -0.5239 -0.3989
  190POPC  H14R21927   3.477   3.657   9.218  1.0042  0.1654 -1.2605
  190POPC  H14S21928   3.475   3.824   9.210  0.8005 -1.4664  0.6514
  190POPC  C21521929   3.366   3.725   9.042  0.4836  0.0894  0.2439
  190POPC  H15R21930   3.285   3.797   9.020  0.6726  0.6676  1.3739
  190POPC  H15S21931   3.312   3.629   9.025  0.7074  0.0018  0.0330
  190POPC  C21621932   3.477   3.748   8.935 -0.1447  1.1670  0.2058
  190POPC  H16R21933   3.544   3.663   8.957 -0.8594  0.0061 -1.8773
  190POPC  H16S21934   3.526   3.844   8.962  0.6876  0.9044 -0.3513
  190POPC  C21721935   3.441   3.746   8.787 -0.6230 -0.4319  0.2213
  190POPC  H17R21936   3.531   3.729   8.724  0.7772  1.4298  1.6312
  190POPC  H17S21937   3.405   3.846   8.757  0.4310 -0.5165 -1.4837
  190POPC  C21821938   3.334   3.646   8.749  0.4376 -0.5820  0.0427
  190POPC  H18R21939   3.346   3.630   8.640 -0.2923 -0.1126 -0.1152
  190POPC  H18S21940   3.233   3.685   8.772  0.2558 -0.3371 -1.0945
  190POPC  H18T21941   3.349   3.544   8.789  2.6465  0.1046  1.1646
  190POPC   C3321942   2.620   4.162  10.052 -0.5514 -0.9075  0.3544
  190POPC   H3X21943   2.729   4.141  10.055 -0.8543 -2.9647 -1.0874
  190POPC   H3Y21944   2.586   4.267  10.069 -1.0506 -1.0744  0.3933
  190POPC   C3421945   2.589   4.106   9.913  0.2045 -0.1816 -0.0559
  190POPC   H4X21946   2.480   4.113   9.891 -0.1452 -0.0861  1.5975
  190POPC   H4Y21947   2.610   3.997   9.903 -1.3564 -0.4396 -0.8453
  190POPC   C3521948   2.665   4.177   9.799 -0.4912  0.3322 -0.1285
  190POPC   H5X21949   2.771   4.145   9.801 -0.4118  0.4931  2.6571
  190POPC   H5Y21950   2.648   4.285   9.817 -2.4684  0.1134 -0.3938
  190POPC   C3621951   2.604   4.136   9.667 -0.0592  0.0610 -0.3741
  190POPC   H6X21952   2.505   4.186   9.670  0.4602  1.1517 -0.9142
  190POPC   H6Y21953   2.601   4.025   9.675 -0.2026  0.1724  1.4972
  190POPC   C3721954   2.681   4.186   9.547 -0.1828  0.1053 -0.1278
  190POPC   H7X21955   2.773   4.127   9.525  1.5076  1.5814  2.3785
  190POPC   H7Y21956   2.709   4.294   9.553 -0.1066  0.1720 -1.3873
  190POPC   C3821957   2.594   4.165   9.418  0.0872  0.8131 -0.8712
  190POPC   H8X21958   2.492   4.209   9.428 -0.0770  0.7569 -2.1306
  190POPC   H8Y21959   2.575   4.057   9.406 -1.4547  0.9952 -0.3049
  190POPC   C3921960   2.661   4.226   9.296 -0.1359  0.7775 -0.1454
  190POPC   H9X21961   2.757   4.172   9.285 -1.0067 -0.6285 -1.1636
  190POPC   H9Y21962   2.677   4.335   9.310  2.8346  0.7621 -2.3684
  190POPC  C31021963   2.596   4.188   9.156  0.4204  0.4570  0.8355
  190POPC  H10X21964   2.508   4.253   9.138  1.1368  1.0186 -0.8280
  190POPC  H10Y21965   2.549   4.092   9.183  0.2871  0.9097  2.3191
  190POPC  C31121966   2.695   4.194   9.039 -0.1833  0.0067  0.0348
  190POPC  H11X21967   2.784   4.133   9.064 -0.2047 -1.0251 -2.2248
  190POPC  H11Y21968   2.715   4.303   9.030 -0.5649  0.1223  0.4839
  190POPC  C31221969   2.630   4.162   8.905 -0.5845 -0.2385  0.5577
  190POPC  H12X21970   2.520   4.174   8.905 -0.8698 -2.2433  2.5218
  190POPC  H12Y21971   2.645   4.055   8.880 -2.7701 -0.2696 -0.8367
  190POPC  C31321972   2.681   4.251   8.789  0.5339 -0.3802  0.8529
  190POPC  H13X21973   2.792   4.254   8.793  0.7652 -1.4062 -2.3066
  190POPC  H13Y21974   2.648   4.356   8.807  1.4852  0.1537 -0.3956
  190POPC  C31421975   2.641   4.212   8.641  0.0653 -0.5079  0.0086
  190POPC  H14X21976   2.656   4.293   8.566 -1.3447  0.3628  0.6259
  190POPC  H14Y21977   2.531   4.194   8.632 -0.3007  1.3790  0.2761
  190POPC  C31521978   2.699   4.078   8.594 -0.0097  0.6683  0.0800
  190POPC  H15X21979   2.645   4.050   8.501  0.5519 -0.3314  0.0413
  190POPC  H15Y21980   2.654   4.009   8.668 -2.0763  2.3993  0.5400
  190POPC  C31621981   2.851   4.066   8.574  0.5160  0.0286 -0.1534
  190POPC  H16X21982   2.881   3.966   8.535 -0.2599  0.0289 -0.7852
  190POPC  H16Y21983   2.909   4.094   8.664  1.3499  0.1341 -0.7067
  190POPC  H16Z21984   2.879   4.129   8.487 -0.7397  2.2931  1.0146
  191POPC     N21985   4.427   4.096   6.148 -0.6373  0.0833 -0.6088
  191POPC   C1221986   4.501   4.109   6.277  0.7368 -0.1411 -0.3627
  191POPC  H12A21987   4.437   4.098   6.363  1.6556  0.3463  0.4008
  191POPC  H12B21988   4.534   4.212   6.275 -0.7689  0.3712 -1.6479
  191POPC   C1321989   4.375   3.957   6.134  0.4975  0.3967 -0.3667
  191POPC  H13A21990   4.455   3.898   6.092 -1.7113 -1.1884 -2.6383
  191POPC  H13B21991   4.338   3.901   6.219  1.0030 -1.2868 -1.2053
  191POPC  H13C21992   4.307   3.951   6.050  0.0984  1.3236 -0.1154
  191POPC   C1421993   4.308   4.186   6.149  0.1399  0.2219 -0.3074
  191POPC  H14A21994   4.244   4.164   6.066 -2.8136  0.1188  1.8504
  191POPC  H14B21995   4.247   4.174   6.238 -0.5227  0.7586 -0.6876
  191POPC  H14C21996   4.342   4.288   6.140  1.4684 -0.2713 -1.2304
  191POPC   C1521997   4.513   4.139   6.036 -0.4652 -0.3985  0.2896
  191POPC  H15A21998   4.579   4.058   6.010  2.6948  2.8636 -3.0551
  191POPC  H15B21999   4.570   4.228   6.057  0.8533 -1.5729  2.0198
  191POPC  H15C22000   4.458   4.150   5.944  0.6790 -0.0724 -0.3704
  191POPC   C1122001   4.616   4.004   6.292 -0.3672  0.1378 -0.3648
  191POPC  H11A22002   4.685   4.041   6.371 -0.2773  0.2074 -0.4758
  191POPC  H11B22003   4.675   4.006   6.198 -0.5678  1.2365 -0.4820
  191POPC     P22004   4.556   3.811   6.471  0.4082 -0.3627 -0.0538
  191POPC   O1322005   4.616   3.677   6.473 -0.6806 -0.1182  0.1342
  191POPC   O1422006   4.409   3.820   6.505 -0.7951  0.1623 -0.1696
  191POPC   O1222007   4.571   3.872   6.327  0.4621 -0.2819 -0.1143
  191POPC   O1122008   4.636   3.911   6.561 -0.1919  0.1905  0.0633
  191POPC    C122009   4.772   3.890   6.597  0.2487  0.1559 -0.7485
  191POPC    HA22010   4.847   3.877   6.517  1.5788  1.3514  0.2460
  191POPC    HB22011   4.779   3.792   6.648  1.5779  0.7281  0.2388
  191POPC    C222012   4.825   3.983   6.714 -0.4489 -0.0087  0.3719
  191POPC    HS22013   4.914   3.929   6.752 -0.4337 -0.8599 -0.7887
  191POPC   O2122014   4.725   4.010   6.816 -0.1561  0.0920  0.4990
  191POPC   C2122015   4.696   3.911   6.893  0.2524  0.2827  0.1833
  191POPC   O2222016   4.756   3.805   6.904 -0.5183  0.4216  0.0349
  191POPC   C2222017   4.557   3.946   6.957 -0.0922  0.1930  0.4763
  191POPC   H2R22018   4.480   3.899   6.892  0.7268 -1.8255  0.8693
  191POPC   H2S22019   4.533   4.053   6.940 -2.6680 -0.7210 -2.7785
  191POPC    C322020   4.867   4.118   6.640  0.1338 -0.2730 -0.4224
  191POPC    HX22021   4.774   4.163   6.599  0.7308 -1.1231 -2.8708
  191POPC    HY22022   4.932   4.098   6.552 -0.4320 -1.2565 -0.6299
  191POPC   O3122023   4.928   4.204   6.735 -0.0499 -0.3352  0.2667
  191POPC   C3122024   5.049   4.169   6.760  0.2578  0.0293  0.8547
  191POPC   O3222025   5.120   4.090   6.700 -0.0312  0.3220  0.2749
  191POPC   C3222026   5.103   4.224   6.886  0.5331 -0.7635 -0.7384
  191POPC   H2X22027   5.113   4.334   6.885 -1.4449 -0.5260  0.3451
  191POPC   H2Y22028   5.199   4.175   6.913 -0.7309 -2.1412  1.5291
  191POPC   C2322029   4.537   3.899   7.099 -0.0460 -0.6904 -0.1138
  191POPC   H3R22030   4.581   3.800   7.122  1.2288  0.3548  2.3762
  191POPC   H3S22031   4.430   3.902   7.128  1.0456  1.0523  4.7539
  191POPC   C2422032   4.602   3.995   7.195 -0.3275  0.4626  0.8516
  191POPC   H4R22033   4.560   4.095   7.173 -1.3650 -0.3178 -0.9471
  191POPC   H4S22034   4.709   3.998   7.167 -1.1921  1.2806 -2.9219
  191POPC   C2522035   4.586   3.978   7.344 -0.1761  0.2636  0.3674
  191POPC   H5R22036   4.480   3.955   7.369  0.1039 -2.3103 -0.5469
  191POPC   H5S22037   4.610   4.072   7.398 -0.4863 -0.4193  1.7713
  191POPC   C2622038   4.664   3.858   7.394  0.0003  0.0633  0.2496
  191POPC   H6R22039   4.773   3.881   7.387  0.0076  0.6923  1.9354
  191POPC   H6S22040   4.641   3.770   7.331  0.2018  0.8353 -0.9339
  191POPC   C2722041   4.631   3.820   7.541  0.8629 -0.6589  0.1596
  191POPC   H7R22042   4.524   3.789   7.545  1.1488 -1.6737  0.0016
  191POPC   H7S22043   4.623   3.911   7.605 -1.6700 -0.5838 -0.1545
  191POPC   C2822044   4.726   3.721   7.610  0.2736  0.4879 -0.0370
  191POPC   H8R22045   4.821   3.769   7.641  2.3513 -2.1135 -1.8980
  191POPC   H8S22046   4.755   3.650   7.529 -1.7870  0.0661 -0.4734
  191POPC   C2922047   4.668   3.627   7.717  0.2578 -0.2234 -0.0617
  191POPC   H9122048   4.626   3.534   7.676 -0.5067 -0.3630  0.9888
  191POPC  C21022049   4.646   3.641   7.851  0.2385  0.0409 -0.1717
  191POPC  H10122050   4.592   3.572   7.918 -2.1246  0.8614 -1.1594
  191POPC  C21122051   4.711   3.756   7.925  0.8148  0.1421 -0.6720
  191POPC  H11R22052   4.622   3.817   7.951  0.7656 -0.7311  1.4195
  191POPC  H11S22053   4.788   3.811   7.867  1.2728  2.0596  1.6120
  191POPC  C21222054   4.779   3.708   8.059  0.2451  1.0288  0.6033
  191POPC  H12R22055   4.861   3.641   8.028 -0.3854 -0.9407  2.8462
  191POPC  H12S22056   4.712   3.640   8.117  2.3393 -2.0533 -0.3704
  191POPC  C21322057   4.826   3.824   8.139 -0.2149 -0.0749  0.3036
  191POPC  H13R22058   4.738   3.889   8.157  0.5240  0.3986  2.4513
  191POPC  H13S22059   4.913   3.872   8.088 -1.6101  2.4019  0.1002
  191POPC  C21422060   4.885   3.777   8.269 -0.4461  0.2057  0.2662
  191POPC  H14R22061   4.955   3.694   8.244 -0.1911 -0.1120  1.9163
  191POPC  H14S22062   4.808   3.728   8.332 -0.3204 -0.8906 -0.4021
  191POPC  C21522063   4.958   3.879   8.351 -0.2636  0.3709  1.0695
  191POPC  H15R22064   4.876   3.952   8.369 -0.9446  0.4807 -1.9659
  191POPC  H15S22065   5.038   3.921   8.286 -1.5478 -1.4675 -1.8937
  191POPC  C21622066   5.011   3.827   8.484 -0.2483  0.4609 -1.7686
  191POPC  H16R22067   5.082   3.744   8.460  0.0737  0.4767 -0.8992
  191POPC  H16S22068   4.931   3.776   8.541 -1.0720  0.2653 -3.0591
  191POPC  C21722069   5.076   3.932   8.580 -0.7216  0.2626  0.0805
  191POPC  H17R22070   5.004   4.014   8.601 -1.7899  0.0403 -2.3755
  191POPC  H17S22071   5.159   3.977   8.522  0.0763 -2.7930 -1.3583
  191POPC  C21822072   5.126   3.876   8.710 -0.8612  0.4056 -0.8217
  191POPC  H18R22073   5.176   3.952   8.772 -1.8999  0.4686 -0.0372
  191POPC  H18S22074   5.200   3.795   8.691  1.2434  2.2492 -0.7903
  191POPC  H18T22075   5.038   3.845   8.770  0.0376 -0.0814  0.2603
  191POPC   C3322076   5.001   4.193   7.003 -0.0353 -0.5600 -0.9177
  191POPC   H3X22077   4.958   4.090   7.002 -3.1042  0.4388  3.0334
  191POPC   H3Y22078   4.917   4.266   7.001 -0.3215 -0.7589  1.3355
  191POPC   C3422079   5.067   4.215   7.139  0.3699 -0.0073  0.9290
  191POPC   H4X22080   5.110   4.318   7.138  1.5919 -0.4931 -0.0548
  191POPC   H4Y22081   5.156   4.148   7.142 -0.0030 -0.8944 -2.5423
  191POPC   C3522082   4.963   4.198   7.254 -0.1921  0.1907  0.0104
  191POPC   H5X22083   4.917   4.098   7.243  0.8245 -0.2844 -0.0793
  191POPC   H5Y22084   4.881   4.271   7.237  0.0540  0.4880  0.0802
  191POPC   C3622085   5.024   4.215   7.392 -0.4726 -0.1217  0.0882
  191POPC   H6X22086   5.058   4.318   7.413 -0.3931 -0.7308  3.4640
  191POPC   H6Y22087   5.116   4.152   7.400 -0.3530  0.1567  0.9857
  191POPC   C3722088   4.927   4.184   7.506  0.1629  0.6161 -0.6819
  191POPC   H7X22089   4.925   4.073   7.509 -0.3700  0.6498  1.0221
  191POPC   H7Y22090   4.829   4.220   7.468  0.7125  1.9436 -0.9218
  191POPC   C3822091   4.964   4.233   7.650  0.7824 -0.2692  0.1233
  191POPC   H8X22092   4.986   4.342   7.648  0.1416 -0.1398 -0.9565
  191POPC   H8Y22093   5.048   4.184   7.704  0.0236  0.4958  2.0964
  191POPC   C3922094   4.844   4.219   7.748  0.1428 -0.7958  0.1605
  191POPC   H9X22095   4.779   4.130   7.733 -1.7428  0.6449 -0.7361
  191POPC   H9Y22096   4.771   4.300   7.726 -1.5237 -2.0910  0.7294
  191POPC  C31022097   4.889   4.242   7.884 -1.2847 -0.2005 -0.2255
  191POPC  H10X22098   4.952   4.332   7.900  0.9243 -1.6990 -0.0272
  191POPC  H10Y22099   4.960   4.158   7.903  2.4265  2.3869 -1.3872
  191POPC  C31122100   4.767   4.243   7.974 -0.3769  0.8984 -0.2531
  191POPC  H11X22101   4.693   4.168   7.939 -1.3553  0.9549  1.5684
  191POPC  H11Y22102   4.710   4.338   7.973 -0.4665  0.8441 -0.2484
  191POPC  C31222103   4.795   4.214   8.119  0.4784  0.0338 -0.2906
  191POPC  H12X22104   4.871   4.283   8.160 -0.1986  0.6031  0.0244
  191POPC  H12Y22105   4.829   4.111   8.140 -0.6846  0.0034  1.7247
  191POPC  C31322106   4.665   4.242   8.206  0.1730  0.0934  0.1347
  191POPC  H13X22107   4.586   4.186   8.151  0.5725 -0.2599 -0.0841
  191POPC  H13Y22108   4.649   4.350   8.221 -1.7364 -0.4236  2.4305
  191POPC  C31422109   4.669   4.178   8.351 -0.1095 -0.7594  0.1312
  191POPC  H14X22110   4.675   4.068   8.338  3.7509 -0.3995 -3.0954
  191POPC  H14Y22111   4.576   4.204   8.407 -0.7319 -1.3138 -0.6135
  191POPC  C31522112   4.787   4.227   8.427  0.1461  0.3466 -0.6497
  191POPC  H15X22113   4.786   4.338   8.432  0.1871  0.2997  2.5342
  191POPC  H15Y22114   4.883   4.185   8.389 -0.6989 -1.4836 -0.8413
  191POPC  C31622115   4.785   4.189   8.582 -0.4293 -0.5474  0.1218
  191POPC  H16X22116   4.690   4.211   8.635  0.6550  1.4822  1.3638
  191POPC  H16Y22117   4.877   4.226   8.631 -0.0505 -0.5708 -0.5555
  191POPC  H16Z22118   4.788   4.078   8.583  0.4478 -0.5718 -1.6097
  192POPC     N22119   2.772   5.842   5.825 -0.3079 -0.4749 -0.3893
  192POPC   C1222120   2.740   5.842   5.973  0.8731 -0.0910 -0.1652
  192POPC  H12A22121   2.660   5.911   5.993  0.6132 -0.4080 -0.0837
  192POPC  H12B22122   2.816   5.895   6.028 -2.0583  1.5161  2.6387
  192POPC   C1322123   2.812   5.970   5.764  0.1956  0.2540 -0.4447
  192POPC  H13A22124   2.851   5.960   5.663  2.9113 -1.0309  0.6379
  192POPC  H13B22125   2.730   6.040   5.772  0.4992  0.3568  2.8151
  192POPC  H13C22126   2.894   6.020   5.813 -1.1150  1.1482  0.9096
  192POPC   C1422127   2.901   5.765   5.799  0.4700 -0.7559  0.4242
  192POPC  H14A22128   2.982   5.818   5.848 -0.3584  1.4930 -0.5089
  192POPC  H14B22129   2.888   5.666   5.841  2.2030 -0.4673  1.7882
  192POPC  H14C22130   2.920   5.760   5.693  0.4505 -0.9187  0.4282
  192POPC   C1522131   2.665   5.775   5.748  0.5973  1.2944 -0.2151
  192POPC  H15A22132   2.662   5.669   5.770 -0.1150  1.2900 -0.3230
  192POPC  H15B22133   2.700   5.777   5.645  0.1993 -0.1187 -0.3975
  192POPC  H15C22134   2.564   5.811   5.747 -0.7606 -2.0775  0.9009
  192POPC   C1122135   2.728   5.709   6.051 -0.0618  0.5118  0.4081
  192POPC  H11A22136   2.726   5.736   6.159 -0.2421  2.2942 -0.0230
  192POPC  H11B22137   2.828   5.662   6.042  0.1874  1.1250 -0.0987
  192POPC     P22138   2.469   5.664   6.031  0.2619  0.0675 -0.0659
  192POPC   O1322139   2.375   5.572   5.967  0.3215  0.2897 -0.0570
  192POPC   O1422140   2.452   5.811   6.019 -0.1456  0.0821  1.0112
  192POPC   O1222141   2.624   5.624   6.004 -0.7276 -0.4003 -0.2458
  192POPC   O1122142   2.466   5.634   6.188  0.1220  0.2300 -0.3103
  192POPC    C122143   2.464   5.504   6.233 -0.0167 -0.4866 -0.7126
  192POPC    HA22144   2.543   5.435   6.195 -0.8418 -1.7208 -0.2741
  192POPC    HB22145   2.366   5.464   6.200  0.1687 -0.5183 -1.2377
  192POPC    C222146   2.472   5.500   6.391  0.1698 -0.4930  0.2947
  192POPC    HS22147   2.481   5.396   6.430  0.2696  0.3984  2.8260
  192POPC   O2122148   2.351   5.561   6.438  1.1768  0.5645 -0.7182
  192POPC   C2122149   2.249   5.486   6.470 -0.3485 -0.2770 -0.2618
  192POPC   O2222150   2.237   5.366   6.446  0.1087  0.0276  0.0377
  192POPC   C2222151   2.146   5.567   6.540 -0.2915  0.0170  0.9335
  192POPC   H2R22152   2.057   5.573   6.474  0.8477  0.4387 -0.6411
  192POPC   H2S22153   2.181   5.672   6.555 -3.1494  1.0969  0.6815
  192POPC    C322154   2.594   5.585   6.451  0.0531 -0.2600  0.3817
  192POPC    HX22155   2.573   5.691   6.427 -2.0842 -0.7297 -0.0771
  192POPC    HY22156   2.694   5.549   6.417 -0.0565 -0.8992  0.7207
  192POPC   O3122157   2.593   5.588   6.598 -0.2528  0.2885 -0.7500
  192POPC   C3122158   2.645   5.479   6.651  0.3306 -0.5588 -0.5418
  192POPC   O3222159   2.685   5.380   6.591  0.2343 -0.3028  0.4226
  192POPC   C3222160   2.636   5.506   6.803 -0.4489  0.8970 -0.0391
  192POPC   H2X22161   2.542   5.452   6.830  0.4239 -0.7922 -0.2606
  192POPC   H2Y22162   2.613   5.613   6.822 -1.1323  1.0726 -1.7004
  192POPC   C2322163   2.095   5.507   6.675  1.2925  0.7155  0.3960
  192POPC   H3R22164   2.091   5.396   6.673 -1.3778  0.7438  0.9778
  192POPC   H3S22165   1.991   5.541   6.691  0.3505 -2.2781  1.3506
  192POPC   C2422166   2.188   5.543   6.793  0.1963 -0.3278  0.0338
  192POPC   H4R22167   2.293   5.526   6.761  0.7399  0.4216  1.3376
  192POPC   H4S22168   2.179   5.469   6.875  1.4001  0.6993  1.1325
  192POPC   C2522169   2.167   5.685   6.833 -0.3093 -0.4178  0.0426
  192POPC   H5R22170   2.072   5.705   6.886  0.6093  1.9379  0.9311
  192POPC   H5S22171   2.153   5.755   6.749 -2.1690 -2.3727 -1.3773
  192POPC   C2622172   2.289   5.740   6.916  0.0817  0.6763 -0.0104
  192POPC   H6R22173   2.250   5.837   6.954 -0.3189  0.1133  1.0456
  192POPC   H6S22174   2.374   5.759   6.846  0.8179  1.2157  1.0090
  192POPC   C2722175   2.342   5.645   7.019  0.6480  0.3455 -0.8942
  192POPC   H7R22176   2.361   5.542   6.982  1.0191 -0.7607  2.1070
  192POPC   H7S22177   2.260   5.633   7.094 -0.4059 -1.0798 -2.2123
  192POPC   C2822178   2.469   5.708   7.085 -0.0256 -0.8044 -1.2877
  192POPC   H8R22179   2.439   5.809   7.118 -0.1108 -2.0080  2.9585
  192POPC   H8S22180   2.550   5.716   7.009 -0.1413 -0.8446 -1.4147
  192POPC   C2922181   2.513   5.626   7.205  0.2696 -0.3069 -0.7163
  192POPC   H9122182   2.496   5.518   7.193  1.0823 -0.8075  1.8967
  192POPC  C21022183   2.552   5.665   7.330  0.5620  1.2168  0.5421
  192POPC  H10122184   2.601   5.588   7.392  1.5634  2.2808  1.1218
  192POPC  C21122185   2.554   5.800   7.383  0.2262 -1.5528  0.3977
  192POPC  H11R22186   2.509   5.870   7.310  0.4332 -0.4875  1.2669
  192POPC  H11S22187   2.655   5.843   7.397 -0.5615  0.3222  0.5849
  192POPC  C21222188   2.485   5.817   7.516 -0.5833 -0.6288 -1.0005
  192POPC  H12R22189   2.376   5.793   7.520 -0.9040  0.8366  1.1859
  192POPC  H12S22190   2.477   5.922   7.552  1.7839 -1.6044  2.9443
  192POPC  C21322191   2.541   5.741   7.631  0.2305  0.5885 -0.2014
  192POPC  H13R22192   2.651   5.753   7.637  0.0985  1.2754  1.7687
  192POPC  H13S22193   2.527   5.637   7.597  1.3556 -0.0159  1.0761
  192POPC  C21422194   2.478   5.755   7.768 -0.2060 -0.9441  0.5121
  192POPC  H14R22195   2.508   5.669   7.832  0.2376 -0.1566  1.3892
  192POPC  H14S22196   2.369   5.763   7.751 -0.1983  0.9419  1.1172
  192POPC  C21522197   2.512   5.880   7.847 -0.9129 -0.0259 -0.1501
  192POPC  H15R22198   2.463   5.970   7.804 -3.3442 -1.7672 -1.2724
  192POPC  H15S22199   2.618   5.904   7.824 -0.7619 -0.4443  0.0879
  192POPC  C21622200   2.501   5.861   7.998  0.4423  0.1671  0.7442
  192POPC  H16R22201   2.578   5.788   8.031 -1.2989 -1.1210  2.2286
  192POPC  H16S22202   2.403   5.819   8.029  0.1718  0.4890  0.3361
  192POPC  C21722203   2.503   5.995   8.072  0.2943  0.2576  0.1738
  192POPC  H17R22204   2.429   6.069   8.036  1.9366  1.3214 -1.0945
  192POPC  H17S22205   2.598   6.050   8.060 -0.1991  0.8512 -1.0856
  192POPC  C21822206   2.483   5.969   8.218 -0.1976  0.0451 -0.8380
  192POPC  H18R22207   2.481   6.058   8.284  3.5709 -1.4857  1.6759
  192POPC  H18S22208   2.565   5.915   8.271 -1.0007  1.9086  2.5867
  192POPC  H18T22209   2.387   5.914   8.232  0.3361 -0.9132 -0.8627
  192POPC   C3322210   2.757   5.456   6.893  0.3222  0.3180 -0.5703
  192POPC   H3X22211   2.761   5.345   6.888  0.6462  0.1942  1.5979
  192POPC   H3Y22212   2.728   5.487   6.995  1.1791  0.1473 -0.2613
  192POPC   C3422213   2.906   5.509   6.867  0.0424 -0.2745  0.4836
  192POPC   H4X22214   2.929   5.489   6.761 -0.9507  0.3270  0.1445
  192POPC   H4Y22215   2.974   5.444   6.926 -1.6674 -2.0584  0.6195
  192POPC   C3522216   2.936   5.652   6.916  0.4931  0.7187  0.1719
  192POPC   H5X22217   2.869   5.727   6.868  1.2524  1.1726 -0.1854
  192POPC   H5Y22218   3.042   5.669   6.889  1.0046 -4.2444 -1.9287
  192POPC   C3622219   2.920   5.663   7.075 -0.1212  0.2291 -0.3766
  192POPC   H6X22220   2.974   5.587   7.136  0.5879  1.7382  0.9256
  192POPC   H6Y22221   2.815   5.642   7.104 -0.2970  0.4808 -0.8236
  192POPC   C3722222   2.968   5.800   7.124 -0.1774 -0.5353 -0.2365
  192POPC   H7X22223   2.890   5.870   7.089  2.0215  1.7574 -0.8111
  192POPC   H7Y22224   3.053   5.835   7.063 -1.5500  1.5768 -1.0361
  192POPC   C3822225   2.994   5.802   7.272 -0.8825 -0.0140 -0.7137
  192POPC   H8X22226   3.096   5.769   7.301 -0.6439  3.4273  3.1656
  192POPC   H8Y22227   2.925   5.729   7.320 -0.1578  0.8415  1.7408
  192POPC   C3922228   2.957   5.941   7.333  0.3220 -0.0646 -0.1776
  192POPC   H9X22229   2.859   5.982   7.300  0.7565  1.8852  0.8175
  192POPC   H9Y22230   3.027   6.018   7.294 -1.5614  1.4290 -0.7460
  192POPC  C31022231   2.964   5.947   7.483  0.1067 -0.2092  0.0917
  192POPC  H10X22232   2.867   5.919   7.529  0.6146  0.0480  1.3471
  192POPC  H10Y22233   2.977   6.052   7.515 -1.8583 -0.2306  1.1263
  192POPC  C31122234   3.068   5.860   7.546 -0.4659  0.1121  0.2877
  192POPC  H11X22235   3.165   5.865   7.493 -1.5233  2.1701 -1.6287
  192POPC  H11Y22236   3.035   5.755   7.554 -0.3803  0.1976  2.3049
  192POPC  C31222237   3.080   5.892   7.693  0.2864 -0.8587  0.3843
  192POPC  H12X22238   3.095   6.001   7.710 -0.5609 -0.7147  0.2393
  192POPC  H12Y22239   3.169   5.850   7.744  0.4142 -0.0797  0.8284
  192POPC  C31322240   2.954   5.864   7.773  0.0379  0.2159  0.9558
  192POPC  H13X22241   2.913   5.766   7.739  1.5820 -0.1396 -0.0388
  192POPC  H13Y22242   2.866   5.931   7.763  0.3538  0.7311  1.6131
  192POPC  C31422243   2.982   5.868   7.928  0.1759  0.6704 -0.1133
  192POPC  H14X22244   3.040   5.961   7.948  0.0918  0.4546  1.2136
  192POPC  H14Y22245   3.062   5.795   7.953  0.0944  0.5861 -0.0990
  192POPC  C31522246   2.850   5.844   8.005 -0.1421 -0.0230  0.1581
  192POPC  H15X22247   2.826   5.737   7.983  0.6285  0.2081 -2.0953
  192POPC  H15Y22248   2.772   5.906   7.958  0.2583 -1.0299 -1.9519
  192POPC  C31622249   2.861   5.858   8.156 -0.2685 -0.0256 -0.1597
  192POPC  H16X22250   2.915   5.770   8.198 -0.2805  0.2386  0.4266
  192POPC  H16Y22251   2.758   5.879   8.191 -0.3397  1.1420 -1.0203
  192POPC  H16Z22252   2.932   5.941   8.175 -1.8229  1.0703  1.1870
  193SOD    SOD22253   1.111   0.709   4.683  0.2542  0.1912  0.1778
  194SOD    SOD22254   6.240   0.245   5.889 -0.2119  0.2158 -0.3569
  195SOD    SOD22255   2.167   3.909  15.615  0.1202 -0.0669  0.2119
  196SOD    SOD22256   0.923   5.009  11.074 -0.9301  0.3154  0.1623
  197SOD    SOD22257   0.573   3.363   3.560 -0.0172  0.0609  0.3751
  198SOD    SOD22258   5.261   4.218  11.997 -0.4590  0.2691  0.3463
  199SOD    SOD22259   5.282   1.473  15.803  0.4581  0.3062 -0.6216
  200SOD    SOD22260   2.468   0.114  12.119 -0.1914 -0.0608  0.5880
  201SOD    SOD22261   3.897   5.158   4.849 -0.2128 -0.1013 -0.1558
  202SOD    SOD22262   2.333   1.832  11.198  0.3562 -0.0416  0.0742
  203SOD    SOD22263   1.968   6.031  17.396  0.3645 -0.6233 -0.0731
  204SOD    SOD22264   4.519   0.271  12.527 -0.3397  0.5933  0.6198
  205SOD    SOD22265   5.346   1.785  11.996 -0.2148 -0.3102 -0.9649
  206SOD    SOD22266   5.758   2.237   6.224 -0.0832  0.2072  0.7701
  207SOD    SOD22267   0.096   5.981   0.070  0.0552 -0.0507 -0.5573
  208SOD    SOD22268   1.026   0.712   0.349  0.0950  0.2266  0.4888
  209SOD    SOD22269   3.624   4.842   3.910 -0.0984  0.9750  0.2142
  210SOD    SOD22270   3.282   6.464  17.383 -0.2183 -0.1820 -0.4131
  211SOD    SOD22271   3.974   4.468   5.306 -0.3748 -0.4472  0.2899
  212SOD    SOD22272   0.102   2.546  11.605 -0.2652  0.0102 -0.2031
  213SOD    SOD22273   2.553   1.876   3.664  0.1639 -0.1706  0.7000
  214SOD    SOD22274   0.727   1.183  10.247  0.0713  0.1343 -0.6198
  215SOD    SOD22275   1.306   0.519  14.696  0.1417  0.4049 -0.3407
  216SOD    SOD22276   4.316   0.635  15.110 -0.2914  0.2326  0.3048
  217SOD    SOD22277   4.316   5.470  13.557 -0.5138 -0.2196  0.4666
  218SOD    SOD22278   3.454   0.104   2.009  0.1236 -0.4444 -0.1463
  219SOD    SOD22279   6.186   5.124  12.215 -0.2888 -0.3339  0.1278
  220SOD    SOD22280   4.824   5.556   5.281  0.0556 -0.0132  0.1826
  221SOD    SOD22281   3.285   6.009   4.815 -0.2569 -0.5066 -0.0394
  222SOD    SOD22282   5.261   1.360   5.790  0.0768 -0.4819 -0.1104
  223SOD    SOD22283   2.782   3.047   6.419  0.0246  0.4338  0.2979
  224SOD    SOD22284   1.157   6.265  11.775 -0.1830 -0.0479  0.2758
  225SOD    SOD22285   4.868   0.289   4.983  0.1119 -0.5367  0.4066
  226SOD    SOD22286   3.784   2.152   3.424  0.5481  0.0990 -0.1590
  227SOD    SOD22287   4.798   5.730   3.875  0.3841 -0.2686 -0.1446
  228SOD    SOD22288   5.912   5.763  16.617  0.6938 -0.3773  0.2017
  229SOD    SOD22289   1.723   4.235   0.284  0.4114 -0.2691  0.3573
  230SOD    SOD22290   4.326   0.509   0.716  0.0035 -0.0296  0.1200
  231SOD    SOD22291   0.303   3.403  13.113 -0.4738  0.2703 -0.4988
  232SOD    SOD22292   5.526   6.534   5.926 -0.0624  0.4620  0.2647
  233SOD    SOD22293   6.481   0.843  15.854  0.4397  0.2609  0.0128
  234SOD    SOD22294   3.174   4.805   5.542 -0.4266  0.0264  0.5125
  235SOD    SOD22295   6.290   2.905  16.437 -0.0494 -0.1456 -0.5023
  236SOD    SOD22296   6.249   2.828   5.991  0.7121 -0.0329  0.3600
  237SOD    SOD22297   1.064   6.401   1.389  0.3706 -0.1438 -0.2932
  238SOD    SOD22298   1.671   4.031  12.064 -0.0686 -0.2729 -0.2045
  239SOD    SOD22299   6.549   5.175  14.753  0.0278  0.2565  0.3750
  240SOD    SOD22300   0.424   4.312   4.667 -0.4638 -0.3240  0.3293
  241SOD    SOD22301   3.099   5.905   2.349 -0.2035 -0.6128  0.1135
  242SOD    SOD22302   4.550   2.910   6.314 -0.0087 -0.1760 -0.3338
  243SOD    SOD22303   6.415   3.338  12.615 -0.0144 -0.1868  0.6817
  244SOD    SOD22304   5.548   3.946   1.427  0.4440 -0.1295 -0.2802
  245SOD    SOD22305   2.453   3.281   2.847 -0.0894 -0.2462 -0.2423
  246SOD    SOD22306   0.145   2.838   5.817  0.3151  0.4408 -0.1779
  247SOD    SOD22307   4.717   4.837  17.468 -0.2105  0.0639  0.1837
  248SOD    SOD22308   3.811   5.526   3.771  0.5504  0.1010  0.5945
  249SOD    SOD22309   5.611   2.382   0.058 -0.1981 -0.3268 -0.3042
  250SOD    SOD22310   0.725   5.157   3.550  0.3933 -0.0369 -0.1564
  251SOD    SOD22311   2.419   0.033  16.575  0.0806  0.3210  0.1643
  252SOD    SOD22312   3.379   0.819   0.554  0.3549 -0.4333 -0.2135
  253SOD    SOD22313   5.361   3.493   0.602  0.0552 -0.4493  0.0224
  254SOD    SOD22314   1.202   0.809  11.129  0.1306  0.3293 -0.5806
  255SOD    SOD22315   4.969   2.961   5.674  0.1951  0.1228 -0.7618
  256SOD    SOD22316   3.804   2.216   3.993  0.1407 -0.0576  0.0267
  257SOD    SOD22317   2.055   4.563   1.749  0.0760  0.5461 -0.2360
  258SOD    SOD22318   3.485   4.269  11.943  0.3475  0.3318  0.2140
  259SOD    SOD22319   3.747   6.633   0.198 -0.4246  0.3167 -0.0908
  260SOD    SOD22320   1.441   0.815   3.634  0.4929 -0.4005  0.4698
  261SOD    SOD22321   4.154   2.695   1.947 -0.3435 -0.2221  0.4022
  262SOD    SOD22322   1.805   3.261  10.409  0.1736  0.0968  0.0497
  263SOD    SOD22323   0.286   5.920   2.287  0.4432 -0.1151 -0.5305
  264SOD    SOD22324   1.692   1.111  16.312  0.4829 -0.2888 -0.2197
  265SOD    SOD22325   1.501   2.828  11.692 -0.5572  0.1591  0.2232
  266SOD    SOD22326   3.457   3.978  17.043  0.2339 -0.5487  0.2566
  267SOD    SOD22327   6.462   2.040  15.966  0.0491  0.1449  0.1961
  268SOD    SOD22328   2.782   5.871  14.560 -0.6193 -0.0913  0.3353
  269SOD    SOD22329   5.562   6.689  10.750 -0.0954  0.1564 -0.5134
  270CLA    CLA22330   5.044   4.508  16.592  0.3880  0.2233 -0.3710
  271CLA    CLA22331   0.247   5.953   1.783  0.0555  0.1590 -0.2621
  272CLA    CLA22332   5.802   4.653   1.293  0.3157  0.6559  0.2402
  273CLA    CLA22333   6.315   3.919  12.863 -0.1367  0.0740  0.2256
  274CLA    CLA22334   3.769   3.721   5.247 -0.3260 -0.0390 -0.0690
  275CLA    CLA22335   6.343   3.558  16.824  0.1503 -0.1063  0.1961
  276CLA    CLA22336   3.912   5.654   4.352  0.0242  0.3590  0.1607
  277CLA    CLA22337   6.006   6.549  16.497  0.3781 -0.2164 -0.3852
  278CLA    CLA22338   4.955   1.756  16.168 -0.0239 -0.1806  0.4736
  279CLA    CLA22339   0.673   1.453  13.498 -0.3543 -0.3918  0.3868
  280CLA    CLA22340   4.122   6.591   1.577  0.2398 -0.4095 -0.0546
  281CLA    CLA22341   3.011   5.040  15.601  0.1449  0.2198  0.1488
  282CLA    CLA22342   1.968   1.021   3.758 -0.4975 -0.3010  0.2179
  283CLA    CLA22343   5.833   2.627  17.152 -0.1530  0.2791  0.2116
  284CLA    CLA22344   5.433   2.942  14.590 -0.1238 -0.0614 -0.1744
  285CLA    CLA22345   3.411   4.371   1.961 -0.4154 -0.2687 -0.3703
  286CLA    CLA22346   0.955   4.190  14.398  0.0257  0.1302  0.2411
  287CLA    CLA22347   3.570   0.519   3.154  0.5010  0.0341  0.4310
  288CLA    CLA22348   0.486   3.314   1.956 -0.0729  0.4108 -0.0893
  289CLA    CLA22349   6.432   2.067  17.395  0.2359  0.4004 -0.0852
  290CLA    CLA22350   5.810   1.352  15.781 -0.0179  0.2356 -0.0721
  291CLA    CLA22351   4.443   3.527  13.000  0.3736  0.0372  0.0858
  292CLA    CLA22352   0.596   5.241  17.490  0.0248 -0.0948 -0.4395
  293CLA    CLA22353   2.835   6.146   2.767 -0.1627 -0.2570 -0.0921
  294CLA    CLA22354   1.672   5.461   0.231  0.0173 -0.0283  0.0020
  295CLA    CLA22355   2.062   2.214   2.577 -0.1792 -0.0352 -0.2878
  296CLA    CLA22356   2.185   4.651  12.442  0.2693  0.0691 -0.2591
  297CLA    CLA22357   2.302   2.406   1.856 -0.2313 -0.1100  0.1536
  298CLA    CLA22358   3.285   5.124   3.642  0.3790  0.4069 -0.0300
  299CLA    CLA22359   3.714   6.317   2.424  0.1548  0.1345  0.0405
  300CLA    CLA22360   2.376   0.464  14.300 -0.2687 -0.4610 -0.0294
  301CLA    CLA22361   5.929   2.340   1.595  0.2365 -0.0603 -0.0115
  302CLA    CLA22362   6.396   0.828   5.210  0.1985  0.7503 -0.3873
  303CLA    CLA22363   1.915   0.258   2.219  0.0805 -0.2137 -0.1217
  304CLA    CLA22364   1.681   6.627  17.506  0.2049  0.3048 -0.1453
  305CLA    CLA22365   2.554   1.228  17.241  0.5283 -0.3883  0.1171
  306CLA    CLA22366   2.965   3.590   2.340 -0.1680 -0.1539 -0.0456
  307CLA    CLA22367   4.590   2.324   5.883 -0.0085  0.2362  0.4465
  308CLA    CLA22368   3.707   5.082  17.418 -0.0452  0.1337 -0.2215
  309CLA    CLA22369   4.903   5.583   4.636 -0.0573 -0.2069  0.1546
  310CLA    CLA22370   3.025   6.354  16.801 -0.5008  0.1825 -0.2711
  311CLA    CLA22371   1.019   3.911   3.600 -0.1277 -0.2180  0.1909
  312CLA    CLA22372   3.545   0.516  15.081 -0.0730  0.1923 -0.1087
  313CLA    CLA22373   2.715   6.687   5.388 -0.1660 -0.2966  0.2115
  314CLA    CLA22374   3.108   3.877  14.218 -0.0919 -0.2049 -0.1584
  315CLA    CLA22375   1.234   0.320  15.809  0.3314 -0.3437 -0.3049
  316CLA    CLA22376   5.525   6.525   4.614 -0.0883  0.2089  0.3264
  317CLA    CLA22377   0.902   6.009  16.442  0.5165 -0.0349  0.2993
  318CLA    CLA22378   2.442   4.384   4.988  0.0119  0.0053  0.0608
  319CLA    CLA22379   4.016   3.173  15.064  0.0946 -0.2955 -0.3641
  320CLA    CLA22380   3.496   2.851   3.307  0.1170 -0.0305 -0.2833
  321CLA    CLA22381   5.498   1.023  11.856 -0.1361  0.1446  0.3885
  322CLA    CLA22382   3.264   4.006  15.268 -0.0067  0.2457 -0.2843
  323TIP3   OH222383   6.336   4.088  13.864 -0.1758 -0.3461 -0.0730
  323TIP3    H122384   6.311   4.066  13.953 -1.1610 -2.2502 -0.7593
  323TIP3    H222385   6.431   4.091  13.865 -0.1825 -0.3225  1.0298
  324TIP3   OH222386   5.173   2.047   0.795 -0.0018 -0.2033 -0.3188
  324TIP3    H122387   5.167   1.956   0.824 -0.4364 -0.8030 -2.1642
  324TIP3    H222388   5.250   2.082   0.841 -0.2325 -1.2723  0.9357
  325TIP3   OH222389   1.794   6.282  15.775  0.3134  0.0395 -0.7943
  325TIP3    H122390   1.764   6.283  15.684  0.1975  0.7924 -0.7552
  325TIP3    H222391   1.717   6.306  15.826  0.6485  0.6858 -0.5863
  326TIP3   OH222392   5.931   2.651  16.348 -0.3731  0.7208 -0.0371
  326TIP3    H122393   5.851   2.623  16.393  0.5770 -1.3190  0.5055
  326TIP3    H222394   6.002   2.617  16.402  0.8320  0.3858 -1.7457
  327TIP3   OH222395   2.495   2.892   1.360  0.5320 -0.1753 -0.2749
  327TIP3    H122396   2.445   2.971   1.340  2.1955  0.5987 -1.6796
  327TIP3    H222397   2.458   2.824   1.303 -0.2608 -0.1738  0.2265
  328TIP3   OH222398   4.710   3.804  14.683 -0.0618  0.4686 -0.1107
  328TIP3    H122399   4.726   3.829  14.774  0.4264 -0.5411  0.0876
  328TIP3    H222400   4.797   3.793  14.646 -0.2671  0.2638 -0.5355
  329TIP3   OH222401   6.069   5.646  12.881 -0.6050  0.3752 -0.5350
  329TIP3    H122402   5.997   5.637  12.943  0.0933 -3.2741 -0.0116
  329TIP3    H222403   6.094   5.738  12.886 -2.5545  0.8838  2.3182
  330TIP3   OH222404   0.204   5.387  12.009  0.7821 -0.2627  0.3132
  330TIP3    H122405   0.219   5.450  12.080 -1.4586  0.1795  0.4707
  330TIP3    H222406   0.269   5.319  12.024  3.1587  1.8221  0.2869
  331TIP3   OH222407   4.927   5.792  15.750 -0.7615 -0.2844  0.0602
  331TIP3    H122408   5.007   5.773  15.701 -0.4276 -2.3496  1.2798
  331TIP3    H222409   4.857   5.754  15.698 -0.6907 -0.3385  0.0048
  332TIP3   OH222410   0.790   2.692   0.821 -0.5273  0.1344  0.2434
  332TIP3    H122411   0.748   2.778   0.821 -0.2310  0.3654 -2.7889
  332TIP3    H222412   0.719   2.630   0.839 -0.5416  0.9267  3.8182
  333TIP3   OH222413   2.986   6.023  13.319 -0.0571  0.5341 -1.1197
  333TIP3    H122414   3.073   5.983  13.313 -0.3796 -0.0285 -2.7176
  333TIP3    H222415   2.979   6.077  13.240 -0.7434  1.4682 -0.4391
  334TIP3   OH222416   1.859   5.857  17.263  0.1637 -0.0860  0.2229
  334TIP3    H122417   1.766   5.838  17.246  0.2292 -1.1080  0.9192
  334TIP3    H222418   1.901   5.846  17.178 -0.2196 -0.5159  0.0849
  335TIP3   OH222419   5.717   3.661  15.345 -0.0481 -0.4784 -0.0150
  335TIP3    H122420   5.662   3.728  15.305  1.4965 -0.7696 -2.8538
  335TIP3    H222421   5.774   3.709  15.405 -2.5133 -0.0513  2.2118
  336TIP3   OH222422   0.442   5.214   1.124  0.6070 -0.5170  0.3010
  336TIP3    H122423   0.355   5.204   1.083  0.9834 -1.5335 -0.2917
  336TIP3    H222424   0.475   5.297   1.090  0.2331 -0.5593 -0.1831
  337TIP3   OH222425   2.053   5.088  10.426 -0.1508  0.4825 -0.1947
  337TIP3    H122426   2.045   5.006  10.378 -0.4528 -0.4865  1.4135
  337TIP3    H222427   2.001   5.151  10.376 -1.4653 -0.7827 -0.4846
  338TIP3   OH222428   1.447   4.245   2.270  0.1351  0.0260  0.3177
  338TIP3    H122429   1.371   4.221   2.322 -1.0639 -0.0896 -1.3837
  338TIP3    H222430   1.410   4.275   2.186  1.9982 -1.0670 -0.9642
  339TIP3   OH222431   3.638   2.434   2.532 -0.0557  0.3868 -0.3916
  339TIP3    H122432   3.681   2.518   2.544  0.4803  0.2539 -1.2961
  339TIP3    H222433   3.634   2.422   2.437 -2.9600  0.8141 -0.4087
  340TIP3   OH222434   5.722   3.921  14.605  0.2095  0.2924  0.2161
  340TIP3    H122435   5.681   3.888  14.525  0.2965  2.4901 -0.7862
  340TIP3    H222436   5.759   3.842  14.646  0.4973 -0.8761 -2.0788
  341TIP3   OH222437   0.164   0.627   4.776  0.0720 -0.0781 -0.6335
  341TIP3    H122438   0.087   0.682   4.769  0.5417  0.6897  0.1332
  341TIP3    H222439   0.165   0.578   4.693 -1.4890 -0.4626 -0.4649
  342TIP3   OH222440   4.478   0.671   4.429 -0.4116  0.3530  0.4963
  342TIP3    H122441   4.516   0.648   4.514 -2.2853 -2.0231  0.7843
  342TIP3    H222442   4.506   0.762   4.415  2.4282 -0.1360  2.2029
  343TIP3   OH222443   2.311   2.544   6.264  0.0264 -0.1455  0.3063
  343TIP3    H122444   2.216   2.533   6.268  0.1907 -1.4201  1.5544
  343TIP3    H222445   2.345   2.454   6.264  1.2394  0.3035  0.1936
  344TIP3   OH222446   1.772   1.997  14.463  0.3146  0.0529 -0.1360
  344TIP3    H122447   1.731   2.025  14.380 -3.2619 -1.1685  1.0327
  344TIP3    H222448   1.771   1.902  14.459 -0.8348 -0.0521  1.6418
  345TIP3   OH222449   0.751   3.585   2.338  0.3205 -0.3116 -0.1186
  345TIP3    H122450   0.687   3.634   2.285  1.6182  1.4366 -0.1728
  345TIP3    H222451   0.798   3.531   2.275 -0.6400 -1.1248 -0.1683
  346TIP3   OH222452   3.960   3.450   3.633 -0.2848 -0.3245 -0.0169
  346TIP3    H122453   3.873   3.461   3.594  0.8872 -0.9936 -3.1217
  346TIP3    H222454   4.015   3.512   3.585  0.5060  2.5167  4.0780
  347TIP3   OH222455   2.357   3.906  12.140  0.0743 -0.2090 -0.0206
  347TIP3    H122456   2.265   3.885  12.155 -0.6439  2.2104 -0.5812
  347TIP3    H222457   2.380   3.966  12.211  0.8250  0.2018 -0.5948
  348TIP3   OH222458   0.298   5.825   2.892  0.2312  0.1571  0.0758
  348TIP3    H122459   0.367   5.825   2.826 -0.6117  1.0761 -0.8564
  348TIP3    H222460   0.306   5.910   2.935 -0.9691  0.7583 -0.8082
  349TIP3   OH222461   3.865   5.292   0.222  0.4297  0.2745  0.5660
  349TIP3    H122462   3.890   5.270   0.132  2.0656 -0.3007  1.1247
  349TIP3    H222463   3.769   5.291   0.221  0.4216 -0.6125 -0.9516
  350TIP3   OH222464   6.317   0.409   3.810  0.0629 -0.1433  0.4673
  350TIP3    H122465   6.384   0.408   3.879  0.2559  0.9263  0.3111
  350TIP3    H222466   6.349   0.473   3.747 -0.0879 -1.1384 -0.6566
  351TIP3   OH222467   5.431   4.224   4.234 -0.5924 -0.8692  0.6998
  351TIP3    H122468   5.516   4.182   4.222 -0.9393 -1.7134  1.0876
  351TIP3    H222469   5.397   4.237   4.145  0.1875  0.0199  0.5203
  352TIP3   OH222470   4.916   3.216   3.708  0.0403  0.2060 -0.2520
  352TIP3    H122471   4.896   3.230   3.615  1.1889  1.8376 -0.2904
  352TIP3    H222472   5.010   3.230   3.715  0.5078 -2.7567  0.7128
  353TIP3   OH222473   4.161   3.728   4.139 -0.1554  0.1351 -0.9634
  353TIP3    H122474   4.065   3.733   4.137 -0.2379  1.6409  1.7230
  353TIP3    H222475   4.180   3.642   4.176 -0.6838  1.1363  1.8696
  354TIP3   OH222476   5.625   2.373  16.855 -0.5392 -0.8815 -0.1893
  354TIP3    H122477   5.541   2.335  16.883 -1.8330  1.2702 -0.9031
  354TIP3    H222478   5.628   2.354  16.761 -2.2932  2.4343 -1.0608
  355TIP3   OH222479   1.382   6.611  12.593  0.1497 -0.5247  0.4415
  355TIP3    H122480   1.354   6.523  12.569  0.7776 -1.0514  1.5631
  355TIP3    H222481   1.461   6.626  12.540  0.0979 -0.6790  0.3189
  356TIP3   OH222482   5.741   1.579  17.308 -0.5887  0.3566 -0.1561
  356TIP3    H122483   5.649   1.574  17.335 -0.7867 -0.1475 -0.8971
  356TIP3    H222484   5.739   1.639  17.233 -0.2265  0.7529  0.1444
  357TIP3   OH222485   5.142   4.870   0.735 -0.1421 -0.5238 -0.5650
  357TIP3    H122486   5.209   4.831   0.679  1.4168  1.0725  0.0948
  357TIP3    H222487   5.060   4.828   0.707  0.7894 -0.9560 -2.9028
  358TIP3   OH222488   0.904   3.244  15.327 -0.2318 -0.4976 -0.2396
  358TIP3    H122489   0.914   3.162  15.376 -2.4014  0.4350  1.9522
  358TIP3    H222490   0.829   3.229  15.269  1.1934 -0.9672 -2.0732
  359TIP3   OH222491   3.743   3.107  16.128 -0.0268 -0.0990  0.4025
  359TIP3    H122492   3.681   3.178  16.147  1.0616  0.5911  1.5643
  359TIP3    H222493   3.731   3.045  16.200  2.3293  1.2787  2.1469
  360TIP3   OH222494   4.148   2.135  17.131  0.2211  0.4047  0.4723
  360TIP3    H122495   4.159   2.200  17.201 -0.3829  2.9572 -1.6061
  360TIP3    H222496   4.057   2.148  17.101  0.6622 -0.0965 -1.2071
  361TIP3   OH222497   6.484   4.404   2.905 -0.7648 -0.3924 -0.2142
  361TIP3    H122498   6.501   4.362   2.989 -0.8164 -0.6594 -0.3368
  361TIP3    H222499   6.397   4.443   2.914 -0.7708 -0.4230 -0.1444
  362TIP3   OH222500   1.823   1.332   0.314 -0.1593  0.2782 -0.2537
  362TIP3    H122501   1.884   1.285   0.371 -0.9223  0.4906  0.7817
  362TIP3    H222502   1.791   1.405   0.368 -0.9148  0.4846 -0.9517
  363TIP3   OH222503   5.163   0.479   3.999 -0.2795  0.5191 -0.3329
  363TIP3    H122504   5.190   0.390   4.022 -0.7418  0.7374  1.1039
  363TIP3    H222505   5.130   0.471   3.909  1.8047 -0.3050 -1.0935
  364TIP3   OH222506   5.296   0.307  14.346  0.0215  0.0473 -0.5276
  364TIP3    H122507   5.210   0.325  14.384  0.9331  2.3745  0.6188
  364TIP3    H222508   5.339   0.392  14.344  2.5827 -1.1751 -0.3911
  365TIP3   OH222509   3.968   4.430   0.001 -0.1036 -0.5691 -0.2507
  365TIP3    H122510   4.035   4.472  -0.053  0.8556  0.2505  1.4918
  365TIP3    H222511   3.887   4.440  -0.050  0.4906  1.5114 -0.8882
  366TIP3   OH222512   1.430   0.570   3.750 -0.2182  0.2083  0.2195
  366TIP3    H122513   1.395   0.481   3.749 -1.4349  0.6745  0.0287
  366TIP3    H222514   1.505   0.566   3.691 -0.7714 -0.4927 -0.4686
  367TIP3   OH222515   2.169   3.898   3.373  0.3008  0.4755  0.7309
  367TIP3    H122516   2.124   3.928   3.294  1.1782  0.5924  0.2650
  367TIP3    H222517   2.104   3.845   3.419 -0.2055  0.3616 -0.1026
  368TIP3   OH222518   6.041   2.871   4.442 -1.2241 -0.4213 -0.4521
  368TIP3    H122519   6.077   2.923   4.370 -1.1299 -0.6127 -0.5467
  368TIP3    H222520   6.057   2.780   4.415 -0.5882 -0.4853  0.1142
  369TIP3   OH222521   3.536   3.162   5.847 -0.3464  0.1887  0.1806
  369TIP3    H122522   3.621   3.121   5.831  0.5202  1.7789  0.5030
  369TIP3    H222523   3.505   3.123   5.929  1.2362  1.3159  1.3725
  370TIP3   OH222524   2.188   5.942  14.087 -1.1445 -0.0508  0.3707
  370TIP3    H122525   2.268   5.924  14.038 -0.4377 -1.7400  1.9985
  370TIP3    H222526   2.133   5.866  14.072 -0.1829 -1.5354  3.4313
  371TIP3   OH222527   5.071   3.085  14.118 -0.3901  0.1951 -0.1002
  371TIP3    H122528   5.048   3.113  14.029 -0.3637  0.1562 -0.1193
  371TIP3    H222529   5.102   3.165  14.161  1.6494 -0.1441 -0.7912
  372TIP3   OH222530   1.359   6.218  13.907 -0.1678 -0.2645 -0.0508
  372TIP3    H122531   1.330   6.140  13.954 -0.9701 -0.6278 -1.1053
  372TIP3    H222532   1.365   6.286  13.974 -0.1861 -1.0455  0.7547
  373TIP3   OH222533   5.283   5.241   5.384  0.2355 -0.0457 -0.1620
  373TIP3    H122534   5.338   5.163   5.384  0.2214 -0.0555 -0.9952
  373TIP3    H222535   5.251   5.247   5.475  0.7931 -0.6061  0.0777
  374TIP3   OH222536   5.123   4.511  16.273 -0.0246  0.1245 -0.2203
  374TIP3    H122537   5.204   4.560  16.260  0.1419 -0.4739 -1.6066
  374TIP3    H222538   5.112   4.508  16.368  3.4902 -2.8294  0.3203
  375TIP3   OH222539   5.085   5.254   5.830 -0.1147  0.5352 -0.4401
  375TIP3    H122540   4.991   5.272   5.832 -0.3618 -0.6080  1.8088
  375TIP3    H222541   5.126   5.338   5.851 -0.8581  0.3288  2.1743
  376TIP3   OH222542   5.310   5.553   3.342  0.3772 -0.2766 -0.9669
  376TIP3    H122543   5.373   5.601   3.288  0.3952 -0.9645 -1.5752
  376TIP3    H222544   5.256   5.505   3.278 -1.0113  0.5941 -0.4852
  377TIP3   OH222545   3.134   2.768  12.028  0.4149  0.1211 -0.0831
  377TIP3    H122546   3.162   2.721  12.107  2.2411 -0.2792 -0.9137
  377TIP3    H222547   3.149   2.706  11.957 -0.6925  0.6762 -0.8287
  378TIP3   OH222548   4.814   0.248   2.362 -0.3633  0.2055  0.0515
  378TIP3    H122549   4.773   0.161   2.355 -1.6259  0.8452 -0.8214
  378TIP3    H222550   4.830   0.259   2.456 -0.2375 -0.9360  0.1822
  379TIP3   OH222551   5.043   1.361  12.787  0.0346  0.0135  0.2938
  379TIP3    H122552   5.099   1.290  12.818  0.5313  0.8421  1.3550
  379TIP3    H222553   4.965   1.317  12.753  0.7359 -1.0781  0.0611
  380TIP3   OH222554   5.296   4.651  11.892 -0.3149  0.0305 -0.4392
  380TIP3    H122555   5.248   4.665  11.974  0.9238 -0.8060  0.4640
  380TIP3    H222556   5.386   4.675  11.912  0.0286 -0.2858 -1.5287
  381TIP3   OH222557   4.321   3.919   5.362  0.3074  0.5325  1.0089
  381TIP3    H122558   4.259   3.846   5.368  0.8724  0.0063  0.5931
  381TIP3    H222559   4.400   3.886   5.405  0.3515  1.1497  1.4138
  382TIP3   OH222560   1.215   2.511  15.438  0.1909  0.0754 -0.4116
  382TIP3    H122561   1.304   2.536  15.465  0.1293 -0.8754  0.7221
  382TIP3    H222562   1.183   2.588  15.391  0.9004  1.2111  0.8682
  383TIP3   OH222563   5.808   6.252  13.579 -0.5421 -0.0768  0.0200
  383TIP3    H122564   5.762   6.229  13.661  0.2946 -1.3699  0.1515
  383TIP3    H222565   5.900   6.260  13.605 -0.5913  2.0746 -0.3276
  384TIP3   OH222566   0.020   4.325  11.579  0.5755  0.0356 -0.3481
  384TIP3    H122567   0.031   4.242  11.626  0.1458 -0.0698 -0.4226
  384TIP3    H222568  -0.065   4.358  11.609 -1.5789 -1.8612 -3.7326
  385TIP3   OH222569   0.224   4.594   4.247 -0.6761  0.5233 -0.3754
  385TIP3    H122570   0.298   4.554   4.202 -1.7437 -0.2844 -1.4532
  385TIP3    H222571   0.261   4.672   4.289  1.2347 -0.9692  0.8984
  386TIP3   OH222572   5.763   5.360   3.767 -0.2370 -0.0861  0.1832
  386TIP3    H122573   5.789   5.335   3.855  0.6074  0.5332  0.1265
  386TIP3    H222574   5.692   5.300   3.744 -1.4856  0.6866  1.8321
  387TIP3   OH222575   6.470   4.366  11.627 -0.1668 -0.3957  0.1752
  387TIP3    H122576   6.419   4.303  11.576 -0.0626 -1.0259  0.8440
  387TIP3    H222577   6.469   4.332  11.716  1.6348 -0.5551  0.1639
  388TIP3   OH222578   5.795   3.749  11.265 -0.5680 -0.3834 -0.8383
  388TIP3    H122579   5.884   3.781  11.282 -0.3738 -2.0555  1.7199
  388TIP3    H222580   5.805   3.688  11.192  0.1076  0.5765 -1.5675
  389TIP3   OH222581   0.595   3.592  11.003 -0.1267  0.1780 -0.3134
  389TIP3    H122582   0.534   3.649  10.957 -1.1887 -0.6095  0.0741
  389TIP3    H222583   0.616   3.523  10.940 -1.6958 -0.9829  0.3524
  390TIP3   OH222584   6.288   2.571  14.615 -0.2992 -0.1028  0.4343
  390TIP3    H122585   6.294   2.666  14.613 -0.5727 -0.0786 -1.2211
  390TIP3    H222586   6.204   2.552  14.573  1.3321 -1.1150 -2.7179
  391TIP3   OH222587   3.085   3.506   3.338  0.0570  0.1262  0.7477
  391TIP3    H122588   3.053   3.522   3.249 -0.8769 -1.2204  0.8207
  391TIP3    H222589   3.111   3.593   3.369  0.8229  0.5750 -0.9704
  392TIP3   OH222590   3.407   2.165   2.877  0.2240 -0.5156  0.2325
  392TIP3    H122591   3.346   2.177   2.949  0.5812 -0.1885  0.4809
  392TIP3    H222592   3.372   2.218   2.806 -0.8726 -1.8842 -0.3079
  393TIP3   OH222593   2.531   4.221  17.158 -0.0914  0.6040  0.4924
  393TIP3    H122594   2.498   4.156  17.220  0.7307  0.7091  1.0645
  393TIP3    H222595   2.464   4.226  17.090 -0.4843 -0.3363  0.7940
  394TIP3   OH222596   1.185   4.376   4.837  0.0696 -0.2295 -0.1877
  394TIP3    H122597   1.257   4.333   4.790  0.4258 -1.0194  1.0246
  394TIP3    H222598   1.129   4.303   4.865 -1.5870  0.4222 -1.6906
  395TIP3   OH222599   2.462   2.935  11.282 -0.1061 -0.2056  0.5092
  395TIP3    H122600   2.470   2.951  11.376  3.1533  1.3970  0.0848
  395TIP3    H222601   2.526   2.867  11.263  0.6022  0.7682 -0.7822
  396TIP3   OH222602   1.128   2.563   1.756  0.0068  0.2291  0.6386
  396TIP3    H122603   1.164   2.475   1.743  1.8191  0.7613  1.7675
  396TIP3    H222604   1.204   2.620   1.760 -0.8154  1.3147  3.9423
  397TIP3   OH222605   2.406   1.790  10.902 -0.2465 -0.2451  0.4178
  397TIP3    H122606   2.493   1.761  10.875 -0.0788 -1.0291  1.7476
  397TIP3    H222607   2.350   1.714  10.887 -0.1973 -0.6178  1.9627
  398TIP3   OH222608   2.320   6.152   2.412  0.0845  0.2290 -0.0032
  398TIP3    H122609   2.343   6.103   2.491  0.7014 -0.6146 -0.6715
  398TIP3    H222610   2.399   6.203   2.392  0.0663  0.1552 -0.2693
  399TIP3   OH222611   0.967   2.188   3.694 -0.6174 -0.4346 -0.8299
  399TIP3    H122612   1.044   2.239   3.721  1.0144 -1.7811 -2.5828
  399TIP3    H222613   0.894   2.229   3.740  0.9128  1.8914 -0.2427
  400TIP3   OH222614   1.301   4.413  14.155 -0.2270  0.2071  0.5829
  400TIP3    H122615   1.226   4.469  14.176  0.1573  1.9805 -2.1993
  400TIP3    H222616   1.308   4.418  14.059  3.3602 -0.0040  0.7093
  401TIP3   OH222617   3.109   0.352   4.299 -0.0219  0.4178 -0.4671
  401TIP3    H122618   3.173   0.298   4.252  2.0192  2.6118 -0.3899
  401TIP3    H222619   3.133   0.342   4.391  0.6128  1.6536 -0.4750
  402TIP3   OH222620   1.072   2.999  17.154 -0.0010  0.2768  0.0164
  402TIP3    H122621   1.070   3.066  17.085  0.5080  2.1262  1.7207
  402TIP3    H222622   1.152   2.950  17.137 -0.4072  0.0272 -1.2954
  403TIP3   OH222623   5.232   0.384  17.404 -0.4548 -0.6487 -0.7396
  403TIP3    H122624   5.286   0.359  17.329 -0.6466  0.2108 -1.1667
  403TIP3    H222625   5.281   0.352  17.480 -0.0131 -1.0767 -1.1978
  404TIP3   OH222626   5.674   2.839  16.623  0.5718  0.3624  0.4508
  404TIP3    H122627   5.611   2.776  16.656 -0.4409  1.3004  0.3703
  404TIP3    H222628   5.699   2.805  16.537  1.7611 -1.0770  1.3311
  405TIP3   OH222629   0.830   0.697   3.458 -0.0170  0.1759  0.3687
  405TIP3    H122630   0.829   0.604   3.436  1.5065 -0.0052  0.8977
  405TIP3    H222631   0.900   0.734   3.404  1.9181  0.2471  2.7648
  406TIP3   OH222632   4.257   1.604   6.141  0.2285  0.1567 -0.0244
  406TIP3    H122633   4.210   1.614   6.224 -0.4116  0.5732 -0.4247
  406TIP3    H222634   4.305   1.521   6.150  1.0736  0.7569  1.1847
  407TIP3   OH222635   1.799   1.645  11.355 -0.2204 -0.1669  0.5293
  407TIP3    H122636   1.721   1.627  11.302 -0.0190 -0.9526  0.4880
  407TIP3    H222637   1.825   1.733  11.330 -0.8618 -0.0478  0.2477
  408TIP3   OH222638   0.500   3.202  16.170 -0.2182  0.2602  0.0509
  408TIP3    H122639   0.590   3.169  16.174 -0.4327 -0.2533  0.7115
  408TIP3    H222640   0.467   3.194  16.260 -0.2022  2.4959  0.3203
  409TIP3   OH222641   3.798   3.671   6.601  0.1744 -0.0485  0.9479
  409TIP3    H122642   3.774   3.760   6.623 -0.1784  0.6430 -1.8944
  409TIP3    H222643   3.890   3.677   6.573  0.6657 -0.9152  2.2355
  410TIP3   OH222644   5.126   4.416  11.921 -0.2652 -0.5085  0.0104
  410TIP3    H122645   5.169   4.445  11.841  0.1369 -1.6609 -0.1954
  410TIP3    H222646   5.102   4.498  11.965 -0.7805  0.1555 -1.4159
  411TIP3   OH222647   1.699   0.069   4.344 -0.7671  0.0576  0.1472
  411TIP3    H122648   1.651   0.136   4.296 -2.0905  0.1069  1.4847
  411TIP3    H222649   1.683  -0.011   4.294  2.0835  0.8422 -2.3642
  412TIP3   OH222650   0.442   3.916  12.175  0.1168 -0.3050 -0.3213
  412TIP3    H122651   0.417   3.888  12.263  1.7661  0.7260  0.5157
  412TIP3    H222652   0.360   3.944  12.135 -0.4834  0.4863  1.3691
  413TIP3   OH222653   1.004   6.517  11.383 -0.2180 -0.4882 -0.3365
  413TIP3    H122654   1.091   6.552  11.403 -0.7348  0.1364  0.8913
  413TIP3    H222655   1.014   6.476  11.297  1.0365  0.4637 -0.6645
  414TIP3   OH222656   1.714   1.912   1.765 -0.0182  0.0353 -0.0873
  414TIP3    H122657   1.635   1.865   1.790  0.0220  0.6202  1.1931
  414TIP3    H222658   1.721   1.983   1.828  2.6771 -1.2551  1.2412
  415TIP3   OH222659   5.545   5.259   1.780  0.4050  0.4453 -0.5176
  415TIP3    H122660   5.541   5.354   1.774 -1.1732  0.5194  1.1565
  415TIP3    H222661   5.496   5.237   1.859  2.1876 -1.6527  0.1180
  416TIP3   OH222662   5.909   0.161  11.817  0.4963  0.1086  0.4331
  416TIP3    H122663   5.889   0.189  11.906 -0.5425  0.8728 -0.0128
  416TIP3    H222664   5.999   0.190  11.802  0.6119  0.1459  1.1534
  417TIP3   OH222665   0.890   4.027   4.627  0.0539  0.7214 -0.4834
  417TIP3    H122666   0.864   4.062   4.713  2.4633 -0.0926  0.6543
  417TIP3    H222667   0.985   4.037   4.625  0.1993 -0.5685 -2.5020
  418TIP3   OH222668   6.061   0.032  12.065 -0.1259 -1.0115  0.4099
  418TIP3    H122669   5.967   0.043  12.077 -0.2053 -2.0561  0.8903
  418TIP3    H222670   6.099   0.116  12.090 -0.9735 -0.3684 -0.3974
  419TIP3   OH222671   1.790   1.776   3.357 -0.1432 -0.2687  0.5753
  419TIP3    H122672   1.722   1.842   3.344 -0.8725 -0.9664  0.7536
  419TIP3    H222673   1.799   1.768   3.452 -1.1646 -1.5125  0.5898
  420TIP3   OH222674   5.715   5.286  12.124  0.2920 -0.5328  0.3093
  420TIP3    H122675   5.733   5.243  12.040  0.0773 -0.5598  0.2741
  420TIP3    H222676   5.699   5.377  12.102 -3.2064 -1.0998 -0.1873
  421TIP3   OH222677   4.334   3.100   4.890  0.0083 -0.6404  0.1904
  421TIP3    H122678   4.369   3.096   4.801  2.1293  2.4396  0.7136
  421TIP3    H222679   4.390   3.040   4.939 -0.9211 -2.0589 -0.4322
  422TIP3   OH222680   1.862   0.010   5.605  0.1797  0.3412  0.1535
  422TIP3    H122681   1.856  -0.085   5.617  2.0333  0.4083  2.1323
  422TIP3    H222682   1.856   0.046   5.693 -1.7801  2.2168 -0.6644
  423TIP3   OH222683   5.273   0.587  16.856 -0.3720 -0.2165 -0.1129
  423TIP3    H122684   5.177   0.590  16.862 -0.4182  0.2220 -0.8312
  423TIP3    H222685   5.297   0.503  16.894 -1.1370 -0.7917 -0.8625
  424TIP3   OH222686   5.649   0.619   5.165  0.2602  0.1006 -0.1359
  424TIP3    H122687   5.716   0.566   5.208 -0.2249 -0.2753  0.1717
  424TIP3    H222688   5.634   0.692   5.223  1.1478  0.7567 -0.7030
  425TIP3   OH222689   2.109   1.889   1.830 -0.6109  0.7767  0.5046
  425TIP3    H122690   2.133   1.968   1.782  1.7959  0.7484  1.4976
  425TIP3    H222691   2.061   1.920   1.907 -1.9120  1.0314 -0.3780
  426TIP3   OH222692   0.620   3.520  15.096 -0.2313 -0.3240 -0.3332
  426TIP3    H122693   0.549   3.584  15.089 -0.0328  0.4583  2.8864
  426TIP3    H222694   0.687   3.551  15.036 -1.9114 -0.1803 -2.2432
  427TIP3   OH222695   4.028   2.094   5.638  0.9804 -0.9286 -0.0885
  427TIP3    H122696   4.041   2.185   5.665  0.4453 -0.4039 -1.4869
  427TIP3    H222697   4.048   2.094   5.544  0.7567 -2.2096 -0.1500
  428TIP3   OH222698   5.885   6.219   5.214  0.9453 -0.0980  0.5160
  428TIP3    H122699   5.839   6.222   5.131 -0.2004  0.2353  1.1359
  428TIP3    H222700   5.943   6.143   5.208  1.3036  0.2560 -0.7828
  429TIP3   OH222701   6.451   5.619   5.928 -0.7147 -0.4053 -0.5446
  429TIP3    H122702   6.496   5.671   5.995 -0.2130  1.9211 -2.5439
  429TIP3    H222703   6.358   5.633   5.945 -0.6170 -0.4522  0.0799
  430TIP3   OH222704   4.682   5.154  17.195  0.0120  0.2502 -0.4305
  430TIP3    H122705   4.670   5.062  17.218  0.7805  0.1502 -0.4113
  430TIP3    H222706   4.750   5.185  17.254  1.3409  0.2415 -1.9013
  431TIP3   OH222707   5.797   4.602   2.454 -0.0261  0.7243  0.5098
  431TIP3    H122708   5.799   4.680   2.509 -2.3439  1.6382 -0.6006
  431TIP3    H222709   5.816   4.634   2.366  1.0507 -0.3288  0.3231
  432TIP3   OH222710   2.151   0.152  12.382  0.4158 -1.0780 -0.2648
  432TIP3    H122711   2.105   0.148  12.466 -0.2724 -2.2849 -0.6855
  432TIP3    H222712   2.243   0.162  12.407  0.2808 -1.9452  0.6565
  433TIP3   OH222713   2.710   3.731   4.755  0.0366  0.4346 -0.0619
  433TIP3    H122714   2.717   3.654   4.812 -1.7781  0.4535  0.2378
  433TIP3    H222715   2.694   3.804   4.816 -1.6353  0.5000 -0.5337
  434TIP3   OH222716   6.199   5.911  10.651  0.2793 -0.3018  0.8235
  434TIP3    H122717   6.212   5.864  10.568 -0.9647  1.2329 -0.2919
  434TIP3    H222718   6.287   5.938  10.676  0.6150 -0.1971 -0.3810
  435TIP3   OH222719   1.144   4.690  10.469 -0.8490 -0.6626 -0.1851
  435TIP3    H122720   1.139   4.707  10.375 -0.6617  1.6070  0.1431
  435TIP3    H222721   1.056   4.711  10.501 -0.2819  0.9863  0.4205
  436TIP3   OH222722   3.448   0.223  17.394 -0.6116  0.2066  0.3603
  436TIP3    H122723   3.456   0.245  17.487  0.7517 -0.4893  0.4471
  436TIP3    H222724   3.538   0.204  17.367 -0.6765  2.2829 -1.6089
  437TIP3   OH222725   2.350   3.343   4.331  0.3533 -0.1996  0.1335
  437TIP3    H122726   2.302   3.358   4.249 -0.4731 -0.6393  0.5231
  437TIP3    H222727   2.362   3.430   4.368  0.0724 -0.0648 -0.0924
  438TIP3   OH222728   0.596   1.071   0.921  0.6757 -0.2479  0.0965
  438TIP3    H122729   0.660   1.013   0.962  0.3706 -1.0031 -0.4709
  438TIP3    H222730   0.614   1.063   0.827  0.1199 -0.0181 -0.0326
  439TIP3   OH222731   0.832   6.467   0.766  0.5093 -0.1944 -0.3369
  439TIP3    H122732   0.870   6.552   0.743  1.5159 -0.4175  0.4645
  439TIP3    H222733   0.778   6.485   0.843  2.2519 -0.5912  1.0391
  440TIP3   OH222734   2.553   3.477   2.432 -0.2810  0.0915  0.2987
  440TIP3    H122735   2.549   3.382   2.424  0.8671  0.1885 -3.4614
  440TIP3    H222736   2.501   3.509   2.358 -0.8857  2.4547  1.6391
  441TIP3   OH222737   5.221   5.793  12.297 -0.0194 -0.0309 -0.0484
  441TIP3    H122738   5.147   5.851  12.319 -0.3534 -0.7076  0.6831
  441TIP3    H222739   5.204   5.765  12.207 -0.8614 -0.4697  0.2355
  442TIP3   OH222740   0.318   2.203  15.687 -0.0510 -0.1194 -0.5605
  442TIP3    H122741   0.227   2.208  15.657 -0.2561 -2.0367 -0.3983
  442TIP3    H222742   0.342   2.293  15.708 -1.5276  0.5822 -1.7135
  443TIP3   OH222743   0.248   2.997   3.936  0.0827 -0.7654 -0.5530
  443TIP3    H122744   0.317   2.931   3.934  1.5303  0.6542 -0.2972
  443TIP3    H222745   0.217   2.996   4.027 -0.4501 -1.5970 -0.7337
  444TIP3   OH222746   5.021   4.326  12.261 -0.5203  0.2288 -0.3257
  444TIP3    H122747   5.043   4.253  12.319  0.6484  1.1955  0.4995
  444TIP3    H222748   4.942   4.297  12.215 -0.2168 -1.4482  0.1450
  445TIP3   OH222749   2.382   6.122   3.501  0.4620 -0.0783 -0.0868
  445TIP3    H122750   2.417   6.203   3.537  0.1217 -0.1574  0.4389
  445TIP3    H222751   2.316   6.094   3.564  0.0597 -0.3815 -0.6264
  446TIP3   OH222752   0.509   2.269   4.307 -0.0622  0.5200  0.1363
  446TIP3    H122753   0.565   2.214   4.362 -1.1007  0.3903  1.0976
  446TIP3    H222754   0.532   2.359   4.331 -1.1778  0.4743  1.5542
  447TIP3   OH222755   2.741   3.677  11.891 -0.0017  0.6774  0.3383
  447TIP3    H122756   2.805   3.607  11.880 -0.2413  0.5521 -0.3322
  447TIP3    H222757   2.782   3.754  11.851 -0.2029  0.6322  0.0373
  448TIP3   OH222758   6.641   3.181   1.500 -0.2938 -0.1137  0.8042
  448TIP3    H122759   6.701   3.230   1.556 -0.3292  0.0248  0.7209
  448TIP3    H222760   6.556   3.188   1.544  0.1094 -1.9511  1.9706
  449TIP3   OH222761   5.084   0.922  14.899 -0.5771 -0.1952 -0.2629
  449TIP3    H122762   5.175   0.928  14.930 -1.5311  1.4254  2.6116
  449TIP3    H222763   5.081   0.980  14.823  0.3341  1.5811  0.9922
  450TIP3   OH222764   2.420   5.103  12.452  0.4011  0.0305  0.5634
  450TIP3    H122765   2.378   5.107  12.366  0.5602 -0.1736  0.4748
  450TIP3    H222766   2.389   5.021  12.490  1.6080 -0.7006  0.0254
  451TIP3   OH222767   0.656   3.660   4.824  0.0196  0.0812 -0.8643
  451TIP3    H122768   0.640   3.565   4.820  0.8844 -0.2358  1.7256
  451TIP3    H222769   0.750   3.668   4.809  0.2979  0.3133  0.8632
  452TIP3   OH222770   0.888   3.120  16.355  0.1609  0.2233  0.5557
  452TIP3    H122771   0.879   3.112  16.450  1.2073 -0.9203  0.5746
  452TIP3    H222772   0.864   3.211  16.336  0.8600  0.7368  2.0211
  453TIP3   OH222773   5.483   1.966   3.209 -0.5537  0.2841  0.8782
  453TIP3    H122774   5.523   1.924   3.285 -1.4501  1.3403  1.9628
  453TIP3    H222775   5.398   1.924   3.200 -0.4203  0.1115  0.4032
  454TIP3   OH222776   2.359   1.770  17.062 -0.6092  0.3519  0.1387
  454TIP3    H122777   2.284   1.729  17.105 -0.1368 -0.4607  0.2153
  454TIP3    H222778   2.429   1.705  17.071 -0.0250  0.9149 -0.3209
  455TIP3   OH222779   0.288   1.228  15.779 -0.7294  0.3975  0.1424
  455TIP3    H122780   0.269   1.147  15.826 -2.0700  0.3573 -0.4068
  455TIP3    H222781   0.300   1.200  15.688  1.8950  0.4610  0.3941
  456TIP3   OH222782   6.308   0.350  16.347  0.1214  0.1818 -0.5500
  456TIP3    H122783   6.270   0.358  16.435  3.7664  0.6150  1.1743
  456TIP3    H222784   6.264   0.418  16.296  0.3835  2.4903  2.0326
  457TIP3   OH222785   6.190   3.976  14.105 -0.4620  0.3166  0.0332
  457TIP3    H122786   6.163   3.910  14.041  4.1050 -1.1305 -0.7698
  457TIP3    H222787   6.202   3.927  14.186  1.3235  0.3943 -0.1387
  458TIP3   OH222788   2.884   1.157  10.486 -0.1467  0.0886  0.3571
  458TIP3    H122789   2.813   1.182  10.426  0.3921 -0.2557 -0.4431
  458TIP3    H222790   2.942   1.233  10.485  0.1341 -0.1269  0.0149
  459TIP3   OH222791   4.671   3.399  10.728  0.5948  0.2442 -0.3861
  459TIP3    H122792   4.687   3.411  10.822  0.7903  0.9445 -0.5031
  459TIP3    H222793   4.714   3.473  10.687 -0.3340  0.4854 -0.9549
  460TIP3   OH222794   2.261   6.081   3.730 -0.1090  0.1668 -0.1511
  460TIP3    H122795   2.228   6.160   3.774 -0.4123 -0.1946  0.2816
  460TIP3    H222796   2.319   6.040   3.794  0.7951  0.5226 -0.7190
  461TIP3   OH222797   5.675   6.052  14.332 -0.2511  0.0491 -0.1347
  461TIP3    H122798   5.584   6.048  14.305  0.4020 -1.0022 -2.3895
  461TIP3    H222799   5.709   6.132  14.290  0.2686 -0.5027 -0.7988
  462TIP3   OH222800   3.245   5.510   2.274  0.2227  0.3853  0.1653
  462TIP3    H122801   3.268   5.566   2.200  2.0198 -0.8468 -0.2928
  462TIP3    H222802   3.304   5.435   2.266 -2.4327 -1.9089  0.3771
  463TIP3   OH222803   4.091   5.536   1.400 -0.5349 -0.2278 -0.4407
  463TIP3    H122804   4.023   5.520   1.465  0.9609 -1.8126  0.8416
  463TIP3    H222805   4.068   5.481   1.326 -0.7246 -0.6408 -0.0745
  464TIP3   OH222806   3.623   2.079  16.395 -0.1752  0.2656 -0.1529
  464TIP3    H122807   3.563   2.014  16.430 -0.6789  0.0758 -1.3450
  464TIP3    H222808   3.704   2.031  16.378 -0.4233  0.0233 -0.6693
  465TIP3   OH222809   5.504   3.637  15.755 -0.2134  0.9957 -0.5313
  465TIP3    H122810   5.443   3.711  15.751  0.7976  1.8051 -1.8597
  465TIP3    H222811   5.586   3.671  15.719 -0.1730 -1.2157 -2.7844
  466TIP3   OH222812   1.011   1.858   6.460  0.1337 -0.1300 -0.0450
  466TIP3    H122813   0.920   1.826   6.461  0.5822 -1.6037  2.3506
  466TIP3    H222814   1.035   1.861   6.368 -2.3036  0.1886 -0.7354
  467TIP3   OH222815   0.003   3.059  13.969 -0.1313 -0.1298 -0.4958
  467TIP3    H122816  -0.044   2.979  13.946 -3.2792  1.1117  1.0917
  467TIP3    H222817  -0.004   3.064  14.064  1.1380  1.4071 -0.4413
  468TIP3   OH222818   0.394   0.439  10.147  0.3473  0.3397 -0.3147
  468TIP3    H122819   0.449   0.361  10.162 -2.8183 -1.9603  0.2499
  468TIP3    H222820   0.378   0.440  10.053 -1.6972 -1.3451 -0.0481
  469TIP3   OH222821   0.626   1.204   3.270  0.8057  0.0401  0.7275
  469TIP3    H122822   0.654   1.116   3.246  0.2458 -0.3072  1.3062
  469TIP3    H222823   0.583   1.238   3.192 -2.4690 -1.6822  1.5594
  470TIP3   OH222824   2.784   1.333   3.549  0.3176  0.5339  0.5558
  470TIP3    H122825   2.690   1.318   3.562  0.4404 -0.6246  0.1712
  470TIP3    H222826   2.816   1.356   3.637 -0.5961  2.7045  0.4000
  471TIP3   OH222827   2.319   3.186   3.025 -0.3184  0.4107  0.9667
  471TIP3    H122828   2.271   3.257   3.067 -0.1390  1.1956 -0.1254
  471TIP3    H222829   2.310   3.112   3.086 -1.8527  0.8868  1.3664
  472TIP3   OH222830   4.462   0.496  13.566  0.0667  0.6431  0.0036
  472TIP3    H122831   4.484   0.448  13.646 -0.4524  0.2696 -0.0713
  472TIP3    H222832   4.540   0.490  13.512 -0.4346 -1.3084 -0.5795
  473TIP3   OH222833   5.438   5.718  15.824 -0.1356 -0.0921  1.0371
  473TIP3    H122834   5.480   5.633  15.815 -0.4192 -0.1226 -0.2668
  473TIP3    H222835   5.493   5.777  15.772 -1.1137  0.0660  0.1462
  474TIP3   OH222836   1.075   5.572   5.998 -0.1423 -0.7372  0.8637
  474TIP3    H122837   1.032   5.578   5.913  2.5290  2.9781 -0.4562
  474TIP3    H222838   1.126   5.491   5.994 -2.0123 -1.9646  0.0917
  475TIP3   OH222839   1.646   0.635  14.216 -0.1086  0.5350  0.0421
  475TIP3    H122840   1.692   0.701  14.163  0.6767 -0.4621 -0.5525
  475TIP3    H222841   1.555   0.644  14.190  0.2511  0.1000 -1.4901
  476TIP3   OH222842   2.888   3.513  16.109  0.2378  0.7041  0.0471
  476TIP3    H122843   2.836   3.436  16.130  0.9532  0.4463  0.9653
  476TIP3    H222844   2.937   3.489  16.030 -0.6228  0.7625 -0.5168
  477TIP3   OH222845   5.239   0.759  13.625 -0.3837  0.3895 -0.1302
  477TIP3    H122846   5.164   0.699  13.626 -0.2729  0.2443 -0.5397
  477TIP3    H222847   5.293   0.729  13.552  0.7800 -0.3695  0.9952
  478TIP3   OH222848   2.320   3.872   5.478  0.3967  0.1073 -0.4053
  478TIP3    H122849   2.273   3.836   5.553  2.5417  0.9394  1.4122
  478TIP3    H222850   2.322   3.799   5.415  1.0717 -1.6455  1.5222
  479TIP3   OH222851   3.628   5.567   1.905 -0.3009  0.2003  0.2535
  479TIP3    H122852   3.657   5.650   1.942  0.8015  0.2390 -0.6322
  479TIP3    H222853   3.628   5.582   1.810 -2.9777  0.0847  0.1673
  480TIP3   OH222854   4.780   0.543  16.302 -0.3919  0.2153 -0.2020
  480TIP3    H122855   4.741   0.482  16.239  2.1678 -0.0153 -1.6872
  480TIP3    H222856   4.793   0.490  16.381 -0.9140 -0.3365 -0.4830
  481TIP3   OH222857   1.061   0.759  15.939 -0.0022 -0.2502 -0.7165
  481TIP3    H122858   0.967   0.771  15.932 -0.0788 -0.7331 -0.5680
  481TIP3    H222859   1.082   0.789  16.028  0.1306  0.7022 -1.0500
  482TIP3   OH222860   0.884   1.647   5.694  0.1961 -0.2405  0.8034
  482TIP3    H122861   0.934   1.646   5.613  0.6671 -0.4720  1.0954
  482TIP3    H222862   0.921   1.577   5.747 -0.6492 -0.6296  0.8995
  483TIP3   OH222863   4.175   0.388  11.835 -0.9037  0.1770  0.0306
  483TIP3    H122864   4.099   0.433  11.799 -0.7880 -0.7557 -1.4502
  483TIP3    H222865   4.144   0.300  11.854  0.2953 -0.9890 -2.8330
  484TIP3   OH222866   4.673   2.583   2.859  0.2772  0.1532 -0.3122
  484TIP3    H122867   4.634   2.576   2.946  3.8419 -0.5590  1.4336
  484TIP3    H222868   4.710   2.671   2.857  1.7940 -0.4490 -0.2787
  485TIP3   OH222869   1.251   6.549  13.472  0.5189  0.0116  0.1131
  485TIP3    H122870   1.261   6.631  13.424  1.3819  0.0237  0.3026
  485TIP3    H222871   1.321   6.550  13.537 -0.6361  0.0079  1.4011
  486TIP3   OH222872   2.115   3.436   4.771 -0.3882  0.1158  0.5565
  486TIP3    H122873   2.137   3.388   4.692 -0.2167 -1.6637  1.6345
  486TIP3    H222874   2.094   3.369   4.836 -1.3863  1.5317  1.7870
  487TIP3   OH222875   1.871   5.823  15.646  0.3298  0.4837 -0.0739
  487TIP3    H122876   1.862   5.912  15.612 -0.6771  0.0623 -0.9590
  487TIP3    H222877   1.953   5.825  15.696  0.3211  1.8974 -0.0803
  488TIP3   OH222878   1.245   5.467  12.587  0.3469 -0.0093  0.1592
  488TIP3    H122879   1.289   5.415  12.519  0.3596  0.4854 -0.2178
  488TIP3    H222880   1.268   5.557  12.566  1.0098  0.1011  1.2935
  489TIP3   OH222881   5.744   4.038  16.113 -0.6843 -0.4697  0.3955
  489TIP3    H122882   5.790   4.076  16.188 -2.5517 -0.0761  1.4041
  489TIP3    H222883   5.785   3.952  16.101 -1.5060 -1.3411  3.0948
  490TIP3   OH222884   0.154   1.690   0.593 -0.2951 -0.3511  0.0227
  490TIP3    H122885   0.061   1.697   0.573 -0.1982  2.5060  0.1060
  490TIP3    H222886   0.157   1.646   0.678 -1.6742  0.5510  0.5741
  491TIP3   OH222887   3.045   5.432   3.820  0.2668  0.2476  0.4753
  491TIP3    H122888   3.129   5.421   3.866 -0.3398 -0.0995  1.5466
  491TIP3    H222889   3.017   5.342   3.802 -0.1654  0.3388  0.6860
  492TIP3   OH222890   5.296   1.924   6.337  0.8193  0.3846  0.4065
  492TIP3    H122891   5.233   1.961   6.398  0.8594  0.5216  0.3662
  492TIP3    H222892   5.299   1.831   6.358  0.0119  0.2307 -0.1216
  493TIP3   OH222893   3.503   2.519   0.189  0.2057  0.4185  0.3337
  493TIP3    H122894   3.433   2.457   0.207  1.0410 -0.4519  0.6539
  493TIP3    H222895   3.459   2.603   0.180 -0.8890 -0.1348  0.4008
  494TIP3   OH222896   4.678   5.413  11.009  0.0361 -0.3608 -0.0803
  494TIP3    H122897   4.666   5.328  10.966  0.5104  0.1142 -1.2067
  494TIP3    H222898   4.770   5.434  10.994  0.2664 -0.2657  1.3788
  495TIP3   OH222899   6.040   6.184  14.126  0.6019 -0.1636  0.3817
  495TIP3    H122900   6.017   6.094  14.102  0.3905  0.2667 -1.1679
  495TIP3    H222901   5.973   6.210  14.190  1.4643 -1.5266  1.9128
  496TIP3   OH222902   4.167   2.126   2.848  0.6266 -0.4315  0.2189
  496TIP3    H122903   4.090   2.169   2.809  0.2561 -0.3892  0.9776
  496TIP3    H222904   4.240   2.183   2.825  0.3233 -0.0764  0.1183
  497TIP3   OH222905   5.779   1.654   1.917 -0.1950 -0.2481 -0.0215
  497TIP3    H122906   5.683   1.658   1.917 -0.2135 -0.6609 -0.2537
  497TIP3    H222907   5.807   1.744   1.904 -0.5660 -0.2542 -0.9899
  498TIP3   OH222908   2.292   1.634   1.067 -0.3495  0.3508  0.2342
  498TIP3    H122909   2.229   1.697   1.103 -1.2335 -0.1293 -0.4296
  498TIP3    H222910   2.340   1.602   1.143 -1.1587  0.4598  0.8043
  499TIP3   OH222911   2.448   2.158   5.844  0.8217  0.3417 -0.3329
  499TIP3    H122912   2.535   2.162   5.804 -0.0190 -2.6134 -2.8254
  499TIP3    H222913   2.392   2.207   5.784  0.0996 -1.3911 -1.1407
  500TIP3   OH222914   0.853   2.370   0.855  0.4749 -0.0695  0.9027
  500TIP3    H122915   0.770   2.404   0.888  0.6461  0.3473  0.9102
  500TIP3    H222916   0.866   2.415   0.772  0.1112 -1.0176  0.3129
  501TIP3   OH222917   4.031   0.372  16.641 -0.3209  0.0722  0.1760
  501TIP3    H122918   4.054   0.465  16.653 -0.2669 -0.2129  3.1111
  501TIP3    H222919   3.936   0.372  16.635 -0.2608  0.3825 -0.9514
  502TIP3   OH222920   1.049   4.223  16.580  0.0998 -0.5488  1.0231
  502TIP3    H122921   1.047   4.222  16.484 -2.7120  1.2653  0.9172
  502TIP3    H222922   1.134   4.261  16.602  0.4483 -0.1584 -0.7966
  503TIP3   OH222923   5.748   6.110   4.357  0.5460  0.3161  0.2007
  503TIP3    H122924   5.709   6.195   4.380  0.3721  0.0443  0.9436
  503TIP3    H222925   5.678   6.062   4.313  0.4497  0.3265  0.3420
  504TIP3   OH222926   1.083   5.150   5.102 -0.7492  0.3214 -0.3991
  504TIP3    H122927   1.103   5.237   5.137 -2.4795  0.4291  0.4050
  504TIP3    H222928   1.163   5.100   5.117 -0.2963  1.3074  0.6570
  505TIP3   OH222929   6.312   0.578  12.589  0.3825 -0.5087 -0.4754
  505TIP3    H122930   6.276   0.526  12.661 -1.1305 -0.5537 -1.2085
  505TIP3    H222931   6.405   0.586  12.608 -0.1261  0.3008  1.9644
  506TIP3   OH222932   4.415   4.478  10.836  0.0882  0.0479 -0.2843
  506TIP3    H122933   4.462   4.405  10.877  1.9159  1.5629  0.4854
  506TIP3    H222934   4.323   4.458  10.850  0.4239 -2.8658 -1.4757
  507TIP3   OH222935   5.889   5.365   5.826  0.2017  0.1293  0.4167
  507TIP3    H122936   5.798   5.364   5.796  0.2539  1.8818  0.0960
  507TIP3    H222937   5.941   5.359   5.746  0.3465  0.9447  0.4392
  508TIP3   OH222938   5.762   3.612   1.108 -0.2283 -0.0744 -0.1854
  508TIP3    H122939   5.844   3.590   1.064 -0.6826 -2.9172  0.2378
  508TIP3    H222940   5.775   3.585   1.199 -1.6497 -0.6686 -0.1328
  509TIP3   OH222941   5.731   3.469   5.810  0.6814  0.1558 -0.0174
  509TIP3    H122942   5.744   3.378   5.835  2.3798  0.2939 -0.3303
  509TIP3    H222943   5.703   3.465   5.718 -1.6414 -0.1321  0.6327
  510TIP3   OH222944   0.052   4.816   4.124  0.3135 -0.1383  0.5481
  510TIP3    H122945  -0.008   4.773   4.185  0.8659 -0.7905  0.6453
  510TIP3    H222946   0.137   4.775   4.140  0.5214 -0.1629 -0.4975
  511TIP3   OH222947   2.149   6.567   3.682 -0.1164  0.2383  0.2826
  511TIP3    H122948   2.181   6.623   3.612  0.9120 -1.0740 -0.3379
  511TIP3    H222949   2.218   6.568   3.748  0.7675 -1.6362 -0.5233
  512TIP3   OH222950   5.282   5.633   2.081 -0.5614  0.5798  0.3839
  512TIP3    H122951   5.245   5.569   2.143 -0.3456 -0.1349 -0.2188
  512TIP3    H222952   5.209   5.654   2.023 -0.6758  1.0189  0.6727
  513TIP3   OH222953   3.797   3.366   5.891  0.3158 -0.2312  0.3732
  513TIP3    H122954   3.874   3.354   5.835  0.0835  1.1104 -0.2702
  513TIP3    H222955   3.761   3.278   5.900  1.2388 -0.7094 -0.3089
  514TIP3   OH222956   0.658   5.442  15.305 -0.5554 -0.3114  0.2251
  514TIP3    H122957   0.744   5.463  15.343 -0.3825  2.6230 -1.4712
  514TIP3    H222958   0.617   5.386  15.370  1.5772  0.4572  2.4153
  515TIP3   OH222959   0.897   5.345  10.383  0.2616 -0.0118 -0.2731
  515TIP3    H122960   0.887   5.440  10.387 -0.0291 -0.0844  1.7027
  515TIP3    H222961   0.924   5.328  10.293  0.2887  1.9285 -0.6866
  516TIP3   OH222962   4.709   0.125  12.455 -0.6840 -0.4028  0.7189
  516TIP3    H122963   4.795   0.149  12.422  0.0549 -1.2116  1.9614
  516TIP3    H222964   4.679   0.056  12.396  0.3547 -1.4189  1.3332
  517TIP3   OH222965   4.987   0.738   1.192  0.0684  0.3564  0.1869
  517TIP3    H122966   4.917   0.795   1.223 -0.2758 -0.5746  1.1967
  517TIP3    H222967   5.060   0.755   1.251  0.2023  0.2656  0.0490
  518TIP3   OH222968   4.713   4.886   5.172  0.4359 -0.0960  0.2739
  518TIP3    H122969   4.670   4.904   5.255 -2.2764 -1.5071 -0.6906
  518TIP3    H222970   4.733   4.792   5.175 -0.0227 -0.2405 -0.7865
  519TIP3   OH222971   2.645   2.175   2.575 -0.3204 -0.2169  0.3608
  519TIP3    H122972   2.604   2.099   2.616  1.5355 -1.1470  0.5733
  519TIP3    H222973   2.579   2.207   2.513 -0.7181 -2.7119 -0.6078
  520TIP3   OH222974   4.619   2.426  16.068  0.2567  0.0163 -0.1053
  520TIP3    H122975   4.678   2.414  16.143 -1.3056  1.0651  1.3621
  520TIP3    H222976   4.547   2.478  16.103 -1.5265 -1.1604 -1.8604
  521TIP3   OH222977   4.497   5.261  11.447  0.0712 -0.2732  0.4722
  521TIP3    H122978   4.587   5.285  11.424 -0.4452  0.4453 -0.8704
  521TIP3    H222979   4.472   5.325  11.513  0.6712 -0.7482  1.1877
  522TIP3   OH222980   6.149   3.391  13.725 -0.0672 -0.1886  0.3380
  522TIP3    H122981   6.175   3.481  13.708 -0.5728  0.1605  1.3848
  522TIP3    H222982   6.165   3.346  13.642  1.2911  0.5976  0.1476
  523TIP3   OH222983   3.668   3.005  12.151 -0.0824 -1.1185  0.1845
  523TIP3    H122984   3.734   3.070  12.128 -0.2389 -1.0074  0.0482
  523TIP3    H222985   3.615   3.048  12.218 -0.4661 -0.9337 -0.2335
  524TIP3   OH222986   4.288   5.262   3.265  0.7121 -0.2486  0.0740
  524TIP3    H122987   4.269   5.273   3.172  2.7187 -0.4192 -0.3883
  524TIP3    H222988   4.313   5.171   3.274 -0.7207 -0.5845  1.0614
  525TIP3   OH222989   3.517   6.326  13.098 -0.1423  0.1826  0.3884
  525TIP3    H122990   3.477   6.252  13.052  0.2942 -0.3532  0.8618
  525TIP3    H222991   3.611   6.311  13.091  0.0091  1.4489 -0.7309
  526TIP3   OH222992   0.795   1.310  12.719  1.1087 -0.4059  0.1294
  526TIP3    H122993   0.860   1.357  12.666  0.2654 -0.0180 -0.5766
  526TIP3    H222994   0.728   1.375  12.738 -0.2707 -1.3746 -1.1803
  527TIP3   OH222995   6.230   2.129  13.306  0.3624  0.0229  0.3823
  527TIP3    H122996   6.317   2.163  13.284 -0.1150  0.6426 -0.6337
  527TIP3    H222997   6.205   2.177  13.385  0.1194  1.3484 -0.4659
  528TIP3   OH222998   5.734   2.387   4.586  0.0975  0.1637 -0.1994
  528TIP3    H122999   5.788   2.318   4.623 -1.5651 -0.2010  1.6879
  528TIP3    H223000   5.793   2.434   4.527  1.6191 -2.0268 -0.5391
  529TIP3   OH223001   0.112   6.407  15.534  0.3257  0.1318  0.1011
  529TIP3    H123002   0.133   6.493  15.499 -0.2758 -0.3027 -1.3975
  529TIP3    H223003   0.017   6.402  15.533  0.3593 -0.9770 -1.0146
  530TIP3   OH223004   1.955   0.465   3.504  0.1917  0.5150  0.1441
  530TIP3    H123005   1.964   0.541   3.562  2.8771 -0.0553  0.6097
  530TIP3    H223006   1.864   0.437   3.515 -1.0468  3.8823 -0.3998
  531TIP3   OH223007   4.209   3.112  16.100 -0.7225 -0.0738  0.5333
  531TIP3    H123008   4.222   3.143  16.189 -1.8533  0.1977  0.6191
  531TIP3    H223009   4.251   3.026  16.097  1.5577  0.9734  0.5816
  532TIP3   OH223010   3.982   6.167   2.502  0.6899 -0.3548 -0.0103
  532TIP3    H123011   3.905   6.222   2.485  0.2295 -1.3204 -1.2886
  532TIP3    H223012   4.020   6.201   2.582 -1.3919 -0.1893  0.9561
  533TIP3   OH223013   5.125   1.901   6.084 -0.4732 -0.3419  0.0612
  533TIP3    H123014   5.183   1.892   6.160 -0.9661  2.6018  0.9274
  533TIP3    H223015   5.037   1.896   6.121 -0.7333 -0.6598 -0.5895
  534TIP3   OH223016   5.529   5.517   1.660  0.0159  0.4359  0.4744
  534TIP3    H123017   5.435   5.505   1.648  0.1894 -2.0644  0.9724
  534TIP3    H223018   5.552   5.587   1.600 -1.8706 -0.1192 -1.0159
  535TIP3   OH223019   5.678   1.547   0.513  0.5138 -0.6659 -0.2660
  535TIP3    H123020   5.744   1.491   0.554 -0.2144 -0.3104  1.4740
  535TIP3    H223021   5.729   1.615   0.468  1.3646 -0.4797  0.9299
  536TIP3   OH223022   1.842   0.999  12.799  0.2833  0.6529 -0.2953
  536TIP3    H123023   1.898   0.938  12.847  0.5428 -0.1333 -1.5324
  536TIP3    H223024   1.765   1.011  12.854 -0.5493 -2.1297 -0.7161
  537TIP3   OH223025   5.375   1.393  16.034 -0.2687 -0.3001  0.0458
  537TIP3    H123026   5.347   1.459  16.096 -1.3825 -0.1707 -0.5753
  537TIP3    H223027   5.469   1.411  16.021 -0.3111  0.4516  0.7102
  538TIP3   OH223028   1.721   3.323  14.170  0.1385 -0.3394  0.0051
  538TIP3    H123029   1.765   3.321  14.085  0.5712  2.1048  0.0907
  538TIP3    H223030   1.635   3.286  14.152  0.4813 -0.5660 -1.3429
  539TIP3   OH223031   5.647   3.446  11.772 -0.1699  0.0720  0.3817
  539TIP3    H123032   5.655   3.387  11.697 -0.4201 -0.4398  0.7515
  539TIP3    H223033   5.695   3.403  11.842 -0.0436  0.4885  0.5545
  540TIP3   OH223034   1.494   2.292   5.182 -0.2552 -0.2898  0.4272
  540TIP3    H123035   1.515   2.222   5.243  0.0390  0.4729  1.2200
  540TIP3    H223036   1.491   2.371   5.236 -0.0580  0.3922 -0.5358
  541TIP3   OH223037   1.506   2.478   1.498 -0.4764 -0.2019  0.4284
  541TIP3    H123038   1.542   2.400   1.458 -2.4360 -1.2427  0.5796
  541TIP3    H223039   1.425   2.495   1.450 -0.2244  1.6154  0.5562
  542TIP3   OH223040   3.751   6.126   2.911 -0.1768  0.1946 -0.5553
  542TIP3    H123041   3.711   6.104   2.827  0.7381  1.7205 -1.4263
  542TIP3    H223042   3.839   6.156   2.889 -0.3415  1.8279  0.7990
  543TIP3   OH223043   2.027   4.926  14.695  0.0945  0.5451 -0.0659
  543TIP3    H123044   2.072   4.849  14.730  0.8648  0.4970 -1.1009
  543TIP3    H223045   1.998   4.975  14.772  1.5246  0.3403  0.6311
  544TIP3   OH223046   0.132   4.463   0.682  0.2586  0.9842 -0.7395
  544TIP3    H123047   0.057   4.417   0.721  1.1071  0.4545  0.3093
  544TIP3    H223048   0.138   4.545   0.731 -0.2636  1.5032 -1.5270
  545TIP3   OH223049   1.185   2.992   3.690  0.5759  0.1777  0.8633
  545TIP3    H123050   1.161   2.972   3.599 -0.4836  0.7060  1.0026
  545TIP3    H223051   1.280   3.004   3.688  0.5136  0.6251 -0.2669
  546TIP3   OH223052   5.506   6.596  13.304  0.3158 -0.0054 -0.3618
  546TIP3    H123053   5.545   6.600  13.391  0.4873  0.1083 -0.4451
  546TIP3    H223054   5.412   6.611  13.320  0.5323  1.5388 -0.3489
  547TIP3   OH223055   2.938   4.897  11.870  0.1737  0.1160 -0.8776
  547TIP3    H123056   2.959   4.984  11.835  1.5720 -0.0974 -0.6488
  547TIP3    H223057   2.887   4.915  11.949 -0.0198  0.7103 -1.1340
  548TIP3   OH223058   5.433   1.240  13.364 -0.3697 -0.4085 -0.1286
  548TIP3    H123059   5.482   1.211  13.440 -0.4292 -0.1917 -0.0079
  548TIP3    H223060   5.458   1.332  13.352 -1.0564 -0.1685  0.1874
  549TIP3   OH223061   4.044   1.834  17.052 -0.2505 -0.0755 -0.0253
  549TIP3    H123062   3.990   1.851  17.130  0.9984  0.8393  0.6713
  549TIP3    H223063   4.071   1.743  17.060  1.3255  0.4823  1.5884
  550TIP3   OH223064   1.669   4.951   2.291  0.4014  0.2834  0.1486
  550TIP3    H123065   1.602   4.896   2.250 -0.6189  0.4516  1.5071
  550TIP3    H223066   1.670   5.031   2.239 -0.1964  0.1258 -0.1157
  551TIP3   OH223067   4.696   1.235  16.107 -0.3085 -0.2489 -0.0248
  551TIP3    H123068   4.632   1.281  16.162  0.3185 -0.4820  0.9381
  551TIP3    H223069   4.651   1.155  16.081 -2.3003  1.8254 -3.6806
  552TIP3   OH223070   3.516   3.903  15.125 -0.7574 -0.0312  0.0895
  552TIP3    H123071   3.533   3.899  15.031  0.9261 -0.3047  0.3605
  552TIP3    H223072   3.422   3.917  15.133 -0.9831 -0.4140 -1.6243
  553TIP3   OH223073   2.925   4.710  13.552 -0.0721  0.5330 -0.3075
  553TIP3    H123074   2.971   4.711  13.468  0.9932  2.3322  0.2350
  553TIP3    H223075   2.972   4.646  13.605  0.2918  0.5890 -0.5581
  554TIP3   OH223076   5.235   3.043  17.303 -0.0582 -0.2718  0.4338
  554TIP3    H123077   5.174   3.027  17.375  1.2874 -1.5490  1.3464
  554TIP3    H223078   5.256   2.956  17.270  0.6154  0.2050 -0.4416
  555TIP3   OH223079   2.523   3.219   2.360  0.2699  0.0755 -0.2097
  555TIP3    H123080   2.504   3.213   2.266 -0.1080 -1.3712 -0.0727
  555TIP3    H223081   2.598   3.161   2.372 -0.1235 -0.2916  0.4932
  556TIP3   OH223082   2.903   2.520   5.321  0.1669 -0.2465 -0.1640
  556TIP3    H123083   2.856   2.498   5.240  1.8449  1.3053 -1.6441
  556TIP3    H223084   2.886   2.614   5.334 -1.0828 -0.6990  2.0472
  557TIP3   OH223085   2.846   6.055   1.132 -0.2190 -0.3435 -0.3199
  557TIP3    H123086   2.942   6.050   1.130 -0.2276 -0.4825 -0.4788
  557TIP3    H223087   2.818   5.964   1.125 -0.3528 -0.4400  1.1397
  558TIP3   OH223088   5.177   0.145  11.402  0.0778 -0.2299  0.0712
  558TIP3    H123089   5.113   0.075  11.387  1.2526 -1.3457  0.0483
  558TIP3    H223090   5.225   0.117  11.480  0.1765  0.8580  0.4084
  559TIP3   OH223091   6.559   3.080   6.058 -0.2277  0.3904 -0.1503
  559TIP3    H123092   6.520   3.044   5.979  2.3908 -0.3125 -1.2277
  559TIP3    H223093   6.513   3.163   6.072 -1.0202  0.3427 -2.1499
  560TIP3   OH223094   0.622   1.388   0.894 -0.7534  0.1969 -0.4204
  560TIP3    H123095   0.594   1.302   0.863 -1.6966 -0.4758  2.0760
  560TIP3    H223096   0.701   1.370   0.945  1.2385  1.3735 -2.8808
  561TIP3   OH223097   4.850   4.018   1.781 -0.3467  0.2932 -0.8009
  561TIP3    H123098   4.871   4.111   1.791  2.6650 -0.3073 -0.4725
  561TIP3    H223099   4.898   3.992   1.702 -1.8391 -0.8412 -1.3794
  562TIP3   OH223100   4.348   0.264   6.356  0.5277  0.0088  0.1862
  562TIP3    H123101   4.395   0.340   6.390  0.9606 -0.6552  1.1133
  562TIP3    H223102   4.410   0.191   6.365  0.0246 -0.5094 -0.4281
  563TIP3   OH223103   4.877   6.344   4.994 -0.4225 -0.3508  0.4237
  563TIP3    H123104   4.961   6.370   4.957 -1.1056  2.0765  0.4172
  563TIP3    H223105   4.821   6.327   4.919  0.4349 -3.7477  0.3860
  564TIP3   OH223106   5.696   0.255   0.021  0.0897 -0.3173  0.3495
  564TIP3    H123107   5.611   0.240   0.061 -0.2447  1.3125  0.3183
  564TIP3    H223108   5.750   0.290   0.092 -0.1950  1.5814 -0.3338
  565TIP3   OH223109   2.725   1.201  13.773  0.2942 -0.0544  0.0166
  565TIP3    H123110   2.661   1.207  13.702 -0.0668 -2.6319  0.0139
  565TIP3    H223111   2.740   1.107  13.783  3.1909  0.4015  0.8415
  566TIP3   OH223112   2.953   5.489  16.888  0.2698  0.5937  0.4665
  566TIP3    H123113   2.930   5.470  16.797  1.5049 -2.0096  0.6154
  566TIP3    H223114   2.900   5.428  16.939  0.4604  1.2117  1.4274
  567TIP3   OH223115   0.849   6.704  17.538 -0.0100 -0.0601 -0.4401
  567TIP3    H123116   0.821   6.731  17.451 -1.5021  1.7653  0.5438
  567TIP3    H223117   0.908   6.773  17.568 -0.3776 -0.1109  0.4318
  568TIP3   OH223118   2.435   4.914  10.979 -0.2167  0.0203 -0.2513
  568TIP3    H123119   2.409   4.926  10.887 -2.8632  0.1924  0.4453
  568TIP3    H223120   2.382   4.978  11.027  1.1240 -0.0667  1.4239
  569TIP3   OH223121   3.828   2.749   6.593 -0.0038 -0.6997 -0.3686
  569TIP3    H123122   3.884   2.747   6.515 -2.9939  3.1297 -3.0095
  569TIP3    H223123   3.886   2.777   6.663  1.9884  0.2745 -2.2773
  570TIP3   OH223124   1.817   0.308   3.300  0.2981  0.0645  0.0580
  570TIP3    H123125   1.861   0.223   3.295 -0.6992 -0.4790  0.2249
  570TIP3    H223126   1.887   0.370   3.317  1.1306 -0.6417 -0.6540
  571TIP3   OH223127   2.941   1.927   5.367 -0.0957 -0.4806  0.5388
  571TIP3    H123128   2.869   1.948   5.427 -0.5222 -0.0210 -0.1234
  571TIP3    H223129   2.958   1.834   5.382  1.3924  0.0972  3.0609
  572TIP3   OH223130   1.441   1.669  15.474 -0.7660  0.2062  0.3912
  572TIP3    H123131   1.471   1.594  15.526  1.1429  1.4301  1.1691
  572TIP3    H223132   1.516   1.692  15.420 -0.6023  2.6770  1.5296
  573TIP3   OH223133   1.309   5.184  16.235 -0.0041  0.0261  0.2386
  573TIP3    H123134   1.360   5.246  16.183  1.5161  0.1751  1.8183
  573TIP3    H223135   1.272   5.237  16.305 -0.5803 -0.4628  0.3072
  574TIP3   OH223136   6.644   4.605   1.356 -0.5414 -0.1206  0.3516
  574TIP3    H123137   6.656   4.519   1.315 -2.3603  0.2373 -1.0644
  574TIP3    H223138   6.660   4.590   1.449 -1.7440 -2.2249  0.2830
  575TIP3   OH223139   5.896   0.936  13.109  0.3612  0.2674  0.0002
  575TIP3    H123140   5.950   0.984  13.046  0.2087 -0.2509 -0.5294
  575TIP3    H223141   5.806   0.947  13.077  0.3594 -0.6843 -0.3433
  576TIP3   OH223142   4.400   3.136  16.790 -0.0857 -0.2203 -0.0244
  576TIP3    H123143   4.406   3.041  16.778 -1.6200 -0.2476 -0.8857
  576TIP3    H223144   4.376   3.147  16.882 -1.6166 -0.7903 -0.3263
  577TIP3   OH223145   1.218   5.288   6.427 -0.4935 -0.4496  0.0860
  577TIP3    H123146   1.216   5.324   6.516 -0.1751 -0.7981  0.2368
  577TIP3    H223147   1.190   5.197   6.437  0.3043 -0.7245 -0.0481
  578TIP3   OH223148   0.184   5.937   3.833 -0.6564 -0.1007 -0.0455
  578TIP3    H123149   0.141   5.942   3.748  0.2378  1.3442 -0.4440
  578TIP3    H223150   0.163   6.019   3.877  1.8878  0.8491 -0.4059
  579TIP3   OH223151   3.938   0.625   0.915  0.0480  0.3706 -0.5127
  579TIP3    H123152   4.006   0.561   0.894 -1.1237 -1.4336  0.8062
  579TIP3    H223153   3.868   0.607   0.852 -0.0252  0.8022 -0.5548
  580TIP3   OH223154   5.663   6.213   2.949  0.6943 -0.3879 -0.0926
  580TIP3    H123155   5.678   6.120   2.932  1.1404 -0.3398  0.0107
  580TIP3    H223156   5.658   6.220   3.044  0.1070 -0.3855 -0.1231
  581TIP3   OH223157   6.522   6.570  15.867  0.2010  0.5858  0.3310
  581TIP3    H123158   6.610   6.607  15.865  0.2809  0.3790 -0.5163
  581TIP3    H223159   6.466   6.642  15.897  0.3799  1.3664 -1.1329
  582TIP3   OH223160   2.073   4.887  15.383  0.3044  0.2106 -0.0060
  582TIP3    H123161   2.109   4.892  15.294 -1.7141 -0.9576 -0.9550
  582TIP3    H223162   2.118   4.813  15.423 -0.0336 -0.3617 -0.6765
  583TIP3   OH223163   5.663   0.125   3.610 -0.3656 -0.0992  0.3803
  583TIP3    H123164   5.680   0.211   3.650 -1.1140 -0.5394  1.6852
  583TIP3    H223165   5.599   0.143   3.541  0.0737  0.5023  0.1213
  584TIP3   OH223166   5.667   0.606  12.309  0.1990 -0.1435 -0.0515
  584TIP3    H123167   5.625   0.575  12.389  0.8220  0.1911  0.4150
  584TIP3    H223168   5.622   0.687  12.288  0.3311 -0.0027  0.2087
  585TIP3   OH223169   0.192   2.508  14.661 -0.3028  0.1853  0.1672
  585TIP3    H123170   0.102   2.537  14.648  0.2724  1.1946 -2.1744
  585TIP3    H223171   0.242   2.589  14.676  0.6018 -0.0091 -1.5145
  586TIP3   OH223172   1.075   1.276   5.258 -0.0881 -0.1732 -0.4886
  586TIP3    H123173   1.084   1.187   5.224  0.0850 -0.4734  0.3198
  586TIP3    H223174   1.043   1.265   5.347 -0.1518  0.5782 -0.4121
  587TIP3   OH223175   2.150   0.177   4.041 -0.9556  0.0374 -0.2040
  587TIP3    H123176   2.135   0.266   4.009  0.3311 -0.3083 -1.8917
  587TIP3    H223177   2.220   0.142   3.985 -1.3498 -2.0050  0.4814
  588TIP3   OH223178   0.712   3.915  12.078 -0.3390  0.2817  0.3982
  588TIP3    H123179   0.632   3.883  12.119 -1.1542  0.5683 -0.8991
  588TIP3    H223180   0.772   3.841  12.081 -1.2336 -0.4831 -0.0996
  589TIP3   OH223181   2.884   5.865  15.188  0.3243  0.1450  0.4100
  589TIP3    H123182   2.807   5.850  15.244 -1.3563 -0.6807 -1.9316
  589TIP3    H223183   2.959   5.849  15.245 -1.2649 -2.3824  1.9959
  590TIP3   OH223184   3.914   4.256  11.970 -0.0512  0.3750 -0.2550
  590TIP3    H123185   3.892   4.163  11.971 -1.8419  0.7630 -0.1937
  590TIP3    H223186   3.957   4.271  12.053  3.3075 -1.0125 -1.5748
  591TIP3   OH223187   1.321   0.489   3.322  0.2153 -0.1107  0.2592
  591TIP3    H123188   1.382   0.416   3.327 -0.2459 -0.5628 -0.4336
  591TIP3    H223189   1.332   0.524   3.234  2.0981  2.1825  1.2973
  592TIP3   OH223190   2.973   2.836   6.816 -0.3807  0.0374 -0.5464
  592TIP3    H123191   3.032   2.769   6.781 -0.8288 -0.1456 -0.9669
  592TIP3    H223192   2.988   2.835   6.910  0.6284  0.3230 -0.7005
  593TIP3   OH223193   2.204   3.738   2.089 -0.3431  0.0817 -0.4338
  593TIP3    H123194   2.238   3.827   2.100  0.3063 -0.0321 -1.4215
  593TIP3    H223195   2.125   3.748   2.036 -0.7836  0.1454  0.2163
  594TIP3   OH223196   3.272   5.893  13.168 -0.3135  0.3356 -0.4962
  594TIP3    H123197   3.362   5.894  13.201 -1.2813 -1.8387  2.7193
  594TIP3    H223198   3.263   5.809  13.125 -1.5943 -1.0712  2.2477
  595TIP3   OH223199   0.278   2.914  17.349  0.2790  0.2463  0.6149
  595TIP3    H123200   0.251   2.963  17.272  1.7907 -0.3893 -0.3770
  595TIP3    H223201   0.301   2.980  17.414  1.9073  0.8922 -0.5624
  596TIP3   OH223202   6.620   5.823   4.354 -0.5196 -0.5640  0.2345
  596TIP3    H123203   6.610   5.753   4.289 -0.5828 -0.1385 -0.2225
  596TIP3    H223204   6.583   5.901   4.311  0.8270  0.0780  0.1814
  597TIP3   OH223205   4.863   4.231   4.710  0.2688 -0.2646  0.2697
  597TIP3    H123206   4.913   4.200   4.785 -1.2719 -0.2706  1.3519
  597TIP3    H223207   4.832   4.151   4.667  1.9034 -0.2922 -0.9800
  598TIP3   OH223208   4.495   5.553   5.320  0.1526  0.4672 -0.8427
  598TIP3    H123209   4.558   5.619   5.348  1.4628 -0.8258 -0.6141
  598TIP3    H223210   4.546   5.495   5.263 -1.4450  0.7320 -2.6030
  599TIP3   OH223211   0.899   0.468   5.178 -0.0796  0.8554  0.0374
  599TIP3    H123212   0.838   0.508   5.117 -0.2486  0.4399 -0.0630
  599TIP3    H223213   0.844   0.426   5.244 -0.0253 -2.2969 -1.7466
  600TIP3   OH223214   0.151   6.039  16.744  0.1887  0.0098  0.1776
  600TIP3    H123215   0.233   6.056  16.697  0.0816  0.5658  0.1796
  600TIP3    H223216   0.176   5.982  16.816  0.7330  0.8389  0.6650
  601TIP3   OH223217   2.210   0.866   1.208 -0.2522  0.1116  0.0297
  601TIP3    H123218   2.213   0.791   1.267  1.5853 -0.2289 -0.4376
  601TIP3    H223219   2.245   0.834   1.126 -0.6378  1.1697 -0.5736
  602TIP3   OH223220   2.818   2.681  15.748 -0.0596 -0.1687  0.1599
  602TIP3    H123221   2.871   2.602  15.759  1.1197  0.7766  1.4826
  602TIP3    H223222   2.765   2.662  15.671  1.2346 -1.6811 -0.4303
  603TIP3   OH223223   1.112   4.484  12.949 -0.3782  0.2377  0.4086
  603TIP3    H123224   1.094   4.549  13.017 -0.9403 -0.7041  1.1946
  603TIP3    H223225   1.121   4.401  12.997  0.0442 -0.3144 -0.5907
  604TIP3   OH223226   0.743   2.332   4.598 -0.1806 -0.4305 -0.8207
  604TIP3    H123227   0.833   2.361   4.616  0.4769 -2.5865 -0.3291
  604TIP3    H223228   0.706   2.314   4.684 -1.6759  1.8570 -0.8976
  605TIP3   OH223229   0.273   5.026   5.020 -0.3175  0.2420 -0.7060
  605TIP3    H123230   0.248   4.961   5.086 -1.8069 -0.8026 -2.2246
  605TIP3    H223231   0.273   5.109   5.068 -0.4021 -0.5912  0.8147
  606TIP3   OH223232   2.531   3.913  16.450 -0.2845  0.4828 -0.1412
  606TIP3    H123233   2.544   3.931  16.543  0.1853  1.1456 -0.3254
  606TIP3    H223234   2.589   3.975  16.405  1.2521 -1.3220 -0.8248
  607TIP3   OH223235   4.924   3.155  15.973 -0.4924 -0.4004  0.3484
  607TIP3    H123236   4.941   3.231  15.918  1.9489 -2.0899 -1.4574
  607TIP3    H223237   4.862   3.103  15.923 -0.0704 -0.8431  0.2783
  608TIP3   OH223238   2.825   4.275  12.280  0.7574 -0.0815  0.5020
  608TIP3    H123239   2.784   4.345  12.330  1.0290 -0.7149  1.6463
  608TIP3    H223240   2.757   4.247  12.218  0.0393  0.0298  1.2203
  609TIP3   OH223241   2.549   3.415  13.560 -0.1324 -0.5217 -0.1196
  609TIP3    H123242   2.495   3.337  13.557  0.0729 -0.6528 -0.6103
  609TIP3    H223243   2.630   3.390  13.516 -0.2730  0.1161 -0.7769
  610TIP3   OH223244   4.517   5.874  16.285 -0.6515 -0.0243  0.2534
  610TIP3    H123245   4.562   5.836  16.361  0.5024  1.2958  0.2657
  610TIP3    H223246   4.533   5.968  16.292  0.4879  0.0389 -2.2671
  611TIP3   OH223247   3.140   1.498   0.429  0.1846 -0.0348  0.3982
  611TIP3    H123248   3.091   1.502   0.346 -1.4790  0.3488  1.3425
  611TIP3    H223249   3.170   1.407   0.434 -1.2680 -0.5696  0.1849
  612TIP3   OH223250   2.384   1.540  11.800 -0.7207 -0.5408 -0.1537
  612TIP3    H123251   2.395   1.458  11.847 -2.4976  0.0300  1.3749
  612TIP3    H223252   2.449   1.599  11.838  0.4903 -1.1664 -1.1875
  613TIP3   OH223253   1.360   3.198   2.776 -0.2562  0.5614  0.0246
  613TIP3    H123254   1.398   3.149   2.704 -0.7838 -0.6845  0.5760
  613TIP3    H223255   1.435   3.223   2.830 -0.1130 -1.2855  0.7409
  614TIP3   OH223256   2.026   2.748  14.556  0.7166  0.6158 -0.5274
  614TIP3    H123257   1.987   2.763  14.470  0.0324 -0.9154 -0.5227
  614TIP3    H223258   1.997   2.660  14.580  3.2669 -0.1640  0.0019
  615TIP3   OH223259   1.889   0.410  16.841  0.5024 -0.0395 -0.0963
  615TIP3    H123260   1.972   0.451  16.863 -0.0517  1.2590 -0.3289
  615TIP3    H223261   1.823   0.474  16.866 -0.2915  0.5600 -3.2899
  616TIP3   OH223262   1.432   3.068   0.189 -0.4753 -0.0453  0.4736
  616TIP3    H123263   1.355   3.113   0.152 -0.3009 -0.0207  0.1331
  616TIP3    H223264   1.395   2.996   0.240 -0.7044 -0.8325 -0.7444
  617TIP3   OH223265   5.868   5.021   1.536  0.2825  0.1330 -0.8636
  617TIP3    H123266   5.946   4.966   1.548 -1.6582 -2.8733 -0.9076
  617TIP3    H223267   5.861   5.031   1.441  0.3130 -0.0602 -0.8864
  618TIP3   OH223268   6.194   4.002   0.393  0.3087  0.4701 -0.0144
  618TIP3    H123269   6.265   4.063   0.372  0.3437  0.2834 -0.4688
  618TIP3    H223270   6.163   3.972   0.307 -1.2100  1.5574  0.1148
  619TIP3   OH223271   1.153   2.217   5.007  0.5109  0.1538  0.5116
  619TIP3    H123272   1.058   2.208   5.006  0.5093  0.0661  0.9491
  619TIP3    H223273   1.170   2.298   4.958  0.2385 -0.0115  0.1379
  620TIP3   OH223274   2.535   0.676   5.518 -0.0350 -0.7591 -0.5703
  620TIP3    H123275   2.578   0.654   5.600  2.0880  0.6923 -1.1964
  620TIP3    H223276   2.530   0.772   5.519  2.5641 -0.4507 -3.1988
  621TIP3   OH223277   5.284   0.630  12.006 -0.2174  0.3810  0.0243
  621TIP3    H123278   5.202   0.654  12.050  0.6696  2.0992  0.8167
  621TIP3    H223279   5.288   0.535  12.013 -1.7860  0.3359  0.6231
  622TIP3   OH223280   3.541   0.305  14.023  0.4891  0.5624  0.4780
  622TIP3    H123281   3.481   0.309  14.097 -0.6884 -1.6341 -0.2336
  622TIP3    H223282   3.606   0.240  14.049  0.6274  0.4946 -0.0329
  623TIP3   OH223283   4.318   2.926   3.550 -0.1499 -0.1405  0.1330
  623TIP3    H123284   4.362   3.000   3.509 -0.5991  0.1779  0.2268
  623TIP3    H223285   4.341   2.933   3.642  0.9695 -0.9321 -0.0604
  624TIP3   OH223286   4.431   5.975  12.332 -0.7624  0.1902 -0.2488
  624TIP3    H123287   4.475   6.010  12.254  0.4312 -1.2495 -0.2762
  624TIP3    H223288   4.444   6.042  12.399  1.1084  0.0562 -0.4096
  625TIP3   OH223289   4.662   0.510   4.584 -0.3662 -0.0530 -0.1313
  625TIP3    H123290   4.664   0.415   4.593  0.5478 -0.0235  0.0254
  625TIP3    H223291   4.654   0.542   4.674  2.2188  0.0675  0.1402
  626TIP3   OH223292   0.397   0.917   0.206  0.4814  0.1794 -0.7235
  626TIP3    H123293   0.403   0.920   0.302 -0.6126  0.3076 -0.6548
  626TIP3    H223294   0.372   1.005   0.180 -0.7463 -0.2296 -1.0000
  627TIP3   OH223295   5.282   2.345  13.046  0.5237 -0.3624 -0.1246
  627TIP3    H123296   5.306   2.258  13.078 -0.7291 -0.4463  0.6575
  627TIP3    H223297   5.274   2.334  12.951 -0.5789 -1.3607  0.0595
  628TIP3   OH223298   5.522   0.925   6.175  0.0404  0.1448 -1.0587
  628TIP3    H123299   5.528   0.953   6.266  0.4904  1.2366 -1.4006
  628TIP3    H223300   5.476   0.841   6.178 -1.1674  0.8100  0.0532
  629TIP3   OH223301   1.231   3.040  10.668 -0.1473 -0.2200 -0.2188
  629TIP3    H123302   1.173   3.038  10.592 -1.0002 -0.3908  0.4167
  629TIP3    H223303   1.172   3.051  10.743  0.7980  2.5448  0.2582
  630TIP3   OH223304   2.951   1.991   2.405 -0.3265 -0.2888  0.1039
  630TIP3    H123305   2.982   1.906   2.435  1.3392  0.3000  0.1148
  630TIP3    H223306   2.933   2.040   2.485 -2.9921 -1.1477  0.1426
  631TIP3   OH223307   5.792   0.141   1.876  0.1398 -0.1385 -0.3923
  631TIP3    H123308   5.756   0.066   1.923 -1.2142  0.6590 -0.0937
  631TIP3    H223309   5.870   0.107   1.833 -0.4361 -1.7126 -0.2699
  632TIP3   OH223310   1.125   5.864  15.576  0.2166 -0.5413  0.4029
  632TIP3    H123311   1.141   5.934  15.513 -0.3451 -0.1677  0.6625
  632TIP3    H223312   1.191   5.797  15.556 -0.6921 -0.9691 -1.3735
  633TIP3   OH223313   6.134   1.213  13.552  0.0064  0.4672 -0.2372
  633TIP3    H123314   6.046   1.200  13.588  1.2467  0.8651  3.3520
  633TIP3    H223315   6.189   1.229  13.628  3.2778  0.0732 -2.3090
  634TIP3   OH223316   1.578   4.053   0.318  0.1715 -0.7072 -0.1307
  634TIP3    H123317   1.590   3.980   0.378 -1.4338 -0.1633  0.9042
  634TIP3    H223318   1.484   4.069   0.317  0.3792  0.6593 -1.1558
  635TIP3   OH223319   3.498   2.842   6.611  0.1816 -0.2801 -0.0555
  635TIP3    H123320   3.512   2.919   6.665 -1.5935 -0.1563  0.2906
  635TIP3    H223321   3.556   2.775   6.648  2.2178  1.0194 -0.7512
  636TIP3   OH223322   4.450   6.583   1.586  0.0264  0.5758 -0.3642
  636TIP3    H123323   4.433   6.676   1.572 -0.4501  0.5385 -0.0672
  636TIP3    H223324   4.364   6.541   1.574  0.0411  0.2943  0.4846
  637TIP3   OH223325   2.797   6.229   1.392 -0.0074 -0.2525 -1.0357
  637TIP3    H123326   2.845   6.164   1.445  0.8201  0.1393 -1.2939
  637TIP3    H223327   2.809   6.200   1.302 -0.6883 -0.4301 -1.0770
  638TIP3   OH223328   6.639   5.070  17.245 -0.0186 -0.8830 -0.5719
  638TIP3    H123329   6.570   5.129  17.275  1.5603 -0.0634  1.8281
  638TIP3    H223330   6.661   5.100  17.157 -1.5269 -0.0623 -0.6901
  639TIP3   OH223331   2.258   2.817   2.819  1.2122  0.5057  0.1615
  639TIP3    H123332   2.251   2.722   2.806  0.2643  0.3953  1.2825
  639TIP3    H223333   2.274   2.852   2.732 -0.1664 -0.5406 -0.5544
  640TIP3   OH223334   6.325   0.158  16.157  0.3235 -0.4059 -0.9904
  640TIP3    H123335   6.254   0.188  16.101  0.3609  0.9736 -0.3469
  640TIP3    H223336   6.307   0.198  16.242 -0.0660 -2.9096  0.2174
  641TIP3   OH223337   4.695   5.825   0.394 -0.5094  0.3672 -0.3088
  641TIP3    H123338   4.610   5.857   0.364 -0.8838 -1.1310 -0.8986
  641TIP3    H223339   4.708   5.742   0.349  0.6581 -0.0994  0.8017
  642TIP3   OH223340   4.466   4.380  13.888  0.0810  0.1924  0.2939
  642TIP3    H123341   4.551   4.347  13.919  0.0862 -0.1409 -0.0719
  642TIP3    H223342   4.471   4.475  13.901 -0.3888 -0.0306  2.4922
  643TIP3   OH223343   0.926   1.852   4.508 -0.1150 -0.2692  0.4465
  643TIP3    H123344   0.959   1.778   4.457 -0.3945 -0.2037  0.1707
  643TIP3    H223345   0.847   1.819   4.550 -1.5345  0.5377 -1.4941
  644TIP3   OH223346   6.193   3.040   5.035 -0.4261 -0.1341  0.8193
  644TIP3    H123347   6.252   2.973   5.001 -0.4028 -0.0186  0.6292
  644TIP3    H223348   6.233   3.069   5.117 -0.2790 -0.1396  0.7501
  645TIP3   OH223349   6.475   0.327  13.527 -0.0698  0.6413 -0.3643
  645TIP3    H123350   6.417   0.359  13.458  0.5439  1.0697 -0.6957
  645TIP3    H223351   6.432   0.352  13.609 -1.0374 -0.2799 -0.5695
  646TIP3   OH223352   6.033   0.490  12.553  0.1822  0.7012  0.1734
  646TIP3    H123353   6.125   0.462  12.553  0.4088  1.3750  1.3161
  646TIP3    H223354   6.034   0.574  12.508  0.5437  1.8488  2.2038
  647TIP3   OH223355   5.982   4.441  15.435 -0.3301  0.1077  0.3292
  647TIP3    H123356   5.955   4.364  15.386  0.8469 -0.3241  0.3313
  647TIP3    H223357   6.039   4.408  15.503 -0.0568  0.9530  0.5246
  648TIP3   OH223358   6.279   4.024   3.954 -0.0907 -0.0797 -0.0542
  648TIP3    H123359   6.374   4.026   3.954 -0.0799  1.1124  1.6477
  648TIP3    H223360   6.253   4.108   3.918 -0.4519  0.5497  1.5918
  649TIP3   OH223361   3.382   0.258  13.791 -0.2362  0.4665  0.0653
  649TIP3    H123362   3.431   0.270  13.873 -1.6569  1.3869  0.8261
  649TIP3    H223363   3.433   0.307  13.726  0.7047  0.0546  0.4669
  650TIP3   OH223364   4.415   4.342  14.371  0.0114 -0.1662 -0.2492
  650TIP3    H123365   4.455   4.382  14.448 -1.5113 -0.0874  0.5360
  650TIP3    H223366   4.341   4.399  14.350 -2.0895 -2.3391  0.7764
  651TIP3   OH223367   0.955   5.384   3.147  0.2843  0.0840 -0.0049
  651TIP3    H123368   0.999   5.299   3.151 -0.0135 -0.0359  0.9728
  651TIP3    H223369   0.889   5.374   3.079 -0.3271 -0.7493  0.6967
  652TIP3   OH223370   3.191   0.839   4.672  0.2219  0.2775  0.4888
  652TIP3    H123371   3.265   0.881   4.716 -0.8459  0.8855  1.7752
  652TIP3    H223372   3.120   0.842   4.736 -1.4731  1.3666 -1.3245
  653TIP3   OH223373   4.172   4.233   1.470  0.6323 -0.3189  0.3681
  653TIP3    H123374   4.217   4.177   1.533  0.0371 -2.5355 -1.0766
  653TIP3    H223375   4.238   4.251   1.403 -0.0710 -2.2332 -0.9217
  654TIP3   OH223376   3.211   4.866  11.754  0.3005 -0.2043  0.4719
  654TIP3    H123377   3.127   4.838  11.790  0.9212 -2.2112  0.4504
  654TIP3    H223378   3.250   4.786  11.719  1.1964  1.0826 -1.6636
  655TIP3   OH223379   3.504   4.298   4.874  0.0540  0.3908 -0.1604
  655TIP3    H123380   3.430   4.252   4.915 -1.3163  0.1658 -2.6753
  655TIP3    H223381   3.472   4.387   4.859 -0.1050  0.0528 -2.0828
  656TIP3   OH223382   5.820   4.815  11.063  0.0271  0.1765  0.3347
  656TIP3    H123383   5.835   4.871  10.986 -1.4245 -0.1012 -0.1912
  656TIP3    H223384   5.861   4.862  11.135 -0.0147  1.2804 -0.3278
  657TIP3   OH223385   3.210   5.791   5.854  0.3500  0.1676 -0.5346
  657TIP3    H123386   3.220   5.698   5.873  2.6853  0.2151 -1.2916
  657TIP3    H223387   3.196   5.831   5.940 -2.2982 -0.9796 -0.3392
  658TIP3   OH223388   1.630   0.456   3.050 -0.3327  0.4428  0.2882
  658TIP3    H123389   1.587   0.469   2.966  0.6890 -1.1118 -0.5060
  658TIP3    H223390   1.598   0.372   3.082 -0.2734  0.7468  1.2076
  659TIP3   OH223391   0.910   0.111  16.601  0.0337  0.1471  0.2289
  659TIP3    H123392   1.004   0.109  16.581 -0.2434  1.0362 -1.3851
  659TIP3    H223393   0.870   0.064  16.528 -0.8184  0.3818  0.5413
  660TIP3   OH223394   2.696   5.464  17.127  0.0751  0.3516  0.3374
  660TIP3    H123395   2.601   5.470  17.128  0.0843  1.7984 -1.3003
  660TIP3    H223396   2.717   5.416  17.047  0.7161 -0.4874  0.9928
  661TIP3   OH223397   0.140   6.539   4.892 -0.1201 -0.2849  0.1814
  661TIP3    H123398   0.086   6.510   4.966 -0.4042 -0.2773 -0.0238
  661TIP3    H223399   0.107   6.489   4.817 -1.2700  1.2663 -0.3843
  662TIP3   OH223400   6.451   5.869   1.466  0.1450  0.0905 -0.2875
  662TIP3    H123401   6.373   5.881   1.520 -0.1651  0.6853 -0.8494
  662TIP3    H223402   6.481   5.781   1.486 -0.1179  0.2090  0.6486
  663TIP3   OH223403   4.437   5.582  17.343 -0.2966  0.5533  0.4235
  663TIP3    H123404   4.358   5.568  17.291  0.2270 -0.8170 -0.0482
  663TIP3    H223405   4.490   5.504  17.329 -0.1790  0.0321  3.1021
  664TIP3   OH223406   4.905   3.188   1.244  0.2238  0.1395 -0.1588
  664TIP3    H123407   4.926   3.197   1.151  1.2949 -0.2877  0.0257
  664TIP3    H223408   4.900   3.094   1.259  2.9274  0.0409  0.7741
  665TIP3   OH223409   3.713   3.727   2.023  0.1779 -0.3246 -0.4861
  665TIP3    H123410   3.680   3.695   1.939 -1.6317 -0.7437  0.3415
  665TIP3    H223411   3.634   3.745   2.074  1.2474 -0.2920  1.2066
  666TIP3   OH223412   6.466   5.251  13.086  0.0570  0.0791 -0.1690
  666TIP3    H123413   6.471   5.178  13.148  2.8053  0.9078  0.7491
  666TIP3    H223414   6.450   5.328  13.140  0.4836  0.5541 -0.7024
  667TIP3   OH223415   2.081   4.100  16.258  0.0929  0.1124 -0.5835
  667TIP3    H123416   1.992   4.127  16.236 -0.1823 -0.9393 -0.7973
  667TIP3    H223417   2.073   4.059  16.345  0.3198 -0.2173 -0.7162
  668TIP3   OH223418   4.650   2.415   2.069 -0.4012  0.1302 -0.0979
  668TIP3    H123419   4.623   2.370   1.990 -0.1018 -0.5146  0.1625
  668TIP3    H223420   4.577   2.403   2.130 -0.7397  0.8384 -0.3461
  669TIP3   OH223421   0.487   5.144  16.545  0.2497 -0.2434 -0.4842
  669TIP3    H123422   0.449   5.122  16.630  1.2712  0.2754  0.1298
  669TIP3    H223423   0.453   5.231  16.525  2.0690  0.8101  0.7052
  670TIP3   OH223424   3.571   2.717   1.051 -0.4819 -0.0671  0.0604
  670TIP3    H123425   3.625   2.796   1.048  0.7030 -0.8590 -0.4661
  670TIP3    H223426   3.529   2.719   1.137  0.1302  0.7494  0.3540
  671TIP3   OH223427   6.665   6.545  12.242 -0.6258  0.0243 -0.3642
  671TIP3    H123428   6.760   6.531  12.236 -0.3594  1.7136 -0.4397
  671TIP3    H223429   6.651   6.569  12.333 -0.7037  1.5678 -0.7648
  672TIP3   OH223430   5.347   2.546  13.206  0.0527  0.5836  0.7173
  672TIP3    H123431   5.310   2.632  13.190 -0.5734  0.4635  1.4694
  672TIP3    H223432   5.323   2.494  13.129  1.7845  1.4834 -0.4940
  673TIP3   OH223433   1.037   6.507   3.342 -0.5518  0.0749  0.7519
  673TIP3    H123434   0.961   6.532   3.394 -0.6521  1.1760  0.1051
  673TIP3    H223435   1.105   6.570   3.366 -0.1072 -0.3535  0.6611
  674TIP3   OH223436   3.600   1.339  12.180  0.7789 -0.3009 -0.5475
  674TIP3    H123437   3.559   1.323  12.265  0.1114  1.8659 -0.4083
  674TIP3    H223438   3.617   1.251  12.145  1.3462 -1.2493  1.9175
  675TIP3   OH223439   0.293   4.675  13.069 -0.0407 -0.1502  0.2791
  675TIP3    H123440   0.295   4.669  12.974  1.9005  2.0475  0.0914
  675TIP3    H223441   0.323   4.589  13.099  3.6717  0.4282 -1.2835
  676TIP3   OH223442   3.127   0.065   4.606  0.2279  0.0479 -0.5667
  676TIP3    H123443   3.150   0.153   4.578 -4.7473  2.0399  0.5907
  676TIP3    H223444   3.095   0.022   4.526 -0.8626  0.6653 -0.4659
  677TIP3   OH223445   4.333   2.125  16.896  0.5389  0.2181  0.3415
  677TIP3    H123446   4.315   2.141  16.988 -2.4269  0.0849 -0.1032
  677TIP3    H223447   4.310   2.033  16.883  0.2691  0.4171 -0.6691
  678TIP3   OH223448   1.896   6.395   2.763  0.0655 -0.2819 -0.1319
  678TIP3    H123449   1.893   6.479   2.717  0.5613 -0.6308 -0.8120
  678TIP3    H223450   1.806   6.381   2.792 -0.9388 -1.2683 -3.2743
  679TIP3   OH223451   6.497   2.956  13.009 -0.4986 -0.3186  0.4146
  679TIP3    H123452   6.523   2.922  13.094 -2.0619 -1.4296  0.5154
  679TIP3    H223453   6.497   2.878  12.952  1.8021  0.6084 -0.9838
  680TIP3   OH223454   1.701   1.986   4.802 -0.2323 -0.4970 -0.0231
  680TIP3    H123455   1.656   1.906   4.830  1.3563 -0.7967  1.9280
  680TIP3    H223456   1.790   1.957   4.782  0.0799  0.6278 -0.3147
  681TIP3   OH223457   4.739   4.497  15.339 -0.3687 -0.0582 -0.1892
  681TIP3    H123458   4.712   4.516  15.249  0.8345 -1.2935 -0.8505
  681TIP3    H223459   4.662   4.454  15.377 -1.3373  1.5965 -0.2005
  682TIP3   OH223460   3.944   0.218   4.809  0.2036 -0.0785  0.1722
  682TIP3    H123461   3.881   0.168   4.758 -1.5674  2.6982 -0.5829
  682TIP3    H223462   4.029   0.178   4.789 -1.1160 -3.1486  0.2409
  683TIP3   OH223463   4.265   3.308   0.953  0.3277 -0.0364 -0.3501
  683TIP3    H123464   4.192   3.264   0.909 -0.0887  0.5563 -0.2645
  683TIP3    H223465   4.337   3.246   0.949  0.1419 -0.1893 -1.4147
  684TIP3   OH223466   3.239   1.923  16.421  0.0075  0.0627 -0.0930
  684TIP3    H123467   3.179   1.861  16.464  0.4757 -0.2437  0.1313
  684TIP3    H223468   3.203   2.009  16.440 -1.6396 -0.1680 -1.8638
  685TIP3   OH223469   5.795   3.011   4.427 -0.7545  0.2489  0.3165
  685TIP3    H123470   5.862   2.947   4.449 -2.0261 -0.5454  2.1454
  685TIP3    H223471   5.759   2.981   4.344  2.2142  1.6649 -1.6663
  686TIP3   OH223472   6.488   6.694  13.700  0.2488 -0.0273  0.0015
  686TIP3    H123473   6.429   6.744  13.643 -0.3411  0.4926  1.0171
  686TIP3    H223474   6.432   6.667  13.773  0.6743 -1.8055 -0.3043
  687TIP3   OH223475   3.534   6.364   4.740 -0.4880  0.3183 -0.0325
  687TIP3    H123476   3.560   6.316   4.660 -0.5792  1.0472 -0.5078
  687TIP3    H223477   3.479   6.435   4.708 -0.6657  0.5198  0.7083
  688TIP3   OH223478   2.909   1.406  11.243  0.3049  0.3610  0.0893
  688TIP3    H123479   2.960   1.485  11.227  1.3772 -0.4792 -0.8189
  688TIP3    H223480   2.974   1.340  11.268 -0.3302 -0.7204 -1.0248
  689TIP3   OH223481   2.427   6.438  14.235 -0.3829 -0.0160 -0.4043
  689TIP3    H123482   2.395   6.521  14.197 -0.2350  0.4634  0.4989
  689TIP3    H223483   2.415   6.374  14.165 -2.9305  0.2164 -0.2971
  690TIP3   OH223484   0.638   4.413   1.907  0.2222 -0.2162  0.2304
  690TIP3    H123485   0.592   4.437   1.827  0.3372  0.9749  0.5094
  690TIP3    H223486   0.574   4.427   1.977  0.1135 -1.2694  0.3589
  691TIP3   OH223487   3.387   0.106  16.392 -0.0807  0.4768 -0.0609
  691TIP3    H123488   3.343   0.024  16.414 -0.3781  0.9028  1.0014
  691TIP3    H223489   3.344   0.136  16.311 -0.8205  0.2102  0.2283
  692TIP3   OH223490   5.573   4.920  14.629 -0.2974 -0.1059 -0.1492
  692TIP3    H123491   5.521   4.843  14.609  0.3609 -1.1530  1.8564
  692TIP3    H223492   5.510   4.992  14.630 -1.2239 -0.8980 -0.3956
  693TIP3   OH223493   0.869   0.095   3.766 -0.2578  0.7826 -0.0478
  693TIP3    H123494   0.936   0.154   3.730  1.1248  0.3864  1.7066
  693TIP3    H223495   0.844   0.135   3.849  0.0574 -0.6180  0.7556
  694TIP3   OH223496   6.374   0.033  13.426  0.3515  0.3158  0.0779
  694TIP3    H123497   6.298  -0.021  13.407  0.4485 -0.3919  1.5454
  694TIP3    H223498   6.342   0.099  13.487  0.9643 -0.2535  1.0542
  695TIP3   OH223499   5.976   1.669   2.782  0.1566  0.2886  0.6971
  695TIP3    H123500   6.047   1.624   2.828  1.9423  2.0060 -0.2742
  695TIP3    H223501   5.991   1.650   2.689 -2.7657 -2.2235  0.5672
  696TIP3   OH223502   4.224   2.997   0.602 -0.0001 -0.9240  0.2846
  696TIP3    H123503   4.224   2.991   0.698 -1.8076 -1.3258  0.3014
  696TIP3    H223504   4.294   2.938   0.575  1.0674 -0.2032  1.3631
  697TIP3   OH223505   0.062   5.814  14.420  0.2845  0.2595 -0.6865
  697TIP3    H123506   0.030   5.833  14.331 -2.4573 -1.0863 -0.0997
  697TIP3    H223507   0.136   5.754  14.407  0.2016  0.4239 -2.0724
  698TIP3   OH223508   2.874   6.624   5.020 -0.0252 -0.2775 -0.2187
  698TIP3    H123509   2.919   6.673   4.952 -0.1951 -1.4067 -1.1748
  698TIP3    H223510   2.781   6.646   5.008  0.0454  0.3887  0.3823
  699TIP3   OH223511   1.308   4.152   5.102  0.2930 -0.5958  0.1995
  699TIP3    H123512   1.214   4.171   5.107  0.4870  0.5826 -0.2652
  699TIP3    H223513   1.344   4.195   5.179  0.5889 -0.1003 -0.2106
  700TIP3   OH223514   6.350   3.971   6.133 -0.4297  0.1664 -0.1530
  700TIP3    H123515   6.357   3.933   6.220  1.0111 -1.2786 -0.8306
  700TIP3    H223516   6.438   4.006   6.115 -1.0422  1.5628 -0.5596
  701TIP3   OH223517   5.212   4.775  13.374 -0.6504 -0.1051  0.0851
  701TIP3    H123518   5.194   4.845  13.437 -0.6706 -1.5835  1.7953
  701TIP3    H223519   5.257   4.819  13.302 -0.8902  1.7035  0.9794
  702TIP3   OH223520   6.573   3.440   3.584  0.1331 -0.8584 -0.1461
  702TIP3    H123521   6.531   3.403   3.507 -1.2963  0.4949 -0.0810
  702TIP3    H223522   6.501   3.476   3.635  1.3577  1.8931 -0.1836
  703TIP3   OH223523   2.125   4.286   1.196  0.0274 -0.2580 -0.5996
  703TIP3    H123524   2.035   4.303   1.170 -0.5869 -1.1729  0.7960
  703TIP3    H223525   2.153   4.212   1.142 -1.1098 -1.9085  0.9496
  704TIP3   OH223526   6.516   5.851   2.464 -0.6834  0.0790  0.6744
  704TIP3    H123527   6.428   5.846   2.428 -1.8210 -1.7956  3.3674
  704TIP3    H223528   6.505   5.901   2.545  0.7374 -0.1824  1.0452
  705TIP3   OH223529   0.538   3.799  11.227  0.4853 -0.2492 -0.1847
  705TIP3    H123530   0.625   3.770  11.200  1.1903  1.5799 -0.0634
  705TIP3    H223531   0.484   3.792  11.148  1.3221  0.6080 -0.8619
  706TIP3   OH223532   1.183   6.405  17.499  0.2464  0.6653 -0.1553
  706TIP3    H123533   1.127   6.327  17.499 -0.6459  1.2896  0.2073
  706TIP3    H223534   1.249   6.387  17.432  0.2484 -0.5293  0.1423
  707TIP3   OH223535   6.004   5.879   2.431  0.0882  0.2688 -0.2110
  707TIP3    H123536   6.072   5.816   2.456 -1.3366 -1.2033  0.1595
  707TIP3    H223537   6.031   5.961   2.471  1.3508 -0.4294  0.4155
  708TIP3   OH223538   1.680   1.043  15.619  0.0355 -0.3451  0.3835
  708TIP3    H123539   1.675   0.971  15.681 -0.7364 -1.0322 -0.4672
  708TIP3    H223540   1.743   1.014  15.553  0.6801  0.2884  0.7078
  709TIP3   OH223541   0.230   1.163  11.552 -0.3063 -0.3518 -0.0250
  709TIP3    H123542   0.203   1.131  11.638  0.5476  1.9257  1.1635
  709TIP3    H223543   0.318   1.127  11.540  0.0216  0.2342  0.5798
  710TIP3   OH223544   3.080   1.901   4.190 -0.3136  0.3934 -0.2865
  710TIP3    H123545   3.007   1.963   4.181 -0.0349  0.6012 -1.3203
  710TIP3    H223546   3.157   1.953   4.169  0.0997  0.0883  0.4676
  711TIP3   OH223547   5.091   3.400   1.866 -0.7999 -0.3635  0.5716
  711TIP3    H123548   4.997   3.382   1.865 -1.1422  1.2997 -0.1893
  711TIP3    H223549   5.129   3.335   1.807 -1.5535 -0.6360  0.3764
  712TIP3   OH223550   4.867   1.807   0.323  0.9348  0.2435 -0.4312
  712TIP3    H123551   4.945   1.812   0.378 -0.5095 -0.7554  1.8642
  712TIP3    H223552   4.875   1.723   0.277  1.2935  0.2421 -0.3679
  713TIP3   OH223553   0.153   6.169  13.955  0.1597  0.0661  0.1105
  713TIP3    H123554   0.242   6.145  13.980 -0.1942 -0.6430  0.7317
  713TIP3    H223555   0.099   6.145  14.031 -0.3326  2.1048  0.4612
  714TIP3   OH223556   1.090   0.664   5.214  0.3568 -1.0157  0.2869
  714TIP3    H123557   1.032   0.592   5.191  1.4712 -1.6703 -0.5715
  714TIP3    H223558   1.076   0.676   5.308 -2.2700 -0.0991 -0.1280
  715TIP3   OH223559   1.195   6.703  15.903  0.4388  0.2880 -0.6133
  715TIP3    H123560   1.240   6.696  15.987  0.9386 -0.9161 -0.9643
  715TIP3    H223561   1.196   6.796  15.883  0.6300  0.5490  0.5437
  716TIP3   OH223562   2.297   4.760   0.669  0.3004  0.1337 -0.3333
  716TIP3    H123563   2.284   4.739   0.762  1.2793 -0.2665 -0.2722
  716TIP3    H223564   2.222   4.815   0.646 -0.6421 -0.8283  0.3455
  717TIP3   OH223565   2.744   5.828  16.201 -0.2651  0.1957  0.8131
  717TIP3    H123566   2.814   5.792  16.255 -0.2722 -1.1156  0.0013
  717TIP3    H223567   2.789   5.876  16.131 -0.1705 -0.4406  0.4309
  718TIP3   OH223568   1.410   0.761  14.395  1.1137 -0.4866 -0.4776
  718TIP3    H123569   1.488   0.780  14.446 -0.9178 -0.4136  2.8959
  718TIP3    H223570   1.394   0.667  14.409 -0.1891 -0.1910  0.2166
  719TIP3   OH223571   0.452   1.947  13.604  0.1626  0.3466  0.0219
  719TIP3    H123572   0.446   1.897  13.522  1.2341 -0.2896  0.3060
  719TIP3    H223573   0.542   1.933  13.634  0.0276  1.2335  0.8984
  720TIP3   OH223574   5.754   4.655  14.492 -0.4903  0.3030  0.6102
  720TIP3    H123575   5.672   4.704  14.500 -0.4494  0.7772 -1.4185
  720TIP3    H223576   5.763   4.638  14.398  1.2959 -0.5237  0.8900
  721TIP3   OH223577   0.211   2.330  16.135  0.2163 -0.3227  0.3447
  721TIP3    H123578   0.175   2.395  16.196 -1.1255 -1.6641  1.0573
  721TIP3    H223579   0.275   2.379  16.083  1.7468  0.8058  3.0806
  722TIP3   OH223580   2.148   0.232   4.853  0.3046 -0.1615  0.2530
  722TIP3    H123581   2.178   0.150   4.893  0.7225  0.7256  1.8465
  722TIP3    H223582   2.077   0.205   4.795  1.3686 -1.8165 -0.3654
  723TIP3   OH223583   6.191   4.386  12.160 -0.4706 -0.5604  0.3509
  723TIP3    H123584   6.154   4.319  12.103 -1.0964 -0.6042  0.7981
  723TIP3    H223585   6.127   4.396  12.231 -0.1843  0.2042  0.5168
  724TIP3   OH223586   0.566   1.988  13.983 -0.3387  0.1999  0.0147
  724TIP3    H123587   0.587   2.079  14.002  1.5123  0.3201 -2.0561
  724TIP3    H223588   0.480   1.973  14.021 -0.2441  2.5070  1.2570
  725TIP3   OH223589   2.230   3.577  16.887 -0.1438 -0.3202 -0.0144
  725TIP3    H123590   2.278   3.532  16.818 -2.4391  0.3407 -2.1750
  725TIP3    H223591   2.182   3.508  16.933 -0.4580 -0.5186 -0.6362
  726TIP3   OH223592   3.690   1.940  15.490  0.4433  0.4686 -0.2757
  726TIP3    H123593   3.623   1.998  15.527  1.5504  0.9017  1.1034
  726TIP3    H223594   3.643   1.858  15.473 -0.8413  1.3192 -1.0367
  727TIP3   OH223595   0.428   2.252  14.410  0.1878  0.6334 -0.6834
  727TIP3    H123596   0.371   2.327  14.395 -0.3458 -0.0329 -2.2252
  727TIP3    H223597   0.453   2.223  14.322  0.3371 -1.0322 -0.1334
  728TIP3   OH223598   6.705   2.322   3.263 -0.1484  0.7318 -0.1865
  728TIP3    H123599   6.667   2.235   3.252 -1.1180  1.1430 -0.1628
  728TIP3    H223600   6.772   2.328   3.196  1.5856 -0.9138  1.2723
  729TIP3   OH223601   4.823   4.959   1.528  0.6949 -0.4060  0.3025
  729TIP3    H123602   4.868   5.042   1.540 -0.7053  0.3910  0.1794
  729TIP3    H223603   4.730   4.980   1.532  0.1898 -1.4550 -2.6744
  730TIP3   OH223604   0.507   2.753   1.117  0.1718  0.4750  0.0507
  730TIP3    H123605   0.454   2.787   1.044 -1.0599 -0.6155  0.3975
  730TIP3    H223606   0.514   2.659   1.099 -0.1028  0.2025  1.3066
  731TIP3   OH223607   2.550   1.874   5.971 -0.2292  0.3187 -0.2076
  731TIP3    H123608   2.602   1.928   5.912 -0.6066  0.0213 -0.8108
  731TIP3    H223609   2.467   1.861   5.926 -0.6683  0.4236  0.5614
  732TIP3   OH223610   4.164   3.656  15.996  1.0448 -0.5977  0.2148
  732TIP3    H123611   4.079   3.637  15.956  0.7446  0.1831  0.4700
  732TIP3    H223612   4.197   3.732  15.948  1.8341 -1.1883 -0.2096
  733TIP3   OH223613   5.432   2.254   0.184 -0.4019 -0.1744 -0.8046
  733TIP3    H123614   5.421   2.171   0.139 -0.6272  0.1644 -1.3878
  733TIP3    H223615   5.347   2.272   0.224  0.0582 -0.9174  0.5385
  734TIP3   OH223616   4.114   6.185  16.561  0.5230 -0.1575 -0.0013
  734TIP3    H123617   4.106   6.248  16.633  0.9956  0.7528 -0.7300
  734TIP3    H223618   4.035   6.130  16.568 -0.4802  1.2371 -0.0407
  735TIP3   OH223619   3.789   5.347  14.949  0.8810 -0.2954  0.0122
  735TIP3    H123620   3.729   5.353  15.024 -1.5639  0.7303 -1.8980
  735TIP3    H223621   3.830   5.433  14.945 -1.0870  0.6415 -1.3853
  736TIP3   OH223622   0.608   5.444  11.945  0.0939  0.0828 -0.0167
  736TIP3    H123623   0.633   5.520  11.891 -0.8896  0.7503  0.4297
  736TIP3    H223624   0.668   5.375  11.918  0.1370  0.6248 -1.4084
  737TIP3   OH223625   2.545   1.860  15.285  0.7006 -0.5068  0.0351
  737TIP3    H123626   2.606   1.921  15.327  0.2566 -0.4469  0.5946
  737TIP3    H223627   2.558   1.874  15.191  0.4710  0.5706  0.1571
  738TIP3   OH223628   1.923   6.253  14.976 -0.1144  0.1026 -0.4307
  738TIP3    H123629   2.008   6.223  15.008 -1.1547 -3.4295 -0.6376
  738TIP3    H223630   1.894   6.315  15.042  1.8125  0.0167  0.5741
  739TIP3   OH223631   2.086   4.563  16.804  0.1521  0.3780  0.1097
  739TIP3    H123632   2.134   4.497  16.754 -0.2899  0.6279 -0.6420
  739TIP3    H223633   2.071   4.634  16.743 -0.4321  0.6721  0.5866
  740TIP3   OH223634   0.707   5.438   2.036 -0.6442  0.0875 -0.5526
  740TIP3    H123635   0.761   5.478   2.105 -1.1371  1.3985 -0.8975
  740TIP3    H223636   0.669   5.361   2.078  0.4302 -0.1168  0.1065
  741TIP3   OH223637   2.931   4.656  17.554 -0.0899 -0.1894  0.3624
  741TIP3    H123638   2.941   4.582  17.615 -0.3141 -0.7625 -0.2844
  741TIP3    H223639   2.905   4.729  17.610  0.9578 -0.3750  1.1417
  742TIP3   OH223640   1.150   3.022   1.255 -0.2255 -0.0947 -0.2099
  742TIP3    H123641   1.130   2.976   1.336  2.9444 -0.8854  0.2574
  742TIP3    H223642   1.126   2.961   1.186  0.5723 -1.0159  0.2985
  743TIP3   OH223643   4.680   0.346  13.165  0.0866  0.3992  0.0585
  743TIP3    H123644   4.616   0.306  13.224  1.3786  0.2076  1.3863
  743TIP3    H223645   4.667   0.300  13.082 -1.8754  0.7866  0.0987
  744TIP3   OH223646   0.630   0.729   0.702 -0.3859  0.0503  0.2361
  744TIP3    H123647   0.548   0.741   0.655 -0.5914  2.4610  1.0711
  744TIP3    H223648   0.611   0.659   0.765 -1.8070  0.5510  0.3974
  745TIP3   OH223649   0.736   4.334   1.022  0.3042 -0.2873  0.4069
  745TIP3    H123650   0.745   4.422   0.985  0.8411 -0.8255 -0.8059
  745TIP3    H223651   0.753   4.346   1.115  1.0727  0.8034  0.1556
  746TIP3   OH223652   5.614   0.705  13.000  0.4155 -0.1386  0.6978
  746TIP3    H123653   5.696   0.721  12.953 -0.1156 -0.5934 -0.4259
  746TIP3    H223654   5.608   0.777  13.063  0.2830  1.5609 -1.1601
  747TIP3   OH223655   1.234   3.814   5.376 -0.5146 -0.0427 -0.2679
  747TIP3    H123656   1.177   3.748   5.414 -1.7414  0.5498 -1.0038
  747TIP3    H223657   1.190   3.897   5.394  0.5584  0.5098 -0.1142
  748TIP3   OH223658   3.564   3.388  15.767  0.4845  0.3584  0.3684
  748TIP3    H123659   3.612   3.312  15.736 -1.3821 -0.2645 -1.2264
  748TIP3    H223660   3.473   3.359  15.771 -0.3876  2.6011 -0.8845
  749TIP3   OH223661   4.273   0.711   5.121  0.3995 -0.5116 -0.2948
  749TIP3    H123662   4.329   0.666   5.185 -0.9544 -1.7300  0.0660
  749TIP3    H223663   4.328   0.783   5.089  1.5201 -0.5367  1.4062
  750TIP3   OH223664   6.119   4.874   0.930  0.0378 -0.1985 -0.1203
  750TIP3    H123665   6.103   4.837   0.843 -1.9857 -1.6165  0.7972
  750TIP3    H223666   6.199   4.831   0.960 -0.5502 -1.4676 -0.3473
  751TIP3   OH223667   0.216   4.931  17.534  0.1218  0.3596 -0.4238
  751TIP3    H123668   0.144   4.910  17.594 -0.0574 -1.2753 -1.1611
  751TIP3    H223669   0.235   4.849  17.490  2.4785  0.7451 -0.2488
  752TIP3   OH223670   0.509   6.413   4.768 -0.4782  0.9960 -0.7586
  752TIP3    H123671   0.444   6.430   4.836 -1.3893  0.2969 -1.4351
  752TIP3    H223672   0.592   6.405   4.815 -1.3182 -1.1484  0.4917
  753TIP3   OH223673   2.755   0.408  12.943  0.4052  0.9819 -0.2183
  753TIP3    H123674   2.833   0.413  12.998  0.9891  0.6147 -0.9881
  753TIP3    H223675   2.740   0.498  12.914  0.8340  0.9806 -0.4519
  754TIP3   OH223676   0.323   5.327   0.212 -0.8334  0.1621 -0.4515
  754TIP3    H123677   0.321   5.255   0.149  2.4017 -0.5609  0.1001
  754TIP3    H223678   0.393   5.304   0.273 -0.0469  3.5091  0.0978
  755TIP3   OH223679   4.635   2.426   3.748 -0.4975  0.5058 -0.2504
  755TIP3    H123680   4.630   2.505   3.803 -4.4141  1.8841 -2.1885
  755TIP3    H223681   4.699   2.448   3.680 -1.1882  1.9084 -0.4873
  756TIP3   OH223682   1.764   1.180  11.611 -0.8844 -0.3615  0.6160
  756TIP3    H123683   1.829   1.139  11.668  0.8299 -1.3620 -1.9102
  756TIP3    H223684   1.698   1.112  11.597 -0.0210 -0.9908 -0.5179
  757TIP3   OH223685   1.216   3.931  17.479  0.0932 -0.2704 -0.2779
  757TIP3    H123686   1.240   3.922  17.387  1.2347  1.9100 -0.2685
  757TIP3    H223687   1.263   3.861  17.524  0.8685 -0.3300 -1.1719
  758TIP3   OH223688   4.288   4.500   1.725 -0.0025 -0.6086  0.0467
  758TIP3    H123689   4.221   4.523   1.660 -0.3295  0.4853  0.7465
  758TIP3    H223690   4.242   4.504   1.809  0.7804 -0.5017  0.4762
  759TIP3   OH223691   0.238   5.003  10.733  0.1352 -0.3543  0.2090
  759TIP3    H123692   0.181   4.961  10.797 -1.8665 -0.5651 -1.5803
  759TIP3    H223693   0.308   4.940  10.716 -1.1886 -1.7522 -0.2654
  760TIP3   OH223694   3.469   1.181  14.838 -0.5631  0.7828 -0.0804
  760TIP3    H123695   3.498   1.241  14.906  1.9781 -1.5467  1.0432
  760TIP3    H223696   3.528   1.198  14.764 -0.6266  0.4904 -0.2004
  761TIP3   OH223697   6.258   1.848  17.230 -0.5211 -0.3303  0.2542
  761TIP3    H123698   6.300   1.912  17.289  0.0824  0.0809 -0.5982
  761TIP3    H223699   6.238   1.898  17.151 -2.4657 -0.5732  0.5502
  762TIP3   OH223700   0.763   0.470   4.255 -0.9191  0.4248 -0.0005
  762TIP3    H123701   0.695   0.402   4.260 -0.9498  0.4807  0.3505
  762TIP3    H223702   0.785   0.488   4.346  0.9397 -0.9452 -0.1320
  763TIP3   OH223703   6.196   4.415  11.647 -0.2118 -0.3802  0.5384
  763TIP3    H123704   6.181   4.345  11.710 -1.7018  0.7817  1.5586
  763TIP3    H223705   6.284   4.447  11.667  0.7079 -2.2725 -0.3142
  764TIP3   OH223706   4.346   0.126   1.676  0.0432 -0.1741 -0.6612
  764TIP3    H123707   4.296   0.194   1.720 -0.6316 -0.9708 -0.1580
  764TIP3    H223708   4.295   0.046   1.689  2.0960 -1.3393  1.1903
  765TIP3   OH223709   2.684   1.988   0.156 -0.2010 -0.3847 -0.0370
  765TIP3    H123710   2.754   1.924   0.165 -0.7003 -0.9975 -0.3951
  765TIP3    H223711   2.605   1.942   0.186 -0.5078  0.1698  0.0142
  766TIP3   OH223712   3.379   4.586   1.715  0.5113 -0.3256  0.4817
  766TIP3    H123713   3.361   4.524   1.785 -1.1450 -0.5322 -0.0866
  766TIP3    H223714   3.337   4.547   1.638  1.3146  0.4534 -0.3675
  767TIP3   OH223715   2.904   5.247  17.048  0.3064  0.4262  0.2800
  767TIP3    H123716   2.976   5.281  17.101  1.3768 -1.0877 -0.1475
  767TIP3    H223717   2.911   5.152  17.056 -0.9834  0.2258 -0.6650
  768TIP3   OH223718   6.489   1.078   4.511  0.5030 -0.3938  0.4280
  768TIP3    H123719   6.553   1.124   4.566 -0.2647 -1.0368  1.9089
  768TIP3    H223720   6.419   1.052   4.572  0.5548 -2.8775 -0.4793
  769TIP3   OH223721   6.508   0.806   4.393 -0.3015 -0.2120 -0.3440
  769TIP3    H123722   6.501   0.828   4.300 -1.5384 -0.4390 -0.3255
  769TIP3    H223723   6.499   0.890   4.437 -2.2340 -0.3642 -0.3685
  770TIP3   OH223724   6.049   1.467   3.544 -0.4784  0.0283  0.5969
  770TIP3    H123725   6.136   1.427   3.538 -1.0745 -1.1874 -1.0859
  770TIP3    H223726   5.998   1.405   3.597 -0.7435 -0.1748  0.1176
  771TIP3   OH223727   0.738   2.555  15.930  0.0674 -0.2389 -0.0823
  771TIP3    H123728   0.826   2.579  15.903 -0.4879  2.6608  0.3800
  771TIP3    H223729   0.732   2.581  16.022 -0.9883 -1.2340  0.1557
  772TIP3   OH223730   6.679   1.619   2.427  0.6201  0.5349 -0.7675
  772TIP3    H123731   6.604   1.671   2.397 -0.8836 -0.1203  1.6279
  772TIP3    H223732   6.709   1.574   2.348 -0.6962  1.7903 -2.0537
  773TIP3   OH223733   2.992   5.270   4.953 -0.2697  1.0562  0.3359
  773TIP3    H123734   3.007   5.275   4.859  1.6802  0.0534  0.5462
  773TIP3    H223735   3.079   5.262   4.991 -1.1255 -1.4435  2.0162
  774TIP3   OH223736   1.748   6.406   5.913 -0.0424 -0.2454  0.1853
  774TIP3    H123737   1.781   6.487   5.952 -0.3574  0.5272 -1.0986
  774TIP3    H223738   1.682   6.375   5.974  0.2525  0.3373  0.8069
  775TIP3   OH223739   1.283   3.174   5.966  0.8501  0.1254  0.3316
  775TIP3    H123740   1.269   3.267   5.947 -1.1009 -0.4312 -1.2965
  775TIP3    H223741   1.210   3.150   6.024  1.4889 -0.3490  0.9597
  776TIP3   OH223742   4.574   5.877  17.282  0.2577 -0.6838  0.3251
  776TIP3    H123743   4.577   5.953  17.340  0.9157 -0.7562  0.3918
  776TIP3    H223744   4.631   5.813  17.324 -0.2911 -1.2163  0.2655
  777TIP3   OH223745   6.512   3.680  16.268  0.0648 -0.1005 -0.1480
  777TIP3    H123746   6.433   3.639  16.234 -0.1465 -0.1366  0.3741
  777TIP3    H223747   6.526   3.638  16.353 -1.5108  2.5221  1.5480
  778TIP3   OH223748   4.401   5.089  16.896 -0.8610  0.2167 -0.3392
  778TIP3    H123749   4.353   5.157  16.850 -0.4293  0.5703 -0.2737
  778TIP3    H223750   4.489   5.126  16.909 -0.2630 -0.7776 -1.3222
  779TIP3   OH223751   5.731   4.839  16.550 -0.0794 -1.0325 -0.1928
  779TIP3    H123752   5.783   4.764  16.580  1.1339  0.0168  0.4686
  779TIP3    H223753   5.774   4.867  16.469  0.7612  0.1478  0.6197
  780TIP3   OH223754   3.049   2.970  12.281  0.2897 -0.4213 -0.2817
  780TIP3    H123755   3.076   2.888  12.322 -0.2439 -1.3183 -1.6451
  780TIP3    H223756   2.974   2.945  12.227 -0.8647  1.2717  0.4615
  781TIP3   OH223757   5.665   4.248  17.004  0.3945 -0.1645  1.0707
  781TIP3    H123758   5.629   4.292  17.081  0.9833  1.0968  0.6555
  781TIP3    H223759   5.658   4.155  17.024 -1.6831  0.0652  1.6330
  782TIP3   OH223760   5.241   3.809  12.236 -0.0811 -0.1090  0.0503
  782TIP3    H123761   5.285   3.784  12.155 -0.5336 -0.4406 -0.0990
  782TIP3    H223762   5.220   3.726  12.279 -1.3549  0.0089 -0.3169
  783TIP3   OH223763   5.951   5.874  17.401  0.1541  0.2093 -0.2503
  783TIP3    H123764   6.035   5.907  17.367  0.9022  0.1249  1.4310
  783TIP3    H223765   5.887   5.941  17.376  0.7021  0.2575 -1.5905
  784TIP3   OH223766   0.422   6.677   2.264 -0.1011 -0.1475 -0.1974
  784TIP3    H123767   0.397   6.766   2.287  1.3711  0.2624 -0.1123
  784TIP3    H223768   0.388   6.665   2.175  2.9224  1.8901 -1.7769
  785TIP3   OH223769   2.860   0.682  12.720 -0.0594  0.0892 -0.1837
  785TIP3    H123770   2.953   0.698  12.701  0.2704  0.1857  1.3730
  785TIP3    H223771   2.847   0.589  12.701 -0.0177  0.3774 -1.7505
  786TIP3   OH223772   5.879   2.364  12.880  0.7117 -0.5436 -0.0792
  786TIP3    H123773   5.915   2.293  12.827 -1.3874 -0.9419 -1.0825
  786TIP3    H223774   5.917   2.444  12.843 -1.4941 -0.7067 -3.0341
  787TIP3   OH223775   5.946   3.390   0.500 -0.3425  0.2982 -0.2700
  787TIP3    H123776   5.913   3.478   0.482  2.0590  1.5494  1.0637
  787TIP3    H223777   5.889   3.357   0.569 -2.5612 -0.1202 -2.1660
  788TIP3   OH223778   5.611   5.383  17.137 -0.3499  0.0365 -0.2003
  788TIP3    H123779   5.581   5.402  17.226 -1.5842 -2.1583 -0.0746
  788TIP3    H223780   5.562   5.445  17.082  1.6685  2.5891  0.6753
  789TIP3   OH223781   3.302   5.634  15.356 -0.8286  0.2534  0.2354
  789TIP3    H123782   3.258   5.557  15.320 -2.3507 -0.2199  2.8563
  789TIP3    H223783   3.240   5.705  15.342  0.9447  1.3440 -2.9971
  790TIP3   OH223784   4.260   1.630  13.539  0.3717 -0.0467  0.1452
  790TIP3    H123785   4.289   1.661  13.625  0.6189 -1.1299  0.4674
  790TIP3    H223786   4.190   1.568  13.558 -1.6342  1.8723 -0.5860
  791TIP3   OH223787   0.610   1.941   6.083 -0.1300 -0.3654 -0.2401
  791TIP3    H123788   0.677   1.885   6.044 -0.3192 -0.3600 -0.5781
  791TIP3    H223789   0.642   2.030   6.068  0.4494 -0.3812  0.7934
  792TIP3   OH223790   4.310   0.129   5.392  0.1861 -0.6891 -0.5917
  792TIP3    H123791   4.387   0.110   5.445 -0.6912 -2.6278  0.1337
  792TIP3    H223792   4.257   0.188   5.447  1.4152  1.2294 -1.3921
  793TIP3   OH223793   3.375   4.846   3.507 -0.0748  0.3329  0.1396
  793TIP3    H123794   3.312   4.919   3.508  0.2815  0.6516 -0.2937
  793TIP3    H223795   3.413   4.846   3.595 -1.1184 -0.2557  0.6109
  794TIP3   OH223796   1.956   4.343   4.322  0.1727  0.3066 -0.2976
  794TIP3    H123797   1.993   4.270   4.274  0.4626  0.1835  0.1008
  794TIP3    H223798   1.999   4.339   4.408 -1.2119 -0.2086  0.3977
  795TIP3   OH223799   2.601   3.375  14.615  0.2705 -0.0671  0.2985
  795TIP3    H123800   2.579   3.297  14.564 -0.8391  0.8132 -0.6264
  795TIP3    H223801   2.555   3.364  14.697 -1.7503  0.6093 -0.6867
  796TIP3   OH223802   1.657   1.694  11.689  0.6236  0.3362  0.4473
  796TIP3    H123803   1.685   1.608  11.717 -1.9084 -1.5232 -2.1055
  796TIP3    H223804   1.710   1.713  11.612  0.2883  0.4433  0.2402
  797TIP3   OH223805   6.539   3.730  11.583 -0.2614  0.3570  0.1424
  797TIP3    H123806   6.483   3.772  11.517 -0.5484 -0.3202 -0.0471
  797TIP3    H223807   6.622   3.715  11.537 -1.6078 -3.6258 -1.3903
  798TIP3   OH223808   2.638   3.900  13.166  0.4543  0.0400  0.2154
  798TIP3    H123809   2.691   3.857  13.099  1.2023 -0.1606  0.9160
  798TIP3    H223810   2.664   3.992  13.162 -0.1500  0.1829 -0.3694
  799TIP3   OH223811   3.386   1.187  13.870 -0.3658  0.3784  0.3153
  799TIP3    H123812   3.363   1.222  13.956 -0.6006  0.3613  0.2586
  799TIP3    H223813   3.315   1.214  13.812  0.2606  1.2301 -0.0875
  800TIP3   OH223814   0.790   3.455   2.791 -0.1383  0.0294  0.3624
  800TIP3    H123815   0.862   3.514   2.770  0.9615 -1.6159 -0.7185
  800TIP3    H223816   0.822   3.369   2.766 -1.9473 -0.9476  1.2556
  801TIP3   OH223817   5.727   0.688  14.079 -0.0070 -0.4875 -0.1109
  801TIP3    H123818   5.637   0.720  14.091  0.1206  0.2219 -0.9575
  801TIP3    H223819   5.751   0.715  13.991  1.5284  0.5387  0.5784
  802TIP3   OH223820   5.186   2.346  11.731 -0.6806  0.1426  0.1426
  802TIP3    H123821   5.244   2.383  11.665 -0.1193  1.1214  1.1438
  802TIP3    H223822   5.226   2.371  11.815 -1.4544 -0.9178  0.8571
  803TIP3   OH223823   1.689   1.703  11.019  0.1863 -0.1113  0.4860
  803TIP3    H123824   1.766   1.760  11.020  0.3437 -0.3259  0.9280
  803TIP3    H223825   1.633   1.737  11.089  0.3349 -0.5670  0.8324
  804TIP3   OH223826   0.226   6.702  17.481 -0.0955 -0.2137  0.0332
  804TIP3    H123827   0.261   6.757  17.552  2.1922 -2.1552  0.5404
  804TIP3    H223828   0.302   6.682  17.426 -1.6043  0.2688 -2.3629
  805TIP3   OH223829   1.318   3.103  14.320 -0.0689  0.0370  0.0830
  805TIP3    H123830   1.297   3.018  14.281 -0.3375  0.3837 -0.5439
  805TIP3    H223831   1.401   3.089  14.366  0.7321 -0.1890 -1.3427
  806TIP3   OH223832   5.327   4.757   5.113 -0.4955 -0.2567 -0.5159
  806TIP3    H123833   5.232   4.746   5.117 -0.6678 -0.5449 -3.3627
  806TIP3    H223834   5.340   4.844   5.075  0.4556  0.3199  1.0285
  807TIP3   OH223835   2.605   6.113   1.604  0.0193  0.3557  0.3098
  807TIP3    H123836   2.694   6.123   1.639 -0.4385  3.8391  0.7891
  807TIP3    H223837   2.615   6.123   1.510  0.3978 -2.0994  0.0293
  808TIP3   OH223838   3.358   6.473   0.743 -0.2238 -0.1075 -0.4726
  808TIP3    H123839   3.386   6.419   0.817  0.4266  0.0978 -0.5630
  808TIP3    H223840   3.298   6.537   0.782 -0.0006 -0.0955 -0.1449
  809TIP3   OH223841   5.662   0.552   0.390 -0.0104  0.2361 -0.5369
  809TIP3    H123842   5.617   0.610   0.452 -0.5119  0.3513 -1.0085
  809TIP3    H223843   5.673   0.606   0.312  0.5279  0.0528 -0.5921
  810TIP3   OH223844   1.464   3.295  16.071  0.0728  0.1917 -0.0539
  810TIP3    H123845   1.377   3.290  16.032 -0.0672  0.6004  0.1977
  810TIP3    H223846   1.524   3.301  15.997 -0.0725 -0.6258 -0.2434
  811TIP3   OH223847   4.923   5.923  11.664  0.2000  0.4436  0.4782
  811TIP3    H123848   4.837   5.920  11.706 -0.2768 -0.3373 -0.5113
  811TIP3    H223849   4.963   6.004  11.696 -0.8491  0.7543  1.0491
  812TIP3   OH223850   4.120   5.565   0.611  0.0086  0.3834 -0.0764
  812TIP3    H123851   4.164   5.650   0.600 -2.4539  1.6977 -0.4784
  812TIP3    H223852   4.065   5.557   0.533 -0.2536 -1.3234  0.2625
  813TIP3   OH223853   3.703   1.374  11.589  0.2319 -0.4566  0.3155
  813TIP3    H123854   3.609   1.369  11.572  0.2014 -0.1972  0.3977
  813TIP3    H223855   3.742   1.384  11.502  0.2942 -1.9404  0.1485
  814TIP3   OH223856   4.572   2.261   4.889  0.9993  0.4249  0.0165
  814TIP3    H123857   4.572   2.165   4.894  0.5146  0.4078 -0.2692
  814TIP3    H223858   4.634   2.288   4.957  2.1179 -0.1279 -0.7413
  815TIP3   OH223859   5.439   6.647  17.537 -0.5270 -0.8451 -0.4006
  815TIP3    H123860   5.524   6.679  17.506 -1.1563  1.3189 -0.0013
  815TIP3    H223861   5.378   6.673  17.469 -1.4678  1.2927  1.1755
  816TIP3   OH223862   2.787   6.399  12.972  0.3695  0.0252  0.0284
  816TIP3    H123863   2.850   6.442  13.030  0.5256 -2.0127  1.4676
  816TIP3    H223864   2.710   6.456  12.975  1.9376  2.4561 -1.6034
  817TIP3   OH223865   5.484   1.131  15.950  0.2166  0.2712  0.4188
  817TIP3    H123866   5.425   1.112  16.023  1.8428 -2.1717  1.2463
  817TIP3    H223867   5.456   1.216  15.917 -1.5032  0.7954  2.9730
  818TIP3   OH223868   5.985   5.882  11.760 -0.1670 -0.1533 -0.3459
  818TIP3    H123869   5.973   5.825  11.684  0.8613  0.3901 -0.9297
  818TIP3    H223870   6.072   5.919  11.749 -0.6532  1.2159  0.2433
  819TIP3   OH223871   5.928   3.166  12.595  0.7320  0.7143 -0.0726
  819TIP3    H123872   6.002   3.180  12.536  0.7065  2.2098  0.2078
  819TIP3    H223873   5.859   3.221  12.559  0.7539  1.7508  1.3929
  820TIP3   OH223874   2.661   4.110   4.378  0.6712 -0.1189  0.0577
  820TIP3    H123875   2.698   4.108   4.466  2.4183 -0.6540 -0.6515
  820TIP3    H223876   2.631   4.200   4.366 -1.9234 -0.5929  2.0595
  821TIP3   OH223877   6.678   5.188  12.514  0.4350  0.2315 -0.0004
  821TIP3    H123878   6.642   5.275  12.532 -2.9679 -0.3433 -2.7838
  821TIP3    H223879   6.640   5.132  12.582  1.8838  0.6799  1.2368
  822TIP3   OH223880   2.326   2.730   6.018 -0.7651 -0.3376  0.0769
  822TIP3    H123881   2.349   2.675   5.944  1.8212 -0.6113  0.9839
  822TIP3    H223882   2.299   2.669   6.086 -1.1216 -0.2224  0.0443
  823TIP3   OH223883   1.987   3.305  10.568  0.1019 -0.4156 -0.3859
  823TIP3    H123884   1.975   3.380  10.627  2.7805  0.7947 -1.2186
  823TIP3    H223885   2.059   3.332  10.510  0.7163 -3.3920 -1.1374
  824TIP3   OH223886   6.578   1.039  15.191 -0.3787  0.1047 -0.2137
  824TIP3    H123887   6.581   1.071  15.101  0.5845  0.4675 -0.0627
  824TIP3    H223888   6.623   1.106  15.242 -0.0309 -0.5651  0.3862
  825TIP3   OH223889   3.357   6.385   1.111  0.4074 -0.9159  0.1084
  825TIP3    H123890   3.403   6.382   1.195 -0.9060 -2.6714  0.8293
  825TIP3    H223891   3.304   6.465   1.115  0.6730 -0.7706  0.7681
  826TIP3   OH223892   2.665   2.721   0.538  0.1337  0.1626 -0.2223
  826TIP3    H123893   2.700   2.662   0.471  0.4262 -0.2477  0.2826
  826TIP3    H223894   2.586   2.758   0.499 -1.6958 -2.6928  0.4576
  827TIP3   OH223895   2.718   2.350   4.804 -0.6420 -0.1771 -0.3888
  827TIP3    H123896   2.807   2.325   4.779 -0.4326  0.1145  0.0514
  827TIP3    H223897   2.703   2.434   4.760 -1.3442 -1.0376 -1.8662
  828TIP3   OH223898   5.334   3.370  15.799  0.9334 -0.0570 -0.3874
  828TIP3    H123899   5.347   3.294  15.743 -0.5759 -0.0461 -0.7932
  828TIP3    H223900   5.265   3.420  15.756 -0.4918 -0.2088  1.6031
  829TIP3   OH223901   0.102   3.575   3.565 -0.9486 -0.6088 -0.1372
  829TIP3    H123902   0.019   3.530   3.578 -1.2376  0.2380  1.0565
  829TIP3    H223903   0.157   3.547   3.639 -0.1162 -1.2426 -0.9655
  830TIP3   OH223904   1.687   2.985  15.592  0.4485  0.3479  0.8416
  830TIP3    H123905   1.777   2.952  15.597  0.3884  0.1375  0.5382
  830TIP3    H223906   1.662   3.000  15.684  0.5738 -0.1855  0.9667
  831TIP3   OH223907   4.065   5.589  16.901  0.0053  0.1111 -0.0417
  831TIP3    H123908   4.075   5.628  16.815  2.8430 -1.3225 -0.5025
  831TIP3    H223909   4.128   5.636  16.956 -0.2541 -0.3778  0.6972
  832TIP3   OH223910   5.373   5.334  15.952  0.5184  0.5541 -0.0790
  832TIP3    H123911   5.342   5.338  16.042 -2.8546  1.9873 -1.1011
  832TIP3    H223912   5.319   5.398  15.906  0.9294 -1.2506 -3.4176
  833TIP3   OH223913   3.515   5.321  12.540  0.1085 -0.5965  0.3927
  833TIP3    H123914   3.497   5.316  12.634 -0.3986 -1.5118  0.2499
  833TIP3    H223915   3.511   5.415  12.521  1.7191 -0.2408  1.5545
  834TIP3   OH223916   6.565   3.530   0.092 -0.0539 -0.4004 -0.5497
  834TIP3    H123917   6.658   3.544   0.077 -0.3961  0.9910 -1.5745
  834TIP3    H223918   6.547   3.446   0.050  0.8878 -1.1159  0.4315
  835TIP3   OH223919   4.780   5.474  13.348  0.6153 -0.4249  0.0295
  835TIP3    H123920   4.721   5.446  13.278  0.2531  0.6491 -0.1102
  835TIP3    H223921   4.852   5.518  13.303  0.1927  0.6019  0.3467
  836TIP3   OH223922   1.727   1.826  16.674  0.4084  0.0898 -0.7480
  836TIP3    H123923   1.755   1.885  16.744 -0.8048  0.2532 -0.3751
  836TIP3    H223924   1.721   1.883  16.597 -0.4921  0.4237 -0.4509
  837TIP3   OH223925   3.295   2.928  12.592  0.5285  0.1763 -0.0145
  837TIP3    H123926   3.388   2.940  12.572  0.7479 -0.2258  0.7327
  837TIP3    H223927   3.266   3.013  12.624  0.8114  0.1248  0.3918
  838TIP3   OH223928   3.679   4.331   1.188  0.3565 -0.0347 -0.4890
  838TIP3    H123929   3.657   4.280   1.110  1.7241 -0.5416 -0.5666
  838TIP3    H223930   3.727   4.407   1.156 -2.7611  2.1302 -0.5012
  839TIP3   OH223931   4.001   5.584   3.625 -0.2213  0.1645 -0.0601
  839TIP3    H123932   4.092   5.615   3.622 -0.5180  1.1700  0.6427
  839TIP3    H223933   3.951   5.654   3.584 -0.6499 -0.5708 -0.8200
  840TIP3   OH223934   4.248   2.408  11.395 -0.4203  0.4999  0.3650
  840TIP3    H123935   4.207   2.452  11.321  0.9221  2.1718  0.5560
  840TIP3    H223936   4.292   2.332  11.356 -1.8883 -0.1414 -0.1220
  841TIP3   OH223937   3.051   4.502   0.786 -0.2765 -0.0542  0.0826
  841TIP3    H123938   3.125   4.440   0.785 -0.1613  0.0838 -0.1792
  841TIP3    H223939   3.081   4.574   0.840 -0.4471 -0.2698  0.4670
  842TIP3   OH223940   4.447   0.439   2.197  0.1342  0.0880  0.0794
  842TIP3    H123941   4.372   0.457   2.254 -0.0930 -0.1584 -0.1397
  842TIP3    H223942   4.523   0.471   2.246 -0.3761  3.4241 -1.0133
  843TIP3   OH223943   1.555   6.672  13.190 -0.0265 -0.5530  0.4330
  843TIP3    H123944   1.607   6.594  13.171 -0.7896 -0.9866  0.0621
  843TIP3    H223945   1.473   6.638  13.228 -0.1109  0.1029  0.8660
  844TIP3   OH223946   5.689   0.557  16.830 -0.4082  0.1461  0.1929
  844TIP3    H123947   5.639   0.637  16.840  0.7729  0.9749 -0.3264
  844TIP3    H223948   5.724   0.561  16.741 -1.1710 -1.4518 -0.2285
  845TIP3   OH223949   3.858   6.711   4.983 -0.0381 -0.0865  0.2116
  845TIP3    H123950   3.931   6.659   5.016  0.1424 -0.1537 -0.2804
  845TIP3    H223951   3.872   6.715   4.889 -0.7478 -0.2168  0.0938
  846TIP3   OH223952   0.229   0.767   1.267 -1.1443  0.3531  0.5134
  846TIP3    H123953   0.253   0.859   1.257 -0.0234 -0.0519 -0.8897
  846TIP3    H223954   0.233   0.752   1.361  2.2261  0.9028  0.6097
  847TIP3   OH223955   4.700   3.687   5.633  0.7556 -0.2481  0.5597
  847TIP3    H123956   4.778   3.702   5.580  0.8517 -0.6309  0.5860
  847TIP3    H223957   4.733   3.684   5.723  0.5779  0.5054  0.6557
  848TIP3   OH223958   5.513   6.418  15.722  0.3127 -0.0535  0.2343
  848TIP3    H123959   5.606   6.423  15.699  0.7595 -2.2162  1.3138
  848TIP3    H223960   5.507   6.342  15.779 -1.9896  0.6136  0.9696
  849TIP3   OH223961   4.050   4.851   4.944 -0.1491  0.4656  0.1927
  849TIP3    H123962   4.060   4.833   4.851  2.4834 -3.1997  0.9352
  849TIP3    H223963   4.110   4.923   4.962  0.2083  0.4199 -0.7836
  850TIP3   OH223964   5.709   5.230   3.446 -0.0147 -0.0273  0.0031
  850TIP3    H123965   5.628   5.262   3.485  0.8354  0.9034  1.0689
  850TIP3    H223966   5.739   5.162   3.506 -0.8059 -1.5600 -1.2421
  851TIP3   OH223967   0.772   5.266   4.284  0.2362 -0.3740 -0.0675
  851TIP3    H123968   0.692   5.305   4.319 -0.1423 -1.7990  0.7256
  851TIP3    H223969   0.829   5.253   4.360  1.0485  0.2162 -0.5628
  852TIP3   OH223970   1.382   1.015  13.073 -0.1185  0.1111 -0.4411
  852TIP3    H123971   1.320   1.065  13.127 -1.1237 -0.5928 -0.9205
  852TIP3    H223972   1.376   0.926  13.108  1.6077  0.2692  0.3617
  853TIP3   OH223973   0.074   3.304  12.049 -0.1209  0.6167  0.5166
  853TIP3    H123974  -0.015   3.311  12.014  0.6742  1.5361 -1.4460
  853TIP3    H223975   0.061   3.290  12.143 -2.3459 -0.9008  0.0560
  854TIP3   OH223976   2.065   2.106   0.491  0.2709  0.3715  0.3132
  854TIP3    H123977   2.017   2.158   0.555 -0.8911 -0.8028  0.4322
  854TIP3    H223978   2.068   2.162   0.413  0.4980  1.2584  0.9391
  855TIP3   OH223979   6.186   3.354  10.842  0.9414  0.7833  0.5091
  855TIP3    H123980   6.229   3.433  10.808 -0.2742  0.4343 -2.0750
  855TIP3    H223981   6.197   3.289  10.773 -0.6789 -0.3827  1.2898
  856TIP3   OH223982   1.445   2.334   4.080 -0.0518  0.0162 -0.4692
  856TIP3    H123983   1.396   2.413   4.056 -0.7660 -0.1360  0.4521
  856TIP3    H223984   1.397   2.263   4.037 -0.4368 -0.0953  0.1412
  857TIP3   OH223985   3.582   1.473  13.533 -0.2697 -0.0640  0.1555
  857TIP3    H123986   3.500   1.462  13.484 -0.2862  0.9296 -0.0591
  857TIP3    H223987   3.634   1.532  13.479  0.5704 -0.6373  0.3287
  858TIP3   OH223988   2.946   6.272   4.286 -0.4982 -0.8506  0.2505
  858TIP3    H123989   2.916   6.358   4.314  1.4768  0.2031 -0.7008
  858TIP3    H223990   2.921   6.267   4.194 -1.3357 -1.6750  0.5017
  859TIP3   OH223991   2.232   1.321   3.374  0.3936  0.0185 -0.2137
  859TIP3    H123992   2.263   1.296   3.461 -1.5398  0.4770  0.6631
  859TIP3    H223993   2.176   1.249   3.347 -0.2703  0.5793 -0.3691
  860TIP3   OH223994   0.249   4.928  15.433 -0.0694  0.0610 -0.1267
  860TIP3    H123995   0.304   4.881  15.371 -0.5122 -1.2026  0.3994
  860TIP3    H223996   0.306   4.946  15.507  0.1687  0.5948 -0.4343
  861TIP3   OH223997   0.346   2.794  11.240 -0.3175  0.6513 -0.2282
  861TIP3    H123998   0.381   2.876  11.276 -0.6224  0.8372 -0.3516
  861TIP3    H223999   0.363   2.801  11.146  2.2228 -0.6741  0.0659
  862TIP3   OH224000   1.281   0.294  16.129  0.1010 -0.2820 -0.2060
  862TIP3    H124001   1.256   0.324  16.042  1.4563  2.1923  0.1744
  862TIP3    H224002   1.373   0.271  16.122  0.3174  0.2843  0.6631
  863TIP3   OH224003   5.743   5.815  12.518  0.4330  0.4504  0.2093
  863TIP3    H124004   5.757   5.776  12.432  0.6321  0.2997  0.3112
  863TIP3    H224005   5.820   5.792  12.568 -0.3895 -0.8364  0.9292
  864TIP3   OH224006   5.841   2.728   6.497 -0.3945 -0.7482 -0.0889
  864TIP3    H124007   5.846   2.660   6.430 -0.9003 -0.0836 -0.8206
  864TIP3    H224008   5.785   2.691   6.565 -0.8250 -0.9895 -0.5693
  865TIP3   OH224009   2.246   3.808  17.320  0.0464 -0.2815  0.2929
  865TIP3    H124010   2.242   3.713  17.337 -0.2462 -0.5847 -1.3120
  865TIP3    H224011   2.170   3.843  17.366  0.4204 -0.7346  1.3041
  866TIP3   OH224012   6.441   1.909   3.943  0.0469 -0.4361 -0.1966
  866TIP3    H124013   6.462   1.819   3.968  0.3128  0.1210  1.7767
  866TIP3    H224014   6.453   1.959   4.024 -1.1767  1.2004 -0.9801
  867TIP3   OH224015   6.315   5.224  14.105 -0.1444  0.0024  0.0833
  867TIP3    H124016   6.336   5.154  14.044 -0.9885 -0.4367  0.2890
  867TIP3    H224017   6.278   5.180  14.182  2.1415  0.4130  1.5363
  868TIP3   OH224018   4.546   1.726   6.704 -0.2541 -0.3001  0.0258
  868TIP3    H124019   4.609   1.794   6.681 -0.3840 -0.0128  0.4981
  868TIP3    H224020   4.487   1.722   6.629  1.1088 -1.5473 -1.0445
  869TIP3   OH224021   4.187   3.070  11.953  0.4804 -0.3864 -0.5556
  869TIP3    H124022   4.171   3.016  11.876 -1.1946 -0.9536  0.1576
  869TIP3    H224023   4.127   3.144  11.943 -0.5998 -1.0502  0.7353
  870TIP3   OH224024   4.060   1.031   1.152 -0.7481  0.0513  0.3316
  870TIP3    H124025   4.117   1.056   1.224  0.6550 -2.5918  0.2295
  870TIP3    H224026   4.059   1.108   1.094  2.3468  0.3707  0.5746
  871TIP3   OH224027   4.570   5.089   3.937 -0.4010  0.7174 -0.0219
  871TIP3    H124028   4.611   5.132   4.012  1.5351  0.9589 -1.1414
  871TIP3    H224029   4.548   5.161   3.877  0.3197  0.3744 -0.7179
  872TIP3   OH224030   2.380   6.069  15.762 -0.1777  0.4666 -0.5386
  872TIP3    H124031   2.412   6.150  15.800 -2.7313  1.5703 -0.5112
  872TIP3    H224032   2.367   6.089  15.669  0.7606 -0.4521 -0.8806
  873TIP3   OH224033   0.092   2.175  12.831 -0.1652  0.9401  0.1826
  873TIP3    H124034   0.130   2.169  12.919  2.0145  0.8854 -0.6976
  873TIP3    H224035   0.079   2.084  12.805 -0.6474  0.9526  0.3711
  874TIP3   OH224036   0.049   3.584  11.957  0.3755 -0.1393 -0.1674
  874TIP3    H124037   0.129   3.632  11.976 -0.8082  1.6536  0.5033
  874TIP3    H224038   0.047   3.514  12.023  1.0943  0.1427  0.1627
  875TIP3   OH224039   0.101   2.407  17.398 -0.7541  0.1746  0.3169
  875TIP3    H124040   0.053   2.368  17.471 -1.4187  2.3440  1.1260
  875TIP3    H224041   0.097   2.502  17.415 -0.0780  0.6798 -2.0174
  876TIP3   OH224042   2.034   4.507  17.054 -0.1166  0.2917  0.2476
  876TIP3    H124043   1.939   4.493  17.055  0.0631 -1.0584 -0.0564
  876TIP3    H224044   2.054   4.533  16.964 -0.2303  0.8965  0.3924
  877TIP3   OH224045   6.669   2.232   5.119  0.3406  0.1024 -0.2138
  877TIP3    H124046   6.621   2.294   5.173 -0.6691 -0.3509 -0.5766
  877TIP3    H224047   6.663   2.267   5.030  0.5752 -0.0256 -0.2836
  878TIP3   OH224048   1.469   3.450  13.661  0.4455 -0.1671  0.0902
  878TIP3    H124049   1.535   3.382  13.678  0.3733 -0.6807 -1.5556
  878TIP3    H224050   1.519   3.532  13.666  0.9639 -0.4698  0.0373
  879TIP3   OH224051   5.916   4.091  10.808  0.1166 -0.1987 -0.4119
  879TIP3    H124052   5.920   4.073  10.902  2.3559  1.0082 -0.2075
  879TIP3    H224053   5.925   4.186  10.801 -1.0157 -0.1590 -1.8329
  880TIP3   OH224054   2.335   0.998   1.453  0.4294 -0.6088  0.1698
  880TIP3    H124055   2.404   0.947   1.495  0.1386 -1.2154 -0.0789
  880TIP3    H224056   2.345   0.980   1.359  0.0504 -0.5495  0.1144
  881TIP3   OH224057   5.552   0.143   0.606  0.5030 -0.2117 -0.1600
  881TIP3    H124058   5.457   0.148   0.591  0.5338  0.4780 -0.1377
  881TIP3    H224059   5.578   0.061   0.563 -0.1083 -0.4316 -0.1301
  882TIP3   OH224060   0.723   5.206   1.209 -0.2528 -0.0712 -0.4296
  882TIP3    H124061   0.746   5.186   1.300 -0.8492  0.4377 -0.1637
  882TIP3    H224062   0.639   5.163   1.195  0.9834 -2.3569 -1.5568
  883TIP3   OH224063   4.069   3.363  13.556 -0.2227  0.2156  0.2181
  883TIP3    H124064   4.118   3.282  13.541 -0.2149 -0.1322  1.9594
  883TIP3    H224065   3.989   3.335  13.600  0.2904  1.2252  1.8779
  884TIP3   OH224066   2.908   6.005  11.102  0.2085 -0.1983 -0.0324
  884TIP3    H124067   2.816   6.021  11.122  0.2959  0.7092 -0.3390
  884TIP3    H224068   2.920   5.911  11.120 -0.7774 -0.3367 -0.0339
  885TIP3   OH224069   3.782   1.732  12.576  0.0122 -0.1194 -0.3781
  885TIP3    H124070   3.693   1.760  12.556 -0.5843  0.2515  2.3719
  885TIP3    H224071   3.838   1.800  12.538 -0.9486  0.3841 -0.9246
  886TIP3   OH224072   5.602   4.136   0.922 -0.0997 -0.5179  0.5872
  886TIP3    H124073   5.680   4.173   0.963  0.6930 -1.5453  0.0459
  886TIP3    H224074   5.552   4.099   0.995 -0.8489  1.4168  1.1260
  887TIP3   OH224075   4.557   4.921  15.756 -0.3357  0.3581  0.6020
  887TIP3    H124076   4.603   4.949  15.835 -0.0859  1.1544  0.1844
  887TIP3    H224077   4.563   4.995  15.697 -2.4647  0.6436  0.6485
  888TIP3   OH224078   5.808   3.098   2.829  0.5197  0.1081 -0.1956
  888TIP3    H124079   5.725   3.126   2.866  0.8042 -0.2660  0.7422
  888TIP3    H224080   5.797   3.004   2.813  0.6352  0.1318 -0.4198
  889TIP3   OH224081   0.511   1.797  10.824  0.8177 -0.4073  0.5001
  889TIP3    H124082   0.545   1.845  10.748  1.5851 -0.5217  0.7614
  889TIP3    H224083   0.456   1.729  10.786  2.6878 -1.6674 -0.0890
  890TIP3   OH224084   0.501   0.457   4.629  0.0622  0.1077  0.6585
  890TIP3    H124085   0.436   0.484   4.694 -0.7462  1.5919 -0.7014
  890TIP3    H224086   0.474   0.369   4.603 -1.0435  0.4519  0.5797
  891TIP3   OH224087   5.992   6.017   4.914  0.5191  0.0830  0.3162
  891TIP3    H124088   5.900   6.011   4.888  0.5126  0.6159  0.2051
  891TIP3    H224089   5.992   5.998   5.007  0.4581 -1.2083  0.0636
  892TIP3   OH224090   5.909   4.981   5.060  0.1396  0.1898 -0.0824
  892TIP3    H124091   5.840   5.039   5.027  0.2939 -0.3212 -1.3630
  892TIP3    H224092   5.943   4.938   4.982  0.7233 -0.8683  0.7324
  893TIP3   OH224093   5.688   2.354   2.531 -0.3364 -0.0216  0.2311
  893TIP3    H124094   5.707   2.265   2.559 -1.6814 -1.0926 -1.9246
  893TIP3    H224095   5.766   2.382   2.483 -0.2392 -0.4065  0.1643
  894TIP3   OH224096   0.611   0.270   4.908 -0.0376  0.2335  0.1432
  894TIP3    H124097   0.634   0.288   4.999 -1.1036 -1.2103  0.7501
  894TIP3    H224098   0.533   0.323   4.891  0.4397  0.8654 -0.0912
  895TIP3   OH224099   0.804   4.652  12.155  0.6303 -0.3334 -0.8957
  895TIP3    H124100   0.788   4.617  12.067 -1.2936  0.3065 -0.8492
  895TIP3    H224101   0.720   4.690  12.180  0.8001 -1.4824  1.6734
  896TIP3   OH224102   3.746   4.700   4.485  0.0713 -0.2160 -0.2549
  896TIP3    H124103   3.676   4.711   4.549 -0.1185 -0.8308 -0.3475
  896TIP3    H224104   3.745   4.606   4.465  0.5461 -0.1323 -0.6810
  897TIP3   OH224105   2.700   3.966   3.844  0.0805  0.1257  0.0326
  897TIP3    H124106   2.703   3.921   3.760  0.1656 -1.5972  0.9059
  897TIP3    H224107   2.752   3.910   3.903 -1.4004  0.3583  1.6294
  898TIP3   OH224108   6.271   3.938   0.781 -0.3358  0.0025 -0.2330
  898TIP3    H124109   6.273   3.844   0.761 -0.5597  0.0579 -0.5260
  898TIP3    H224110   6.193   3.970   0.735  0.1066  0.4536 -0.6820
  899TIP3   OH224111   6.406   0.083   3.408  0.2647  0.1283  0.3497
  899TIP3    H124112   6.389   0.097   3.501  2.4456  0.6802  0.7382
  899TIP3    H224113   6.343   0.139   3.363  0.3633  1.2854  1.5845
  900TIP3   OH224114   5.220   4.744  11.648 -0.3294  0.1315  0.0795
  900TIP3    H124115   5.307   4.758  11.686  0.1757 -0.6996 -0.7267
  900TIP3    H224116   5.197   4.654  11.671 -0.7780  0.1986 -0.0914
  901TIP3   OH224117   3.118   5.621  13.361 -0.1736 -0.0476 -0.2660
  901TIP3    H124118   3.114   5.594  13.269  1.0304  1.6230 -0.8836
  901TIP3    H224119   3.057   5.694  13.367 -0.1336 -0.0511  0.2256
  902TIP3   OH224120   4.071   5.047  10.369  0.5542 -0.1688 -0.1395
  902TIP3    H124121   4.115   5.117  10.320 -0.8844  1.0297  0.2048
  902TIP3    H224122   4.113   5.050  10.455 -1.0700  1.9736  0.6772
  903TIP3   OH224123   2.293   4.960   3.243  0.5897  0.2554  0.1344
  903TIP3    H124124   2.380   4.921   3.240 -0.0538 -1.2120 -0.9501
  903TIP3    H224125   2.272   4.977   3.151 -0.5432 -0.0568  0.3254
  904TIP3   OH224126   1.666   4.091  13.865  0.4112  0.1218 -0.3504
  904TIP3    H124127   1.636   4.037  13.791  0.1365 -1.2233  0.7036
  904TIP3    H224128   1.585   4.126  13.903  0.4001 -0.7358  0.4416
  905TIP3   OH224129   0.447   4.975  15.752 -0.0796 -0.1562  0.3773
  905TIP3    H124130   0.495   4.975  15.834  1.7732  0.1176 -0.6471
  905TIP3    H224131   0.368   5.025  15.771  0.0438 -0.5547  2.1085
  906TIP3   OH224132   2.184   3.286   4.533 -0.0823 -0.1996 -0.0066
  906TIP3    H124133   2.115   3.308   4.470 -0.1775 -0.5164 -0.0126
  906TIP3    H224134   2.252   3.244   4.480  0.0421 -0.0441  0.0281
  907TIP3   OH224135   2.380   2.721   1.191  0.1361 -0.7182 -0.4651
  907TIP3    H124136   2.409   2.634   1.220  0.0986 -0.8250 -0.7486
  907TIP3    H224137   2.304   2.704   1.136 -0.6556 -0.4213  0.4964
  908TIP3   OH224138   3.382   3.653  11.216 -0.2519 -0.4783 -0.6008
  908TIP3    H124139   3.376   3.568  11.171 -0.0168  0.0709 -1.7235
  908TIP3    H224140   3.380   3.717  11.145  3.3282  0.3527 -0.1479
  909TIP3   OH224141   4.678   4.739  13.240 -0.1945  0.3111 -0.4413
  909TIP3    H124142   4.744   4.727  13.308  2.3494 -0.9962 -2.9230
  909TIP3    H224143   4.710   4.812  13.187  0.2602 -1.3391 -2.6090
  910TIP3   OH224144   3.814   0.907  16.635 -0.4375  0.9130 -0.2685
  910TIP3    H124145   3.893   0.949  16.600 -0.2080  1.2852  0.6733
  910TIP3    H224146   3.744   0.938  16.579 -0.2922  2.6846  0.4720
  911TIP3   OH224147   2.471   1.396   2.638  0.8438  0.3593 -0.3462
  911TIP3    H124148   2.481   1.346   2.719 -0.1557  0.9439  0.1719
  911TIP3    H224149   2.486   1.333   2.568 -0.1000 -0.6192  0.2855
  912TIP3   OH224150   2.948   1.259   4.975 -0.1941 -0.2772  0.1337
  912TIP3    H124151   2.878   1.202   4.942 -1.5659  1.1760  0.3867
  912TIP3    H224152   2.924   1.275   5.066  1.5465 -1.2916  0.7991
  913TIP3   OH224153   5.398   1.762  16.762 -0.5304  0.1216 -0.1755
  913TIP3    H124154   5.327   1.721  16.812 -0.4676 -0.2700 -0.4074
  913TIP3    H224155   5.458   1.690  16.742  1.2889  0.8289  2.2458
  914TIP3   OH224156   6.207   3.856   2.575  0.0071  0.6916 -0.1561
  914TIP3    H124157   6.167   3.827   2.656  0.7496  1.2820  0.4373
  914TIP3    H224158   6.134   3.864   2.513 -0.2489 -2.3867 -0.3909
  915TIP3   OH224159   2.594   0.126   3.485  0.1431  0.1786 -0.0577
  915TIP3    H124160   2.663   0.091   3.541 -0.9045 -1.4508  0.3018
  915TIP3    H224161   2.563   0.204   3.531  0.8788  0.2037  0.4189
  916TIP3   OH224162   1.904   2.704  13.824  0.2084 -0.0669  0.3911
  916TIP3    H124163   1.856   2.737  13.748  0.9633 -1.3692 -0.7027
  916TIP3    H224164   1.992   2.689  13.791  1.1074  1.2282  2.0762
  917TIP3   OH224165   2.206   4.635  10.989 -0.0512  0.7172  0.0790
  917TIP3    H124166   2.166   4.707  11.037 -1.9517  0.1245 -0.5260
  917TIP3    H224167   2.192   4.657  10.897 -0.8849 -0.5374 -0.1083
  918TIP3   OH224168   1.170   4.588   3.474 -0.6730 -0.4066  0.4294
  918TIP3    H124169   1.100   4.567   3.412  0.1759 -1.2882 -0.2644
  918TIP3    H224170   1.243   4.532   3.448  0.1459  0.1547  1.4247
  919TIP3   OH224171   3.263   4.423  16.640 -0.4021 -0.2479  0.4062
  919TIP3    H124172   3.258   4.509  16.599 -0.7300  0.0909  1.1466
  919TIP3    H224173   3.352   4.392  16.619 -0.1527  0.4201  0.4504
  920TIP3   OH224174   3.178   0.394   1.152  0.0441  0.3138  0.3369
  920TIP3    H124175   3.220   0.399   1.238 -2.7518  0.1029  1.8051
  920TIP3    H224176   3.249   0.415   1.090  2.7038 -1.7020  2.4579
  921TIP3   OH224177   0.712   5.942  14.239  0.3120  0.2497  0.7200
  921TIP3    H124178   0.634   5.920  14.188  1.5737  0.8969 -1.6283
  921TIP3    H224179   0.684   6.015  14.295 -0.8463  0.2483  0.1795
  922TIP3   OH224180   2.137   1.462  12.394 -0.1149 -0.2177  0.2959
  922TIP3    H124181   2.211   1.411  12.363 -0.2302  0.2055 -0.7200
  922TIP3    H224182   2.091   1.489  12.314 -0.1560  1.3212  0.8126
  923TIP3   OH224183   2.676   4.510  10.607 -0.4233 -0.2420  0.7580
  923TIP3    H124184   2.769   4.496  10.625 -0.0767  1.5100  0.5319
  923TIP3    H224185   2.639   4.539  10.691 -1.1983 -2.5647  1.3157
  924TIP3   OH224186   0.012   1.852   4.466 -0.4603  0.0554  0.6303
  924TIP3    H124187   0.075   1.787   4.496 -0.5619 -0.2472  0.2059
  924TIP3    H224188  -0.073   1.818   4.493 -0.5142  0.0042  0.4028
  925TIP3   OH224189   4.421   2.155   2.711  0.5631  0.0008 -0.2459
  925TIP3    H124190   4.470   2.200   2.781  0.5402 -0.7511  0.2663
  925TIP3    H224191   4.431   2.062   2.731  0.1904 -0.2104 -1.0095
  926TIP3   OH224192   6.508   3.255   4.561  0.1050  0.3021 -0.2650
  926TIP3    H124193   6.470   3.238   4.646  0.5292  1.1526  0.1164
  926TIP3    H224194   6.463   3.196   4.501 -1.1691  0.6602  0.3112
  927TIP3   OH224195   6.153   1.172  16.948 -0.1812  0.8537  0.1546
  927TIP3    H124196   6.072   1.140  16.988  0.1491 -2.4839 -1.5518
  927TIP3    H224197   6.220   1.110  16.976  1.1036  1.5742 -1.1890
  928TIP3   OH224198   4.321   4.276  16.198  0.1064 -0.1223  0.7973
  928TIP3    H124199   4.358   4.209  16.255  0.8757  0.9172  1.5665
  928TIP3    H224200   4.396   4.310  16.149 -0.3391 -0.1104  0.1150
  929TIP3   OH224201   2.439   6.076   5.193 -1.0210  0.2842 -1.1531
  929TIP3    H124202   2.488   6.158   5.183 -0.5709  0.2255  0.4044
  929TIP3    H224203   2.504   6.007   5.177 -0.6110  0.2104  0.6467
  930TIP3   OH224204   0.034   5.050   5.265 -0.5993  0.3707 -0.0398
  930TIP3    H124205  -0.042   5.064   5.209 -0.3690  1.9976 -0.0051
  930TIP3    H224206   0.091   5.125   5.247 -0.3513  0.7614  2.0606
  931TIP3   OH224207   2.060   0.629  12.062 -0.1260  0.3209  0.4342
  931TIP3    H124208   2.150   0.596  12.070  0.1985  0.9386 -0.4891
  931TIP3    H224209   2.006   0.551  12.069  0.6001 -0.3641 -1.1377
  932TIP3   OH224210   5.165   4.690   0.995 -0.0595  0.4607 -0.0923
  932TIP3    H124211   5.178   4.779   1.027  0.7358 -0.0321  0.9863
  932TIP3    H224212   5.149   4.701   0.901  2.6329  1.5858 -0.5087
  933TIP3   OH224213   5.833   3.635   2.657  0.4767  0.6249 -0.4873
  933TIP3    H124214   5.768   3.704   2.672 -2.2077 -1.2538 -2.3832
  933TIP3    H224215   5.795   3.558   2.700  1.6922 -0.4534 -1.2885
  934TIP3   OH224216   3.657   1.770  14.112  0.3349 -0.2436 -0.4982
  934TIP3    H124217   3.664   1.843  14.050 -1.5503 -0.3142 -0.8421
  934TIP3    H224218   3.682   1.693  14.061  2.9841  0.1716  0.0432
  935TIP3   OH224219   0.876   5.421   4.997  0.3289 -0.1584  0.7954
  935TIP3    H124220   0.857   5.381   5.082  0.2413 -0.6743  0.5367
  935TIP3    H224221   0.939   5.490   5.017  1.7794 -1.4988  1.0645
  936TIP3   OH224222   5.916   1.736  13.122 -0.5366  0.1465  0.2654
  936TIP3    H124223   5.974   1.660  13.122 -0.4539  0.1966 -0.7449
  936TIP3    H224224   5.946   1.789  13.196 -0.1266 -0.4497  0.5301
  937TIP3   OH224225   2.389   3.312  13.309 -0.2271 -0.2307  0.5001
  937TIP3    H124226   2.468   3.364  13.321 -0.6026  0.5032 -0.1315
  937TIP3    H224227   2.319   3.376  13.302 -0.6361 -0.7815 -0.8218
  938TIP3   OH224228   1.547   3.110   1.610  0.0152  0.1442  0.3681
  938TIP3    H124229   1.464   3.148   1.640 -0.1119  0.7792 -0.7576
  938TIP3    H224230   1.526   3.070   1.526  1.1120  1.3951 -0.5293
  939TIP3   OH224231   5.758   3.057  13.481 -0.7750 -0.0561 -0.3602
  939TIP3    H124232   5.760   2.963  13.467  0.4879  0.0230 -0.8966
  939TIP3    H224233   5.763   3.067  13.576 -1.6524 -0.5254 -0.2552
  940TIP3   OH224234   1.498   1.541  11.506 -0.3267  0.2180  0.2817
  940TIP3    H124235   1.531   1.594  11.579 -2.3819  0.9629  0.7339
  940TIP3    H224236   1.403   1.546  11.514 -0.6040 -2.3584 -0.5630
  941TIP3   OH224237   3.879   5.900  12.194 -0.1856  0.0595 -0.1124
  941TIP3    H124238   3.949   5.878  12.256  0.0097 -1.3337 -0.8020
  941TIP3    H224239   3.885   5.834  12.126 -1.5041  0.5550 -0.7450
  942TIP3   OH224240   1.739   0.857  16.366  0.2557  0.4089  0.4835
  942TIP3    H124241   1.692   0.782  16.331  0.1178  2.1433 -3.5168
  942TIP3    H224242   1.829   0.845  16.335  0.3401  1.6623  0.2259
  943TIP3   OH224243   1.154   5.159   4.106  0.2479 -0.0995 -0.1449
  943TIP3    H124244   1.188   5.233   4.156  0.0394 -0.6951  0.9146
  943TIP3    H224245   1.229   5.128   4.055  0.1851  1.1922 -1.0818
  944TIP3   OH224246   1.330   0.091  11.934 -0.3246 -0.1338 -0.1941
  944TIP3    H124247   1.320   0.184  11.912 -2.7187 -0.0716  0.8243
  944TIP3    H224248   1.248   0.051  11.905 -0.1476 -1.5443  1.1503
  945TIP3   OH224249   2.769   3.260  15.340 -0.2563 -0.0909  0.3389
  945TIP3    H124250   2.714   3.307  15.277  0.8077  2.4933  1.1753
  945TIP3    H224251   2.709   3.234  15.410 -0.9954 -0.6093 -0.4708
  946TIP3   OH224252   2.442   3.201  16.403  0.2104 -0.5786 -0.5069
  946TIP3    H124253   2.499   3.127  16.384 -1.1528 -1.2853 -2.0483
  946TIP3    H224254   2.481   3.274  16.355  1.8343 -0.0952  1.4090
  947TIP3   OH224255   1.272   6.153   1.013  0.3242  0.0564  0.5794
  947TIP3    H124256   1.291   6.059   1.006  0.3095  0.1602 -1.4071
  947TIP3    H224257   1.345   6.188   1.065  2.1651 -0.6114 -1.3625
  948TIP3   OH224258   3.494   5.557   5.485 -0.1439 -0.1031 -0.3434
  948TIP3    H124259   3.534   5.644   5.483 -3.6374  1.6924 -0.0174
  948TIP3    H224260   3.437   5.555   5.409 -2.1836 -0.9462  1.1248
  949TIP3   OH224261   1.740   2.181  16.206 -0.1543 -0.0510 -0.3537
  949TIP3    H124262   1.699   2.146  16.127 -1.3323  1.3986 -0.4343
  949TIP3    H224263   1.744   2.275  16.191  0.5737  0.1360  0.8825
  950TIP3   OH224264   6.480   2.779  12.786  0.6437 -0.3958 -0.0132
  950TIP3    H124265   6.414   2.731  12.737  0.4869  1.4914 -1.7456
  950TIP3    H224266   6.542   2.811  12.720  2.0760 -0.2547  1.3312
  951TIP3   OH224267   4.458   2.957  15.306 -0.1124 -0.2505 -0.4874
  951TIP3    H124268   4.385   3.005  15.346 -0.4127 -1.1730  0.1155
  951TIP3    H224269   4.422   2.870  15.289  0.3634 -0.2149 -1.7288
  952TIP3   OH224270   3.475   0.921  11.159 -0.2241 -0.0159  0.0363
  952TIP3    H124271   3.519   0.934  11.075  0.1438 -0.7910  0.1040
  952TIP3    H224272   3.544   0.931  11.224 -0.2411 -0.7090  0.1706
  953TIP3   OH224273   2.546   3.679   4.088  0.9073 -0.2760 -0.4060
  953TIP3    H124274   2.561   3.635   4.172  1.4735  0.0858 -0.3105
  953TIP3    H224275   2.633   3.706   4.060  0.7078 -0.3173 -1.0731
  954TIP3   OH224276   2.417   6.381  15.465 -0.0580 -0.7052 -0.0636
  954TIP3    H124277   2.490   6.370  15.404 -0.6004 -2.2971 -0.4638
  954TIP3    H224278   2.459   6.386  15.552  0.5759 -0.5427 -0.3705
  955TIP3   OH224279   0.081   4.232  16.638  0.2866 -0.3903  0.8554
  955TIP3    H124280  -0.012   4.214  16.651 -0.0472  0.2604 -0.4420
  955TIP3    H224281   0.083   4.323  16.608  1.0445 -1.2282 -1.9459
  956TIP3   OH224282   5.971   5.066  11.559 -0.5717 -0.1098 -0.0057
  956TIP3    H124283   6.034   4.998  11.581 -0.7710 -0.1622  0.4102
  956TIP3    H224284   6.011   5.147  11.592 -0.6317 -0.1141  0.0764
  957TIP3   OH224285   4.808   3.831   2.683 -0.6328 -0.1196  0.2219
  957TIP3    H124286   4.830   3.747   2.641 -1.3147 -0.1548 -0.0836
  957TIP3    H224287   4.890   3.879   2.683  0.0604 -1.2354  1.4875
  958TIP3   OH224288   0.089   4.089   0.424 -0.1878 -0.1020  0.0044
  958TIP3    H124289   0.060   4.057   0.339  1.2855  0.7802 -0.8660
  958TIP3    H224290   0.009   4.104   0.473 -1.1681  1.1312 -1.8826
  959TIP3   OH224291   0.237   4.779  16.666  0.4790 -0.0890  0.4202
  959TIP3    H124292   0.223   4.863  16.711  1.4433  1.4265 -1.9103
  959TIP3    H224293   0.159   4.767  16.612  0.6714 -0.3170  0.1880
  960TIP3   OH224294   3.322   0.695  11.225 -0.4001  0.3514 -0.7430
  960TIP3    H124295   3.383   0.768  11.210 -0.8478  0.9889  0.4099
  960TIP3    H224296   3.269   0.692  11.145  1.2183 -0.3263 -1.8404
  961TIP3   OH224297   2.297   4.929   4.474  0.2693 -0.2931 -0.0424
  961TIP3    H124298   2.205   4.945   4.454  0.1661  0.5542  1.0015
  961TIP3    H224299   2.302   4.835   4.488 -0.7670 -0.1682  1.3771
  962TIP3   OH224300   2.569   3.841  15.035  0.2157 -0.2396 -0.6503
  962TIP3    H124301   2.663   3.860  15.030 -0.2598  2.1079 -1.7609
  962TIP3    H224302   2.547   3.808  14.947 -0.2112  0.2880 -0.7410
  963TIP3   OH224303   2.663   3.932   6.192  0.2106 -0.2691 -0.0907
  963TIP3    H124304   2.640   4.014   6.147  0.6403  0.7898  1.5269
  963TIP3    H224305   2.598   3.923   6.261 -1.3707 -2.6887 -1.7639
  964TIP3   OH224306   5.481   4.300  12.775 -0.0410 -0.0860 -0.2600
  964TIP3    H124307   5.540   4.365  12.735  0.1084 -0.8167 -1.2650
  964TIP3    H224308   5.538   4.247  12.831  0.7149 -1.9878 -2.6540
  965TIP3   OH224309   5.801   3.000   0.485 -0.0800 -0.3750  0.1265
  965TIP3    H124310   5.773   3.091   0.499 -0.6107 -0.6757  1.0898
  965TIP3    H224311   5.884   3.007   0.439  0.4175  0.6226  1.1492
  966TIP3   OH224312   2.401   0.735  14.470 -0.3968  0.2044 -0.2396
  966TIP3    H124313   2.396   0.686  14.387 -0.1757  0.2813 -0.2974
  966TIP3    H224314   2.310   0.759  14.488 -0.4597  0.0937 -0.4054
  967TIP3   OH224315   1.214   4.099  16.927 -0.1556 -0.3864  0.1705
  967TIP3    H124316   1.154   4.029  16.954  1.3648 -0.9038  2.4279
  967TIP3    H224317   1.166   4.180  16.945 -1.2555 -0.7867 -0.8070
  968TIP3   OH224318   0.233   5.231  10.569  0.0797 -0.1975 -0.7072
  968TIP3    H124319   0.215   5.149  10.614 -1.5872 -0.4806 -1.7793
  968TIP3    H224320   0.278   5.285  10.634  0.9474 -1.8307  0.1074
  969TIP3   OH224321   5.096   5.477   4.084  0.4568  0.6390  0.1531
  969TIP3    H124322   5.065   5.521   4.163  0.7837 -0.8018  1.1192
  969TIP3    H224323   5.076   5.384   4.098  2.7983 -0.0066 -0.3295
  970TIP3   OH224324   4.376   1.326   6.174  0.1788  0.0949 -0.3090
  970TIP3    H124325   4.437   1.328   6.100 -0.9252 -0.2362 -1.2609
  970TIP3    H224326   4.376   1.234   6.201  0.5886  0.2176  0.1259
  971TIP3   OH224327   0.144   4.115   1.859 -0.3066 -0.0867 -0.2835
  971TIP3    H124328   0.194   4.191   1.889 -1.3414  0.5604 -0.1645
  971TIP3    H224329   0.088   4.092   1.933 -1.1135  0.0042 -0.8465
  972TIP3   OH224330   4.311   3.179  17.033 -0.2380  0.3197 -0.5363
  972TIP3    H124331   4.217   3.158  17.040 -0.0113 -0.3470  0.8802
  972TIP3    H224332   4.313   3.273  17.015 -1.1912  0.4303 -0.1643
  973TIP3   OH224333   1.622   5.091   4.872 -0.0592 -0.0387 -0.4414
  973TIP3    H124334   1.596   5.107   4.963  0.4837  3.0932 -0.7233
  973TIP3    H224335   1.674   5.011   4.875 -1.8314 -1.2227  1.6104
  974TIP3   OH224336   2.898   1.774   4.593 -0.1862  0.1294  0.1244
  974TIP3    H124337   2.821   1.789   4.539 -0.0494  2.3185  0.4656
  974TIP3    H224338   2.877   1.813   4.677  1.3615  0.9675  0.1604
  975TIP3   OH224339   6.075   4.212  16.645  0.4101  0.3972 -0.2573
  975TIP3    H124340   6.000   4.156  16.664  0.3552  0.7046  0.4605
  975TIP3    H224341   6.117   4.170  16.570 -0.5413  0.2930 -0.7502
  976TIP3   OH224342   4.153   1.681  14.317 -0.9007  0.1373  0.2667
  976TIP3    H124343   4.203   1.715  14.243  1.9277 -3.6265  0.1865
  976TIP3    H224344   4.070   1.653  14.279 -0.3320  0.2113 -1.0718
  977TIP3   OH224345   3.273   4.021   0.754  0.6421  0.7317 -0.0575
  977TIP3    H124346   3.315   3.935   0.750 -1.2919 -0.2800 -0.2613
  977TIP3    H224347   3.321   4.069   0.821  1.1542 -0.8940  0.8013
  978TIP3   OH224348   4.271   1.144  16.090 -0.0820  0.3885  0.1648
  978TIP3    H124349   4.276   1.234  16.058  0.6987 -0.7410 -3.3301
  978TIP3    H224350   4.361   1.118  16.106 -0.2751  0.1171  0.8513
  979TIP3   OH224351   5.651   0.924  15.310 -0.4672 -0.4631  0.1116
  979TIP3    H124352   5.674   1.016  15.291 -1.2171 -0.1823  0.5544
  979TIP3    H224353   5.669   0.914  15.403  0.9521 -1.1770 -0.2137
  980TIP3   OH224354   1.173   5.813  14.362 -1.3191  0.3185  0.0815
  980TIP3    H124355   1.187   5.728  14.405  1.1389  0.6627  0.1204
  980TIP3    H224356   1.154   5.790  14.271 -0.8884 -0.2808  0.1334
  981TIP3   OH224357   3.530   0.197   2.530 -0.1249  0.1514  0.1026
  981TIP3    H124358   3.455   0.230   2.481  0.4623  0.5739 -0.5319
  981TIP3    H224359   3.605   0.210   2.472 -0.0513 -4.1765 -1.1213
  982TIP3   OH224360   0.259   4.783   2.098  0.3003 -0.0225 -0.0329
  982TIP3    H124361   0.321   4.768   2.168  0.2905  0.0674 -0.0043
  982TIP3    H224362   0.186   4.724   2.116 -1.1137  2.1007  1.7433
  983TIP3   OH224363   3.526   4.646  15.157 -0.6281 -0.0382 -0.4552
  983TIP3    H124364   3.442   4.611  15.189 -1.1538  1.5459 -0.0321
  983TIP3    H224365   3.546   4.718  15.216  1.2255 -0.5928 -0.3599
  984TIP3   OH224366   2.038   0.809  16.002 -0.2280  0.4497  0.0418
  984TIP3    H124367   2.026   0.860  16.082 -1.0495 -0.4312  0.4952
  984TIP3    H224368   1.951   0.809  15.961  0.1116  0.6318 -0.6952
  985TIP3   OH224369   3.949   5.027  14.583 -0.5456 -0.1328  0.0375
  985TIP3    H124370   3.859   5.055  14.568 -0.8767 -1.4476 -0.5648
  985TIP3    H224371   4.002   5.085  14.528 -0.8873  1.3876  1.2487
  986TIP3   OH224372   1.050   2.259  11.051  0.1081  0.7469 -0.4177
  986TIP3    H124373   1.006   2.343  11.064  0.0839  0.9811 -1.8887
  986TIP3    H224374   1.030   2.235  10.961 -0.3284 -1.1133  0.1316
  987TIP3   OH224375   0.571   6.462  17.324 -0.0040  0.3267  0.0388
  987TIP3    H124376   0.666   6.448  17.326 -0.0355 -0.2218  3.2369
  987TIP3    H224377   0.534   6.375  17.338 -0.8705  0.8831  1.3455
  988TIP3   OH224378   2.693   5.679  13.122  0.3850  0.0140  0.1083
  988TIP3    H124379   2.686   5.593  13.081  1.3078 -0.2430  0.4525
  988TIP3    H224380   2.722   5.660  13.212 -0.4182  0.6283  0.5070
  989TIP3   OH224381   6.387   1.932  14.137 -0.6431 -0.2049 -0.1600
  989TIP3    H124382   6.450   1.989  14.181 -0.1937 -0.9294  0.1609
  989TIP3    H224383   6.305   1.945  14.186 -0.4029 -0.2472  0.2583
  990TIP3   OH224384   6.116   1.670  11.962  0.4925  0.6338 -0.2766
  990TIP3    H124385   6.024   1.694  11.962  0.1165 -0.4953 -2.4225
  990TIP3    H224386   6.119   1.587  11.914  2.5340  0.1728  0.5140
  991TIP3   OH224387   2.327   5.721   2.577 -0.1276  0.4331 -0.3127
  991TIP3    H124388   2.298   5.750   2.663 -0.7480 -1.6257  0.2229
  991TIP3    H224389   2.365   5.635   2.591  1.1360  0.6842 -1.8926
  992TIP3   OH224390   5.216   1.013  13.329  0.3802 -0.4281 -0.0759
  992TIP3    H124391   5.123   1.026  13.346  0.1977 -1.0230 -0.5909
  992TIP3    H224392   5.256   1.099  13.347 -0.2894 -0.1197 -0.0379
  993TIP3   OH224393   0.144   1.195   5.125 -0.3050 -0.3451 -0.0893
  993TIP3    H124394   0.135   1.289   5.138 -0.0879 -0.4560  0.9739
  993TIP3    H224395   0.218   1.171   5.181  1.1088 -0.7962 -2.0379
  994TIP3   OH224396   1.002   5.164  14.285 -0.2225  0.1228  0.2940
  994TIP3    H124397   1.049   5.196  14.208  1.2144 -0.2940  0.9540
  994TIP3    H224398   1.034   5.075  14.298 -2.4151 -0.7973 -0.1380
  995TIP3   OH224399   3.624   4.501  12.280  0.2601  0.4662 -0.0674
  995TIP3    H124400   3.641   4.434  12.214  0.2248  1.9401 -1.6505
  995TIP3    H224401   3.536   4.483  12.311  0.6279 -0.8022  0.2877
  996TIP3   OH224402   3.788   2.609  13.605 -0.0403  0.1205  0.0593
  996TIP3    H124403   3.836   2.690  13.626 -0.8582  0.3353  1.1884
  996TIP3    H224404   3.715   2.638  13.551  0.3986 -0.0509 -0.6407
  997TIP3   OH224405   0.285   2.389  12.820  0.5507 -0.0576  0.4345
  997TIP3    H124406   0.304   2.357  12.908  0.9021 -0.4530  0.2167
  997TIP3    H224407   0.221   2.327  12.785 -0.7861  0.9690  0.9686
  998TIP3   OH224408   5.588   0.416   4.137 -0.0659 -0.0950 -0.4366
  998TIP3    H124409   5.512   0.461   4.174  0.8610  1.3933 -0.2640
  998TIP3    H224410   5.579   0.326   4.168 -1.5129  0.1460 -0.0473
  999TIP3   OH224411   3.739   5.982   1.674 -0.5085  0.2135 -0.3338
  999TIP3    H124412   3.830   6.000   1.694 -0.6410 -0.5831  1.1234
  999TIP3    H224413   3.734   5.982   1.578  0.5304  2.5111 -0.4450
 1000TIP3   OH224414   0.230   2.797  15.524  0.0169 -0.3051 -0.0085
 1000TIP3    H124415   0.294   2.816  15.592  0.8326 -2.7264 -0.0029
 1000TIP3    H224416   0.154   2.764  15.572  0.7572 -2.4477 -0.2081
 1001TIP3   OH224417   6.361   0.603   4.543 -0.3856 -0.1550  0.1852
 1001TIP3    H124418   6.310   0.634   4.617  1.8938  0.0878  1.7582
 1001TIP3    H224419   6.424   0.674   4.526 -0.9260 -0.1477 -2.1073
 1002TIP3   OH224420   2.150   2.465  12.679 -0.3492  0.1829 -0.0880
 1002TIP3    H124421   2.079   2.433  12.623 -0.1287 -0.0472 -0.2336
 1002TIP3    H224422   2.224   2.478  12.620  0.9127 -3.0333  0.5484
 1003TIP3   OH224423   4.371   2.563   0.183 -0.2026  0.1602 -0.1194
 1003TIP3    H124424   4.447   2.521   0.225 -0.8267  1.7942  2.9830
 1003TIP3    H224425   4.301   2.498   0.190  0.1058 -0.1645  0.0074
 1004TIP3   OH224426   6.247   2.236  13.786  0.1809  0.6376  0.1836
 1004TIP3    H124427   6.218   2.265  13.873 -0.3311  2.6176 -0.6042
 1004TIP3    H224428   6.274   2.145  13.800  0.8074  1.1048  2.5667
 1005TIP3   OH224429   4.448   2.854  12.576  0.1246 -0.0579 -0.2190
 1005TIP3    H124430   4.535   2.877  12.544  0.6544 -2.6062 -0.8924
 1005TIP3    H224431   4.403   2.818  12.500 -1.0308 -0.0549  0.4351
 1006TIP3   OH224432   2.983   0.587   3.347  0.0828  0.3825  0.3309
 1006TIP3    H124433   3.052   0.646   3.316 -0.9050  1.5624  0.2900
 1006TIP3    H224434   2.913   0.597   3.283 -0.8880  0.7221  1.4236
 1007TIP3   OH224435   5.306   0.936  16.887  0.6364  0.6524  0.0939
 1007TIP3    H124436   5.214   0.957  16.869  0.1070 -0.9129  0.7380
 1007TIP3    H224437   5.346   1.019  16.912 -0.4347  1.4799 -0.8330
 1008TIP3   OH224438   3.875   3.647  11.343 -0.3162  0.1036 -0.2513
 1008TIP3    H124439   3.825   3.602  11.275 -0.3371 -0.8038  0.3492
 1008TIP3    H224440   3.925   3.577  11.386  1.6227  0.9790 -0.9397
 1009TIP3   OH224441   6.687   6.465  16.425 -1.3915 -0.1867  0.6530
 1009TIP3    H124442   6.770   6.458  16.472 -1.9895 -0.9583  1.6415
 1009TIP3    H224443   6.711   6.491  16.337 -0.2104  0.9444  1.2826
 1010TIP3   OH224444   3.502   4.400  14.297  0.0761  0.6093  0.7066
 1010TIP3    H124445   3.516   4.461  14.370 -1.7932  1.3264  0.5220
 1010TIP3    H224446   3.573   4.419  14.237  0.1353  1.9068  1.1369
 1011TIP3   OH224447   3.897   4.607  11.655 -0.3058  0.5723 -0.1313
 1011TIP3    H124448   3.856   4.663  11.589 -0.0126  0.6343 -0.2666
 1011TIP3    H224449   3.979   4.652  11.675 -0.7363  0.9425  0.8307
 1012TIP3   OH224450   6.211   4.993  14.709  0.0668 -0.0675  0.3662
 1012TIP3    H124451   6.194   4.919  14.767  0.1064  1.3595  2.3024
 1012TIP3    H224452   6.126   5.015  14.671 -0.2392 -0.1358  1.0065
 1013TIP3   OH224453   2.754   1.588  15.146 -0.2593  0.1671  0.6474
 1013TIP3    H124454   2.674   1.578  15.196  0.2065  0.4856  1.4706
 1013TIP3    H224455   2.774   1.681  15.151 -0.1571  0.1883 -0.0601
 1014TIP3   OH224456   3.875   3.070  12.401  0.3627 -0.4628 -0.6411
 1014TIP3    H124457   3.860   3.125  12.324  1.1648  1.9285  0.7935
 1014TIP3    H224458   3.939   3.005  12.373 -2.4648 -2.4689 -3.1114
 1015TIP3   OH224459   3.501   6.389   3.571  0.0005 -0.0487  0.3123
 1015TIP3    H124460   3.584   6.412   3.614  0.4506 -0.7696 -0.1444
 1015TIP3    H224461   3.518   6.403   3.478 -0.0462 -1.2155  0.1218
 1016TIP3   OH224462   1.289   0.042  17.499 -0.2693 -0.0431 -0.3738
 1016TIP3    H124463   1.355   0.058  17.567 -0.3016 -0.4664 -0.2408
 1016TIP3    H224464   1.258  -0.047  17.517 -1.5528  0.4902  0.1377
 1017TIP3   OH224465   6.611   2.807   4.511 -0.1830 -0.2837  0.5129
 1017TIP3    H124466   6.622   2.762   4.427  0.8005 -0.5717  0.7749
 1017TIP3    H224467   6.686   2.778   4.563  0.9132  2.2038  0.4519
 1018TIP3   OH224468   2.231   1.631  16.334 -0.3916 -0.2342 -0.5870
 1018TIP3    H124469   2.193   1.550  16.369  0.8472 -0.4464  0.3519
 1018TIP3    H224470   2.168   1.660  16.268 -1.7726 -0.9800  0.3370
 1019TIP3   OH224471   5.913   4.286  17.394  0.3646 -0.6280  0.3434
 1019TIP3    H124472   5.908   4.369  17.441 -1.7381 -0.0764 -0.7360
 1019TIP3    H224473   5.973   4.304  17.322 -0.7761  0.2922 -0.4174
 1020TIP3   OH224474   5.821   3.818   6.493 -0.2264  0.1541 -0.4318
 1020TIP3    H124475   5.838   3.768   6.573  0.8828 -0.6805 -1.1603
 1020TIP3    H224476   5.908   3.834   6.455 -0.6978  0.9804 -1.2092
 1021TIP3   OH224477   6.201   3.327   1.773  0.7684 -0.0988  0.4070
 1021TIP3    H124478   6.190   3.421   1.784 -0.8778 -0.1548 -0.4026
 1021TIP3    H224479   6.116   3.290   1.799  1.0955 -1.2749 -0.1166
 1022TIP3   OH224480   1.578   5.136   5.872  0.0248  0.2154 -0.0048
 1022TIP3    H124481   1.571   5.051   5.916  0.3430  0.5040  0.6217
 1022TIP3    H224482   1.520   5.129   5.796 -1.3523  0.0627  1.0321
 1023TIP3   OH224483   1.517   5.914  14.012  0.4512  0.4617 -0.0330
 1023TIP3    H124484   1.432   5.958  14.013  1.4269  2.4413  0.7396
 1023TIP3    H224485   1.506   5.839  14.071 -1.5998 -1.1861 -2.2902
 1024TIP3   OH224486   2.290   4.800  17.205  0.0684  0.1965  0.1228
 1024TIP3    H124487   2.273   4.790  17.299  0.3452  0.3829  0.1913
 1024TIP3    H224488   2.324   4.714  17.178 -0.3431  0.0289  0.1171
 1025TIP3   OH224489   4.831   1.731  17.146 -0.0027 -0.0607  0.1723
 1025TIP3    H124490   4.738   1.751  17.148 -0.2727 -1.2587  0.0580
 1025TIP3    H224491   4.872   1.811  17.112 -0.9884  0.4522  0.1666
 1026TIP3   OH224492   2.989   2.694  11.285  0.3309 -0.2438  0.2371
 1026TIP3    H124493   3.084   2.703  11.281  0.7870 -2.9582  2.2657
 1026TIP3    H224494   2.967   2.631  11.217 -0.2619  1.4268 -1.1743
 1027TIP3   OH224495   0.875   3.944  13.069 -0.1992 -0.2459  0.2838
 1027TIP3    H124496   0.959   3.928  13.110  0.3345 -1.4304 -1.1941
 1027TIP3    H224497   0.891   4.018  13.009 -0.7490  0.8709  1.4564
 1028TIP3   OH224498   2.122   3.815   1.711  0.4083  0.0399  0.5691
 1028TIP3    H124499   2.099   3.723   1.699  1.6295 -0.0966 -1.2618
 1028TIP3    H224500   2.212   3.814   1.744  0.2200  0.5807  1.1278
 1029TIP3   OH224501   0.043   0.163   4.744  0.4955 -0.5260  0.0755
 1029TIP3    H124502   0.057   0.228   4.812  1.0002 -2.6805  2.1785
 1029TIP3    H224503  -0.040   0.121   4.767  1.1002 -1.8697 -0.0877
 1030TIP3   OH224504   3.318   2.305   6.163  0.6333  1.0714 -0.1474
 1030TIP3    H124505   3.230   2.334   6.187  1.2264  1.9418  1.1867
 1030TIP3    H224506   3.355   2.379   6.115  0.6081  0.6778 -0.7738
 1031TIP3   OH224507   4.569   5.788   1.450 -0.1977 -0.1147  0.1778
 1031TIP3    H124508   4.528   5.811   1.367 -1.8317  0.3960  1.0840
 1031TIP3    H224509   4.663   5.790   1.432 -0.5085  0.4678 -1.5262
 1032TIP3   OH224510   0.186   5.016  15.054  0.1612 -0.3482 -0.3291
 1032TIP3    H124511   0.198   4.925  15.029 -2.0332 -0.4850 -1.1303
 1032TIP3    H224512   0.250   5.031  15.123 -0.7170 -3.1046  1.2419
 1033TIP3   OH224513   1.965   4.259   3.555  0.2499 -0.2484  0.0687
 1033TIP3    H124514   2.059   4.244   3.559  0.2931 -0.1950 -0.6939
 1033TIP3    H224515   1.955   4.355   3.554  0.1329 -0.2297  1.1481
 1034TIP3   OH224516   2.728   0.751   0.946  0.1367 -0.0318 -0.3869
 1034TIP3    H124517   2.654   0.699   0.976 -1.3337  0.9421 -2.0758
 1034TIP3    H224518   2.727   0.829   1.002 -0.5517  0.2720 -0.8037
 1035TIP3   OH224519   5.524   3.179   4.827 -0.3595  0.8007  0.2165
 1035TIP3    H124520   5.432   3.197   4.849 -0.9885 -1.2989 -0.4654
 1035TIP3    H224521   5.519   3.117   4.755  1.6114  0.0464  0.6845
 1036TIP3   OH224522   5.624   5.709   2.917 -0.4813 -0.2953  0.0656
 1036TIP3    H124523   5.610   5.632   2.862  0.3489  0.3176 -1.0577
 1036TIP3    H224524   5.680   5.679   2.988 -0.2447 -0.7584 -0.3138
 1037TIP3   OH224525   1.226   4.741   5.079 -0.2987 -0.0170  0.2079
 1037TIP3    H124526   1.302   4.758   5.023 -1.3961 -0.4380 -1.4943
 1037TIP3    H224527   1.218   4.646   5.081 -0.6946  0.0205  0.4835
 1038TIP3   OH224528   5.630   5.589  14.962 -0.4025  0.1446 -0.0210
 1038TIP3    H124529   5.709   5.617  15.008  0.2992  1.8417 -2.0920
 1038TIP3    H224530   5.662   5.552  14.879 -1.7205 -0.3340 -0.3411
 1039TIP3   OH224531   0.404   2.046   3.431 -0.5048  0.6852  0.5724
 1039TIP3    H124532   0.355   2.127   3.421 -0.2881  0.9521  1.5717
 1039TIP3    H224533   0.472   2.067   3.495  1.2700  0.4919 -1.1438
 1040TIP3   OH224534   5.064   2.435  14.614 -0.7324  0.3285  0.4954
 1040TIP3    H124535   4.983   2.403  14.655 -0.2671 -0.6794  0.6459
 1040TIP3    H224536   5.115   2.471  14.686 -0.5069 -0.1915  0.5997
 1041TIP3   OH224537   0.174   0.943  16.851  0.6723  0.1038 -0.3183
 1041TIP3    H124538   0.241   0.879  16.876  1.1913  0.9113  0.4103
 1041TIP3    H224539   0.184   0.952  16.756  2.4595  1.1308 -0.0692
 1042TIP3   OH224540   3.643   1.361  17.385  0.8131 -0.2570  0.5185
 1042TIP3    H124541   3.618   1.278  17.426  0.7275  0.2734  1.5913
 1042TIP3    H224542   3.606   1.428  17.443  0.5986  0.5317 -0.5073
 1043TIP3   OH224543   2.271   0.268   5.332  0.0864  0.1144 -0.0352
 1043TIP3    H124544   2.352   0.295   5.290  0.4622 -1.2788 -0.2286
 1043TIP3    H224545   2.244   0.189   5.285 -0.7670 -0.0990  0.7768
 1044TIP3   OH224546   5.462   2.065   1.099 -0.3392  0.1963  0.2660
 1044TIP3    H124547   5.420   2.048   1.183 -0.6545 -0.5254 -0.0263
 1044TIP3    H224548   5.555   2.046   1.115 -0.6762 -1.9726 -0.0515
 1045TIP3   OH224549   1.183   1.790   1.920 -0.0208  1.0526 -0.3751
 1045TIP3    H124550   1.195   1.757   2.009 -0.5041  1.2757 -0.2183
 1045TIP3    H224551   1.237   1.869   1.916 -1.7806  2.3701  0.5053
 1046TIP3   OH224552   1.899   1.387  13.936  0.4832 -0.0003  0.1942
 1046TIP3    H124553   1.866   1.301  13.908  0.5784  0.1568 -0.4149
 1046TIP3    H224554   1.964   1.367  14.004 -0.0961 -0.3630  0.6549
 1047TIP3   OH224555   1.239   0.765   0.806  0.1938  0.4309 -0.1931
 1047TIP3    H124556   1.245   0.696   0.739  2.2273 -0.4882  0.8410
 1047TIP3    H224557   1.273   0.843   0.763  1.7851 -0.2263 -0.2071
 1048TIP3   OH224558   4.464   0.921   6.569  0.1495  0.5308 -0.1540
 1048TIP3    H124559   4.369   0.921   6.555 -0.0669  0.4692  1.2295
 1048TIP3    H224560   4.489   1.013   6.555  0.0216  0.4146 -1.2648
 1049TIP3   OH224561   4.171   5.092  11.834 -0.4766  0.2700 -0.0892
 1049TIP3    H124562   4.089   5.061  11.872  0.0987 -1.9100 -0.4763
 1049TIP3    H224563   4.169   5.057  11.744  1.0425 -0.1936  0.0359
 1050TIP3   OH224564   5.512   3.845  15.536 -0.2161 -0.5815  0.0938
 1050TIP3    H124565   5.541   3.934  15.515 -0.5446 -0.5001 -0.0243
 1050TIP3    H224566   5.419   3.845  15.515 -0.9982 -0.0129  3.0321
 1051TIP3   OH224567   5.554   3.960   4.735 -0.0110  0.3699 -0.3044
 1051TIP3    H124568   5.591   3.871   4.737 -0.0579  0.3009 -1.6585
 1051TIP3    H224569   5.465   3.948   4.703 -0.6023  0.7437  1.1368
 1052TIP3   OH224570   1.755   3.428   5.556 -0.1560  0.1998 -0.0179
 1052TIP3    H124571   1.711   3.441   5.639  1.7360 -0.1810  1.1001
 1052TIP3    H224572   1.822   3.495   5.553  0.1527 -0.1323 -0.9912
 1053TIP3   OH224573   5.500   1.935   0.185  0.3241 -0.9487  0.3629
 1053TIP3    H124574   5.563   1.863   0.192 -1.0658 -2.3343 -0.7094
 1053TIP3    H224575   5.491   1.968   0.275  1.2914 -1.8500  0.8104
 1054TIP3   OH224576   2.345   0.393   2.653  0.4294 -0.3011  0.5809
 1054TIP3    H124577   2.330   0.302   2.629 -0.3053 -0.1417  0.4248
 1054TIP3    H224578   2.335   0.442   2.572 -0.5276  0.0679  0.9114
 1055TIP3   OH224579   0.664   4.041   5.523 -0.5210 -0.1080  0.0214
 1055TIP3    H124580   0.640   4.062   5.433 -2.0487 -1.1963  0.1395
 1055TIP3    H224581   0.680   3.946   5.521  0.8203  0.0873  0.6148
 1056TIP3   OH224582   0.188   5.117  13.461  0.1808  0.4923 -0.2713
 1056TIP3    H124583   0.179   5.196  13.409  0.2353 -1.2041 -3.0590
 1056TIP3    H224584   0.282   5.099  13.461  0.2362  0.6756  0.8442
 1057TIP3   OH224585   0.031   2.672   5.466  0.1186 -0.1682 -0.0785
 1057TIP3    H124586   0.059   2.764   5.471 -0.0013 -0.0936 -0.7749
 1057TIP3    H224587  -0.064   2.675   5.477  0.0356 -0.1444 -0.7734
 1058TIP3   OH224588   1.108   2.211  15.285 -0.2497 -0.4207  0.0033
 1058TIP3    H124589   1.048   2.284  15.302 -0.1178 -0.6231  1.4042
 1058TIP3    H224590   1.140   2.228  15.196 -1.6739  0.1874 -0.4399
 1059TIP3   OH224591   6.208   2.404  16.728  0.4297 -0.7493 -0.2622
 1059TIP3    H124592   6.234   2.461  16.801  0.1502 -1.7368  0.6419
 1059TIP3    H224593   6.189   2.463  16.656  4.2000  0.1445 -0.7279
 1060TIP3   OH224594   2.732   6.603  13.476 -0.3614  0.4252  0.3771
 1060TIP3    H124595   2.685   6.664  13.419  0.4522  0.4112 -0.3207
 1060TIP3    H224596   2.784   6.658  13.533 -1.4651  0.4539  1.3900
 1061TIP3   OH224597   1.717   3.658  12.886 -0.1570 -0.1956 -0.0477
 1061TIP3    H124598   1.729   3.746  12.922 -0.7127 -0.4008  0.6679
 1061TIP3    H224599   1.802   3.636  12.847 -0.6249  1.5371 -2.2716
 1062TIP3   OH224600   0.163   5.270   5.620 -0.7580 -0.4252  0.0645
 1062TIP3    H124601   0.094   5.335   5.606 -0.3579 -0.1244 -0.5465
 1062TIP3    H224602   0.242   5.312   5.587 -0.3561 -0.9353  0.3711
 1063TIP3   OH224603   1.945   0.257  13.248  0.6116 -0.1741 -0.6801
 1063TIP3    H124604   1.908   0.221  13.329  0.9949 -0.5205 -0.6515
 1063TIP3    H224605   2.018   0.311  13.277  1.8385 -1.6431 -0.8528
 1064TIP3   OH224606   1.218   6.667  11.146  0.1732 -0.4454 -0.1422
 1064TIP3    H124607   1.267   6.719  11.210 -1.0886  1.9615 -0.9966
 1064TIP3    H224608   1.259   6.581  11.148  2.9888  0.7968  0.7694
 1065TIP3   OH224609   3.452   6.150   0.397  0.3293  0.2913 -0.3288
 1065TIP3    H124610   3.445   6.106   0.312 -1.1480  0.3347 -0.2678
 1065TIP3    H224611   3.375   6.207   0.400  0.0531 -0.1235  1.2698
 1066TIP3   OH224612   4.081   0.737  15.069 -0.2548  0.1242  0.4901
 1066TIP3    H124613   4.039   0.778  15.145 -2.5576  1.0132 -1.1552
 1066TIP3    H224614   4.075   0.802  15.000  0.2884 -1.2604 -0.9170
 1067TIP3   OH224615   3.150   1.945  11.845  0.2482 -0.2726 -0.0145
 1067TIP3    H124616   3.176   1.926  11.755  1.8231  1.4953 -0.0013
 1067TIP3    H224617   3.230   1.973  11.888 -1.1194  2.7485  0.8421
 1068TIP3   OH224618   3.565   2.090   6.612  0.1262  0.4349 -0.0068
 1068TIP3    H124619   3.517   2.046   6.682  0.3141  1.2158  0.6205
 1068TIP3    H224620   3.503   2.091   6.539  0.3225 -1.3891 -0.2525
 1069TIP3   OH224621   3.436   4.763  13.227 -0.1313 -0.3160  0.0718
 1069TIP3    H124622   3.406   4.680  13.262 -0.2414 -0.2834  0.0542
 1069TIP3    H224623   3.363   4.824  13.242 -0.3942 -0.4336 -0.7065
 1070TIP3   OH224624   3.946   3.148  12.134 -0.2217  0.3113 -0.0427
 1070TIP3    H124625   4.037   3.134  12.161  0.5136 -0.8912 -2.7392
 1070TIP3    H224626   3.951   3.219  12.070 -1.2023  0.2947 -0.1546
 1071TIP3   OH224627   0.556   6.701   3.956  0.0323  0.4436  0.5318
 1071TIP3    H124628   0.603   6.751   4.023  0.7833  0.2817  0.1371
 1071TIP3    H224629   0.577   6.610   3.974  0.0701  0.3856  0.2062
 1072TIP3   OH224630   4.827   0.910  17.416 -0.3414 -0.3858 -0.6875
 1072TIP3    H124631   4.737   0.877  17.412 -0.6459  0.3936 -0.5314
 1072TIP3    H224632   4.877   0.851  17.360 -0.7335 -1.4917  0.0844
 1073TIP3   OH224633   0.161   0.439   0.810  0.1247  0.0125 -0.3039
 1073TIP3    H124634   0.087   0.385   0.838  0.9368 -1.4171 -0.7966
 1073TIP3    H224635   0.232   0.376   0.796  1.3401  1.3117 -0.1720
 1074TIP3   OH224636   0.698   6.203  13.047 -0.2821 -0.1441 -0.0056
 1074TIP3    H124637   0.640   6.248  13.108  3.1410  3.0595  1.2833
 1074TIP3    H224638   0.764   6.162  13.102  2.3918  2.0404 -1.3210
 1075TIP3   OH224639   2.927   6.666   1.289 -0.2564 -0.2545 -0.1356
 1075TIP3    H124640   2.852   6.627   1.334 -0.3603  0.0113 -0.0803
 1075TIP3    H224641   2.954   6.738   1.346  0.0717 -0.3806 -0.1311
 1076TIP3   OH224642   0.352   4.765  15.226 -0.1550 -0.3331  0.0155
 1076TIP3    H124643   0.374   4.678  15.260 -1.1519 -0.6369 -0.0824
 1076TIP3    H224644   0.363   4.758  15.131  0.9994  0.0252  0.1163
 1077TIP3   OH224645   5.835   0.331   2.284  0.1587  0.1216 -0.0061
 1077TIP3    H124646   5.920   0.292   2.305 -0.0025 -0.7465 -0.8817
 1077TIP3    H224647   5.773   0.258   2.290 -0.7914  1.0091  1.9918
 1078TIP3   OH224648   6.236   6.478   3.828  0.1806 -0.2152 -0.2753
 1078TIP3    H124649   6.316   6.509   3.786 -0.6075 -0.2217 -1.8640
 1078TIP3    H224650   6.166   6.529   3.787 -0.6403 -0.1560  1.1288
 1079TIP3   OH224651   2.628   3.807   0.733 -0.4038 -0.4002 -0.6777
 1079TIP3    H124652   2.587   3.809   0.819 -0.4580  1.3547 -0.7022
 1079TIP3    H224653   2.555   3.806   0.671 -0.3795 -0.5510 -0.7035
 1080TIP3   OH224654   1.204   3.068  13.170 -0.2503  0.9806 -0.5989
 1080TIP3    H124655   1.282   3.114  13.202  0.4172 -0.2309 -0.3979
 1080TIP3    H224656   1.216   3.065  13.075 -0.6277  1.7955 -0.6719
 1081TIP3   OH224657   2.084   4.203   0.131 -0.2083  0.0947 -0.4003
 1081TIP3    H124658   2.147   4.260   0.176  0.8629  0.2675 -2.0003
 1081TIP3    H224659   2.002   4.216   0.178  0.7171  0.5910  1.1844
 1082TIP3   OH224660   1.887   5.445  13.786  0.4780 -0.3514  0.2678
 1082TIP3    H124661   1.974   5.415  13.814  0.8259 -2.1920 -2.4045
 1082TIP3    H224662   1.906   5.512  13.719 -0.1574 -0.3711  0.0670
 1083TIP3   OH224663   4.983   3.109  16.259 -0.2241 -0.0839 -0.2865
 1083TIP3    H124664   4.946   3.184  16.304 -1.2463 -0.6348 -0.1743
 1083TIP3    H224665   4.952   3.116  16.169 -3.7045 -2.4002  0.5485
 1084TIP3   OH224666   6.226   2.927  12.258  0.5215 -0.2100  0.4866
 1084TIP3    H124667   6.158   2.866  12.287 -0.4884  1.1004  0.9869
 1084TIP3    H224668   6.288   2.873  12.210 -0.1386 -1.6915  1.2283
 1085TIP3   OH224669   4.737   4.462  16.541  0.4784  0.2025  0.8610
 1085TIP3    H124670   4.755   4.369  16.552  0.4088 -0.0059 -0.5455
 1085TIP3    H224671   4.822   4.501  16.517  0.0479  0.0240 -1.1259
 1086TIP3   OH224672   5.581   2.608  13.441 -0.5358 -0.1208  0.4919
 1086TIP3    H124673   5.511   2.578  13.499  0.2296 -0.2500  1.3700
 1086TIP3    H224674   5.586   2.540  13.373 -1.0193 -0.2953  0.6248
 1087TIP3   OH224675   5.027   2.742   1.044 -0.3342 -0.3209  0.6276
 1087TIP3    H124676   4.955   2.698   0.999  0.2398 -0.3080 -0.3335
 1087TIP3    H224677   5.098   2.678   1.044  0.4695  0.5273 -0.6725
 1088TIP3   OH224678   5.181   2.137  17.162 -0.4492 -0.8315 -0.0197
 1088TIP3    H124679   5.231   2.218  17.166 -2.1476  0.2487  0.7127
 1088TIP3    H224680   5.229   2.075  17.216  0.6726 -0.2000 -0.2708
 1089TIP3   OH224681   5.601   6.646   6.508  0.2537 -0.0492 -0.1540
 1089TIP3    H124682   5.693   6.635   6.534  0.4540  1.3279 -0.2230
 1089TIP3    H224683   5.589   6.740   6.502 -2.2322  0.0456  3.6185
 1090TIP3   OH224684   2.393   4.496  16.423 -0.7625  0.0448  0.4322
 1090TIP3    H124685   2.340   4.569  16.391 -0.2372 -0.9720 -3.2484
 1090TIP3    H224686   2.459   4.482  16.354  0.7685 -2.2660  2.2051
 1091TIP3   OH224687   5.578   2.115  13.215  0.8701 -0.2042 -0.6044
 1091TIP3    H124688   5.526   2.039  13.244 -0.7848  1.3783  0.8243
 1091TIP3    H224689   5.595   2.098  13.122  1.1098 -2.5927 -0.2054
 1092TIP3   OH224690   2.267   1.317  14.200 -0.3250  0.3328 -0.1145
 1092TIP3    H124691   2.249   1.243  14.259 -1.2016  1.6079  1.2755
 1092TIP3    H224692   2.325   1.280  14.134 -1.4893 -1.8607 -0.0269
 1093TIP3   OH224693   6.364   3.306  16.620  0.2342 -0.0023 -0.2006
 1093TIP3    H124694   6.365   3.376  16.685 -1.1315 -1.1903  1.1738
 1093TIP3    H224695   6.441   3.253  16.640  0.2401  0.0614 -0.0525
 1094TIP3   OH224696   4.160   6.446   0.760 -0.0923  0.6611  0.4230
 1094TIP3    H124697   4.076   6.408   0.786  0.1826  0.9916  1.9197
 1094TIP3    H224698   4.140   6.497   0.682 -0.5990 -1.9526 -1.2953
 1095TIP3   OH224699   5.077   0.485  13.339 -0.1056 -0.6477 -0.1396
 1095TIP3    H124700   5.130   0.475  13.418  1.9969  1.7788 -1.0938
 1095TIP3    H224701   5.061   0.579  13.332 -0.9282 -0.8885 -2.1466
 1096TIP3   OH224702   1.020   2.406  13.509  0.1233 -0.4618 -0.2384
 1096TIP3    H124703   1.087   2.474  13.510 -0.9493  0.6976 -1.5263
 1096TIP3    H224704   0.945   2.446  13.554 -0.3331 -1.0071 -0.5034
 1097TIP3   OH224705   3.241   4.402   4.631  0.0575  0.6255  0.3294
 1097TIP3    H124706   3.269   4.489   4.600 -1.1096  0.7442 -0.4165
 1097TIP3    H224707   3.320   4.348   4.624  1.7840  2.3224  3.7977
 1098TIP3   OH224708   5.567   2.602  12.558  0.6617  0.7413 -0.2024
 1098TIP3    H124709   5.620   2.666  12.607  0.6844 -0.2989  1.1817
 1098TIP3    H224710   5.502   2.655  12.513  2.0689  1.9421 -0.9318
 1099TIP3   OH224711   2.356   6.519  10.410  0.1058  0.1598  0.8081
 1099TIP3    H124712   2.429   6.502  10.351  0.3831  0.9490  0.9140
 1099TIP3    H224713   2.376   6.603  10.450 -0.9171  0.4453  0.7526
 1100TIP3   OH224714   3.489   5.672   0.830  0.2027  0.1244  0.0052
 1100TIP3    H124715   3.554   5.617   0.786  0.6969 -0.9057  1.9264
 1100TIP3    H224716   3.508   5.761   0.799  1.4509 -0.3681 -0.7100
 1101TIP3   OH224717   1.675   4.959   3.596  0.3162  0.6014  0.8811
 1101TIP3    H124718   1.743   4.951   3.530 -0.6700 -0.9477 -0.0046
 1101TIP3    H224719   1.722   4.970   3.679  1.5957  0.5291  0.1808
 1102TIP3   OH224720   3.659   5.898   0.756  0.6093 -0.1306 -0.1308
 1102TIP3    H124721   3.734   5.845   0.728  1.4685  0.4883  0.9146
 1102TIP3    H224722   3.660   5.973   0.698  0.2880 -0.5237 -0.6541
 1103TIP3   OH224723   2.580   6.679  16.428  0.3908  0.8409  0.4483
 1103TIP3    H124724   2.558   6.638  16.344 -1.8413  0.4273  1.1846
 1103TIP3    H224725   2.673   6.657  16.441  0.8248  0.9673 -1.9010
 1104TIP3   OH224726   4.474   5.349   2.130 -0.0931  0.0594 -1.1927
 1104TIP3    H124727   4.537   5.377   2.063  0.1868 -0.7659 -1.2912
 1104TIP3    H224728   4.529   5.327   2.205 -0.3272  0.0179 -1.0353
 1105TIP3   OH224729   5.251   1.642  14.192 -0.3386 -1.0085  0.1260
 1105TIP3    H124730   5.279   1.674  14.106  0.8054  0.1522  0.9059
 1105TIP3    H224731   5.266   1.716  14.251 -2.5032 -1.2627  1.0952
 1106TIP3   OH224732   5.912   0.176   2.599 -0.0709 -0.3324 -0.2200
 1106TIP3    H124733   5.930   0.141   2.511 -0.2514  1.7923 -1.1617
 1106TIP3    H224734   5.818   0.192   2.600  0.1865  1.3599 -0.3483
 1107TIP3   OH224735   0.230   5.770  11.192  0.0634 -0.1351  0.3238
 1107TIP3    H124736   0.199   5.860  11.199 -0.4768 -0.3775  1.1958
 1107TIP3    H224737   0.269   5.764  11.105 -1.1598  0.5502 -0.2844
 1108TIP3   OH224738   3.133   4.284   1.857  0.1131 -0.2497 -0.0771
 1108TIP3    H124739   3.116   4.204   1.907  0.1351  0.8950  1.8784
 1108TIP3    H224740   3.214   4.318   1.895 -0.3387  1.1127 -0.3068
 1109TIP3   OH224741   6.119   0.189  17.461  0.0917 -0.1970  0.5998
 1109TIP3    H124742   6.188   0.180  17.527  1.8215 -1.3831 -1.2643
 1109TIP3    H224743   6.161   0.231  17.387 -1.3608 -0.3702 -0.3718
 1110TIP3   OH224744   0.833   3.936  14.862 -0.3123 -0.0741  0.3836
 1110TIP3    H124745   0.874   4.022  14.875  0.9898 -0.6377  0.1781
 1110TIP3    H224746   0.847   3.917  14.769 -1.5810 -0.0424  0.1640
 1111TIP3   OH224747   0.832   1.595  14.938 -0.5475 -0.1257  0.1362
 1111TIP3    H124748   0.801   1.658  15.004 -1.0238 -1.5940  1.3676
 1111TIP3    H224749   0.810   1.635  14.854 -0.9262  1.2985  0.8806
 1112TIP3   OH224750   6.657   2.273   5.543 -0.1506  0.4924 -0.4822
 1112TIP3    H124751   6.603   2.220   5.601 -0.4413  1.0180 -0.2658
 1112TIP3    H224752   6.722   2.313   5.601  0.6468 -0.3381 -0.7768
 1113TIP3   OH224753   1.578   5.867  17.560  0.2281 -0.5543 -0.7141
 1113TIP3    H124754   1.529   5.845  17.481  0.5222 -0.6561 -0.8693
 1113TIP3    H224755   1.511   5.896  17.623  0.2060  1.8959 -1.7631
 1114TIP3   OH224756   2.403   4.657  14.528  0.3739  0.1451  0.1476
 1114TIP3    H124757   2.412   4.676  14.622  2.1494  1.7446 -0.2716
 1114TIP3    H224758   2.469   4.591  14.510  1.1753  1.0132 -0.2254
 1115TIP3   OH224759   0.328   2.636  12.755 -0.0572 -0.4491  0.0902
 1115TIP3    H124760   0.302   2.653  12.664 -1.9564 -0.3058  0.6170
 1115TIP3    H224761   0.309   2.543  12.769  0.7128 -0.5968  0.2079
 1116TIP3   OH224762   4.379   5.956  14.115  0.4138 -0.5122  0.3052
 1116TIP3    H124763   4.351   5.872  14.151 -0.8928 -0.4747 -0.5417
 1116TIP3    H224764   4.424   5.933  14.033 -0.5951 -0.3781 -0.3082
 1117TIP3   OH224765   4.676   4.767  14.902 -0.2811 -0.0454  0.6426
 1117TIP3    H124766   4.676   4.847  14.954 -1.6553 -0.3887  1.2193
 1117TIP3    H224767   4.590   4.767  14.859 -0.2075 -1.0973  0.4798
 1118TIP3   OH224768   0.139   2.298   3.026 -0.4029 -0.2585 -0.2190
 1118TIP3    H124769   0.152   2.379   2.977  2.4034 -0.4143  0.0893
 1118TIP3    H224770   0.127   2.231   2.958 -0.6560  0.1080 -0.5412
 1119TIP3   OH224771   0.989   4.434   0.431  0.1374  0.5635  0.0211
 1119TIP3    H124772   1.081   4.460   0.434  0.0031  1.2307 -1.0188
 1119TIP3    H224773   0.990   4.340   0.449  1.0676  0.4772 -0.4251
 1120TIP3   OH224774   5.589   3.901  15.241 -0.2013 -0.2317 -0.2295
 1120TIP3    H124775   5.503   3.871  15.211 -0.2136  1.3622 -1.9799
 1120TIP3    H224776   5.570   3.961  15.313 -0.5311 -0.2382 -0.3087
 1121TIP3   OH224777   5.180   5.065  13.325 -0.2434  0.1666 -0.3629
 1121TIP3    H124778   5.251   5.043  13.385 -0.4496 -1.6864 -0.7525
 1121TIP3    H224779   5.203   5.022  13.243  0.4526  3.2993 -1.9972
 1122TIP3   OH224780   6.636   1.401   3.828  0.2753 -0.3835 -0.0095
 1122TIP3    H124781   6.569   1.437   3.771  1.3534  1.3121 -0.2823
 1122TIP3    H224782   6.588   1.349   3.892 -1.1451 -0.4774 -1.1064
 1123TIP3   OH224783   2.011   2.816   2.564 -0.0409  0.4087  0.0379
 1123TIP3    H124784   1.973   2.902   2.545  2.0294  1.1420 -1.0340
 1123TIP3    H224785   1.951   2.777   2.627 -0.0775  3.4110  2.0583
 1124TIP3   OH224786   6.680   5.384  10.491  0.3562 -0.4231  0.3492
 1124TIP3    H124787   6.677   5.419  10.580  2.1430 -3.4416  1.7210
 1124TIP3    H224788   6.738   5.444  10.444  0.1729  0.6558  1.4322
 1125TIP3   OH224789   3.107   2.749   2.734  0.2088  0.7038  0.0559
 1125TIP3    H124790   3.092   2.817   2.668 -0.8755 -0.4039 -0.8908
 1125TIP3    H224791   3.200   2.730   2.729  0.2366  1.0228 -0.7703
 1126TIP3   OH224792   3.334   0.133   1.102  0.0682  0.3371  0.1874
 1126TIP3    H124793   3.240   0.150   1.092  0.1003 -0.4560 -2.3016
 1126TIP3    H224794   3.338   0.049   1.148 -0.6290 -1.1930 -2.3402
 1127TIP3   OH224795   1.874   6.207  14.215  0.0079  0.5124 -0.4266
 1127TIP3    H124796   1.910   6.203  14.126 -0.5036  0.1472 -0.6213
 1127TIP3    H224797   1.784   6.176  14.206 -1.0574  3.2758 -0.2841
 1128TIP3   OH224798   4.423   3.146   3.409 -0.3273 -0.6588 -0.4190
 1128TIP3    H124799   4.411   3.209   3.338  1.0191 -1.0312 -1.0196
 1128TIP3    H224800   4.516   3.154   3.432 -0.9347  0.2953  2.1394
 1129TIP3   OH224801   2.929   1.951  16.574  0.1535 -0.7470 -0.1066
 1129TIP3    H124802   2.935   2.006  16.652  0.4255 -0.6648 -0.1852
 1129TIP3    H224803   2.862   1.993  16.521  0.4336 -0.4296 -0.2130
 1130TIP3   OH224804   2.589   3.819  13.421 -0.0545  0.2077 -0.6544
 1130TIP3    H124805   2.654   3.848  13.484 -0.4815  0.5328 -0.3526
 1130TIP3    H224806   2.602   3.876  13.344 -0.4141  0.7283 -0.3391
 1131TIP3   OH224807   0.893   6.237   4.306  0.0718  0.0967 -0.0622
 1131TIP3    H124808   0.846   6.274   4.380  1.7424  1.9773  0.1467
 1131TIP3    H224809   0.919   6.313   4.254 -0.5448 -1.1339 -2.2988
 1132TIP3   OH224810   2.386   3.977  15.736  0.3473  0.3526  0.2193
 1132TIP3    H124811   2.480   3.978  15.752  0.2668  1.9728  0.7576
 1132TIP3    H224812   2.351   4.043  15.796 -1.2273 -0.6898  0.5194
 1133TIP3   OH224813   5.555   0.759  12.039  0.7075  0.0397  0.1610
 1133TIP3    H124814   5.516   0.836  11.998  0.4796 -0.3298 -0.3337
 1133TIP3    H224815   5.481   0.700  12.053  0.6721  0.4117  1.7151
 1134TIP3   OH224816   1.159   3.872  11.105  0.1540 -0.5768  0.8073
 1134TIP3    H124817   1.110   3.917  11.174  0.8237  1.4416  0.0643
 1134TIP3    H224818   1.135   3.780  11.113 -2.1834  0.0458  1.7280
 1135TIP3   OH224819   1.597   4.144  12.458 -0.6071  0.0911  0.0696
 1135TIP3    H124820   1.519   4.155  12.512 -0.8836 -1.6671  0.1029
 1135TIP3    H224821   1.573   4.077  12.394  0.8347 -0.4631  0.0574
 1136TIP3   OH224822   2.028   5.459   1.390 -0.0103 -0.2025  0.3208
 1136TIP3    H124823   1.934   5.440   1.383 -0.2767  0.5495  1.5358
 1136TIP3    H224824   2.037   5.500   1.476  1.8377 -2.6022  1.3574
 1137TIP3   OH224825   2.488   1.391   3.609  1.0020 -0.3608 -0.1568
 1137TIP3    H124826   2.507   1.354   3.695  1.8839 -1.2209 -0.7035
 1137TIP3    H224827   2.429   1.328   3.569  0.3751  0.1745 -0.0951
 1138TIP3   OH224828   5.913   6.164  11.302 -0.1631  0.0200  0.2255
 1138TIP3    H124829   5.840   6.135  11.357  0.3398 -3.3381 -0.6301
 1138TIP3    H224830   5.875   6.230  11.244 -1.8509  0.2419  1.5270
 1139TIP3   OH224831   2.406   5.087  12.777  0.0689  0.0333 -0.2545
 1139TIP3    H124832   2.397   5.064  12.685  0.8189 -1.8724  0.1054
 1139TIP3    H224833   2.319   5.073  12.814  0.0263 -0.2491 -0.4624
 1140TIP3   OH224834   1.301   6.602  16.487 -0.4677 -0.3994  0.2145
 1140TIP3    H124835   1.314   6.639  16.400 -0.9052  0.8455  0.6498
 1140TIP3    H224836   1.268   6.675  16.539  3.6015  0.1308  2.5187
 1141TIP3   OH224837   6.179   4.889  15.614 -0.0246 -0.2526  0.1306
 1141TIP3    H124838   6.133   4.835  15.550  1.0709  1.1101 -1.9038
 1141TIP3    H224839   6.261   4.913  15.571  0.4257  1.3374  1.7591
 1142TIP3   OH224840   6.398   4.065   5.148 -0.4922 -0.1855 -0.7826
 1142TIP3    H124841   6.402   3.981   5.102  0.2035 -0.2968 -0.5266
 1142TIP3    H224842   6.381   4.040   5.239 -1.2088  0.0027 -0.8555
 1143TIP3   OH224843   2.731   2.362  15.323 -0.0661  0.1101  0.0667
 1143TIP3    H124844   2.636   2.368  15.311 -0.0104 -1.4563 -1.6130
 1143TIP3    H224845   2.768   2.419  15.256  0.1858  0.4647  0.5044
 1144TIP3   OH224846   3.993   2.574   2.675  0.0079 -0.4172  0.6386
 1144TIP3    H124847   4.050   2.650   2.682  0.2371 -0.1464 -2.5731
 1144TIP3    H224848   4.053   2.499   2.677  0.0642 -0.3608  1.0912
 1145TIP3   OH224849   6.574   3.097   2.857  0.5962  0.1617 -0.7718
 1145TIP3    H124850   6.625   3.153   2.799 -1.2800  1.3864 -1.3336
 1145TIP3    H224851   6.536   3.156   2.921 -0.3599 -0.6447 -0.5654
 1146TIP3   OH224852   1.691   3.648  16.630 -0.3406 -0.1459  0.1238
 1146TIP3    H124853   1.709   3.574  16.572 -2.0818  0.5302 -1.3729
 1146TIP3    H224854   1.649   3.713  16.573 -1.8059  0.7030  2.0720
 1147TIP3   OH224855   3.702   4.065  12.741  0.6540 -0.2960  0.0664
 1147TIP3    H124856   3.778   4.101  12.696  0.2960 -0.1889 -0.4618
 1147TIP3    H224857   3.711   3.970  12.731  1.1314 -0.3216  0.6923
 1148TIP3   OH224858   1.382   6.120  16.008  0.6272  0.1107 -0.9407
 1148TIP3    H124859   1.296   6.104  16.047 -0.5158  1.8838 -2.4937
 1148TIP3    H224860   1.385   6.061  15.933  1.8398 -1.6499  0.4248
 1149TIP3   OH224861   1.972   5.336  13.101  0.1985 -0.5820 -0.1854
 1149TIP3    H124862   1.926   5.419  13.117 -0.2676 -0.7613 -0.5710
 1149TIP3    H224863   1.934   5.275  13.164  0.7708 -0.4286  0.3207
 1150TIP3   OH224864   4.008   2.408  13.139 -0.2882  0.0280 -0.0003
 1150TIP3    H124865   4.064   2.446  13.206  1.6887 -1.6020 -0.6513
 1150TIP3    H224866   3.934   2.372  13.188 -0.3840  1.4303  0.9652
 1151TIP3   OH224867   5.249   1.518   2.169 -0.0752 -0.0610  0.2489
 1151TIP3    H124868   5.206   1.598   2.197 -0.7242 -0.0954 -0.5998
 1151TIP3    H224869   5.321   1.506   2.230 -0.6785  0.5356  1.0929
 1152TIP3   OH224870   0.128   1.043   4.424 -0.2720  0.6116  0.6601
 1152TIP3    H124871   0.097   1.022   4.336 -1.5251  2.5354  0.5886
 1152TIP3    H224872   0.172   0.963   4.454 -2.2811 -1.0611 -0.6154
 1153TIP3   OH224873   6.263   1.168   3.894  0.4438 -0.3612 -0.1160
 1153TIP3    H124874   6.311   1.156   3.813 -1.0791 -1.2420 -0.9375
 1153TIP3    H224875   6.325   1.210   3.953  1.5946  0.2772 -1.7165
 1154TIP3   OH224876   2.483   1.118  11.236  0.4588 -0.6136  0.5930
 1154TIP3    H124877   2.446   1.096  11.321  1.2578 -0.1545  1.0627
 1154TIP3    H224878   2.474   1.037  11.185  0.8619 -1.1909  1.4236
 1155TIP3   OH224879   4.535   0.664  11.409  0.4959  0.3097 -0.1211
 1155TIP3    H124880   4.591   0.735  11.378  0.4863  0.5351  0.3624
 1155TIP3    H224881   4.591   0.586  11.409  0.5054  0.3175 -0.6542
 1156TIP3   OH224882   1.575   3.302  14.702  0.2640 -0.2649 -0.1426
 1156TIP3    H124883   1.592   3.394  14.679 -1.1402 -0.5313 -2.6029
 1156TIP3    H224884   1.480   3.298  14.712  0.4259 -1.2295  1.2374
 1157TIP3   OH224885   6.234   2.415   5.578  0.4273  0.1822  0.3455
 1157TIP3    H124886   6.299   2.444   5.642  0.6815 -1.7946  1.0522
 1157TIP3    H224887   6.209   2.327   5.607 -0.1548 -0.3983 -1.7308
 1158TIP3   OH224888   1.872   3.236  11.506  0.4472  0.0125  0.4312
 1158TIP3    H124889   1.808   3.248  11.436  0.5226 -2.2492 -0.0996
 1158TIP3    H224890   1.951   3.205  11.462  1.0013  0.0476  1.3770
 1159TIP3   OH224891   6.650   6.524  11.966 -0.1944  0.0435  0.1744
 1159TIP3    H124892   6.567   6.486  11.936 -0.4070  1.5420 -1.2678
 1159TIP3    H224893   6.631   6.557  12.053 -0.5084 -1.4511  0.7123
 1160TIP3   OH224894   6.213   5.923  15.214 -0.1405 -0.3189  0.1424
 1160TIP3    H124895   6.188   5.832  15.195  0.6782 -0.7602  1.1117
 1160TIP3    H224896   6.129   5.970  15.219 -0.5204 -0.2713 -3.6287
 1161TIP3   OH224897   0.319   4.095  13.895  0.5123  0.1060  0.1007
 1161TIP3    H124898   0.285   4.006  13.886 -1.6451  0.9753 -1.1219
 1161TIP3    H224899   0.388   4.088  13.960 -1.4564 -2.0365  2.1637
 1162TIP3   OH224900   2.621   6.675   2.638 -0.3847  0.4785 -0.4211
 1162TIP3    H124901   2.632   6.764   2.670 -1.1028  0.7045 -0.7873
 1162TIP3    H224902   2.562   6.634   2.702  0.5528  0.0201  0.1762
 1163TIP3   OH224903   3.989   0.785  17.082  0.3142 -0.1002  0.0102
 1163TIP3    H124904   3.984   0.835  17.001  0.0673  0.8619  0.5987
 1163TIP3    H224905   4.079   0.753  17.085  0.6963  0.9314 -0.0336
 1164TIP3   OH224906   1.792   6.211   5.378 -0.1716  0.0891 -0.2705
 1164TIP3    H124907   1.788   6.307   5.379  1.8905  0.2250  0.3743
 1164TIP3    H224908   1.871   6.190   5.427 -1.3005 -2.0267  0.7679
 1165TIP3   OH224909   5.750   0.436   5.979  0.4811  0.1212 -0.2874
 1165TIP3    H124910   5.771   0.345   5.997  2.7366  0.8914  1.4609
 1165TIP3    H224911   5.812   0.486   6.032 -0.8681  2.6889 -0.9552
 1166TIP3   OH224912   0.282   2.422  11.656 -0.6633 -0.0664  0.1408
 1166TIP3    H124913   0.279   2.327  11.669  2.6917 -0.3246 -0.0041
 1166TIP3    H224914   0.346   2.434  11.585 -0.5701  2.3150  0.5418
 1167TIP3   OH224915   1.021   2.938   0.180 -0.5140  0.1864 -0.1662
 1167TIP3    H124916   1.071   3.014   0.150 -1.4193  0.6886 -0.4681
 1167TIP3    H224917   1.087   2.874   0.206  0.2726  0.8469 -0.4853
 1168TIP3   OH224918   4.918   3.602  12.224  0.5101  0.1554 -0.3077
 1168TIP3    H124919   4.907   3.584  12.130 -0.6092  1.5583 -0.4700
 1168TIP3    H224920   4.884   3.691  12.236 -2.5836 -1.1445  2.0053
 1169TIP3   OH224921   4.299   3.311   3.713 -0.1548 -0.2964  0.4029
 1169TIP3    H124922   4.290   3.363   3.633  1.1940  1.4995  1.3336
 1169TIP3    H224923   4.331   3.374   3.778 -2.8697 -1.2737  2.8629
 1170TIP3   OH224924   6.497   0.862   4.120 -0.0559 -0.4960  0.1172
 1170TIP3    H124925   6.506   0.807   4.042  1.4362 -2.2756  1.4443
 1170TIP3    H224926   6.418   0.914   4.103  0.9209  0.1738 -3.1046
 1171TIP3   OH224927   2.881   3.458  16.918 -0.0159  0.0449  0.0795
 1171TIP3    H124928   2.825   3.396  16.963 -1.8863  2.8611  1.9812
 1171TIP3    H224929   2.827   3.491  16.846  0.7116 -0.0310 -0.5178
 1172TIP3   OH224930   4.083   0.133  15.103  0.2310 -0.0761 -0.0023
 1172TIP3    H124931   4.046   0.186  15.173 -0.0749 -2.2638  1.5749
 1172TIP3    H224932   4.007   0.106  15.051  0.3562  0.7126 -0.6219
 1173TIP3   OH224933   0.853   2.065  15.276 -0.0331  0.3891 -0.4185
 1173TIP3    H124934   0.936   2.112  15.273  0.8912 -1.1754 -0.3137
 1173TIP3    H224935   0.847   2.031  15.365 -0.2692 -0.3914 -0.7212
 1174TIP3   OH224936   0.046   2.505  11.229 -0.0074 -0.6146  0.0327
 1174TIP3    H124937   0.124   2.529  11.179 -1.3217  1.0035 -1.3621
 1174TIP3    H224938  -0.024   2.503  11.164 -1.7795  1.5205  1.7478
 1175TIP3   OH224939   5.946   0.833  11.335 -0.3682 -0.1727 -0.0882
 1175TIP3    H124940   6.036   0.808  11.352 -0.4224  0.0541  0.5984
 1175TIP3    H224941   5.908   0.847  11.423 -0.6175  1.2664 -0.4008
 1176TIP3   OH224942   3.334   2.985  11.539  0.2172 -0.5577  0.2616
 1176TIP3    H124943   3.401   2.932  11.496 -0.2825 -2.4579  1.6985
 1176TIP3    H224944   3.382   3.060  11.574  0.9271  0.0562 -1.9058
 1177TIP3   OH224945   5.241   4.882   4.771 -0.5783  0.2845 -0.0831
 1177TIP3    H124946   5.165   4.861   4.825 -1.1628  2.5000  0.0525
 1177TIP3    H224947   5.307   4.913   4.832  0.5197 -1.6646 -0.1969
 1178TIP3   OH224948   3.734   1.762   3.964 -0.0599 -0.3179 -0.0668
 1178TIP3    H124949   3.697   1.683   4.004 -3.1549  1.1727  0.3331
 1178TIP3    H224950   3.689   1.768   3.880  0.3368  0.8844 -0.2062
 1179TIP3   OH224951   5.839   0.831  10.682  0.0016 -0.4043  0.0826
 1179TIP3    H124952   5.760   0.844  10.735 -0.8370 -0.6168 -1.0701
 1179TIP3    H224953   5.806   0.811  10.595  1.3438 -0.6582 -0.3919
 1180TIP3   OH224954   0.173   1.887  17.592  0.3150 -0.0871 -0.4052
 1180TIP3    H124955   0.230   1.822  17.550  0.0914 -1.0701  0.7546
 1180TIP3    H224956   0.091   1.841  17.606 -0.4117  0.9825 -1.0693
 1181TIP3   OH224957   1.778   1.275  14.665  0.2550  0.4858 -0.2166
 1181TIP3    H124958   1.696   1.235  14.636 -1.0071  0.7611  2.6659
 1181TIP3    H224959   1.781   1.259  14.759  3.5238  0.5543 -0.2065
 1182TIP3   OH224960   5.316   0.921  15.089  0.0771 -0.4739  0.2729
 1182TIP3    H124961   5.394   0.878  15.054  0.6901 -0.6206  1.7615
 1182TIP3    H224962   5.268   0.851  15.134  0.2185  0.0629  1.2641
 1183TIP3   OH224963   2.569   0.065  15.949  0.0770  0.3559  0.3492
 1183TIP3    H124964   2.648   0.119  15.955 -0.0815  0.5933  0.3209
 1183TIP3    H224965   2.550   0.062  15.855  0.2644 -0.0112  0.3212
 1184TIP3   OH224966   2.793   0.755   1.448 -0.1761  0.2902  0.2410
 1184TIP3    H124967   2.783   0.807   1.527 -2.1053  1.0170 -0.4263
 1184TIP3    H224968   2.726   0.687   1.455 -0.1328  0.1511 -0.6025
 1185TIP3   OH224969   4.053   6.150  12.884 -0.5277  0.2844 -0.2954
 1185TIP3    H124970   4.084   6.240  12.896  1.2519  0.2309 -3.5361
 1185TIP3    H224971   3.966   6.161  12.844 -0.6981  0.5166  0.1225
 1186TIP3   OH224972   2.767   1.166  14.071 -0.6039  0.4657 -0.6885
 1186TIP3    H124973   2.679   1.132  14.056 -0.5233 -0.1373  0.1494
 1186TIP3    H224974   2.778   1.163  14.166  0.7003 -0.4397 -0.8458
 1187TIP3   OH224975   0.275   2.110   1.407 -0.0689 -0.0844 -0.1373
 1187TIP3    H124976   0.242   2.072   1.488  1.4342  0.3079  0.6964
 1187TIP3    H224977   0.304   2.035   1.355 -2.8505 -0.5093 -1.2333
 1188TIP3   OH224978   4.187   6.455   4.407  0.3955 -0.7058 -0.4216
 1188TIP3    H124979   4.182   6.550   4.422  0.2013 -0.4371 -2.0272
 1188TIP3    H224980   4.239   6.422   4.481 -0.8065  0.4204  0.9830
 1189TIP3   OH224981   3.163   1.712   1.065 -0.7497 -0.2210  0.2100
 1189TIP3    H124982   3.172   1.636   1.123 -1.7518  0.5961  1.4854
 1189TIP3    H224983   3.101   1.770   1.110  0.1771  1.4818 -0.5820
 1190TIP3   OH224984   3.702   6.684   3.278 -0.4237  0.6863 -0.7696
 1190TIP3    H124985   3.641   6.702   3.206  1.1796 -1.1344 -2.6915
 1190TIP3    H224986   3.705   6.589   3.284  3.5249  0.5312 -2.0929
 1191TIP3   OH224987   6.420   3.316   3.393 -0.1109  0.9763  0.6083
 1191TIP3    H124988   6.409   3.271   3.310  0.3019  1.5072  0.2662
 1191TIP3    H224989   6.352   3.384   3.393 -0.8156  0.3064  1.1781
 1192TIP3   OH224990   4.357   1.607  13.247 -0.3598 -0.0188 -0.2388
 1192TIP3    H124991   4.441   1.580  13.285 -1.5331 -2.3371  0.8877
 1192TIP3    H224992   4.295   1.601  13.320 -1.6274  1.0768 -1.1908
 1193TIP3   OH224993   1.614   0.533  16.530  0.3088 -0.5069  0.0567
 1193TIP3    H124994   1.629   0.613  16.581 -1.0351 -0.6551  0.7124
 1193TIP3    H224995   1.647   0.463  16.586  0.7463 -0.4963 -0.1803
 1194TIP3   OH224996   5.062   4.310  11.622 -0.1881  0.2466  0.0866
 1194TIP3    H124997   5.139   4.259  11.600  0.4281  0.9257  0.5952
 1194TIP3    H224998   5.042   4.286  11.713 -0.9259 -0.3513 -0.2264
 1195TIP3   OH224999   2.161   5.525  12.300 -0.4796  0.2405  0.1197
 1195TIP3    H125000   2.146   5.471  12.378 -0.2338  2.0451  1.4807
 1195TIP3    H225001   2.255   5.543  12.302 -0.4173  0.0274 -0.7902
 1196TIP3   OH225002   3.527   0.747   4.992  0.9225 -0.3095 -0.2545
 1196TIP3    H125003   3.556   0.830   4.953  0.6034  0.2822  0.7176
 1196TIP3    H225004   3.597   0.725   5.054 -0.4980  1.0048  1.9369
 1197TIP3   OH225005   6.394   2.427  16.114  0.1998 -0.0634 -0.1985
 1197TIP3    H125006   6.421   2.336  16.128 -1.0715 -0.6375 -1.2319
 1197TIP3    H225007   6.473   2.471  16.083  0.7305 -0.9160 -0.0899
 1198TIP3   OH225008   0.567   3.809  15.998 -0.3422 -0.3014 -0.3400
 1198TIP3    H125009   0.479   3.833  15.971 -0.4133  0.7973  0.7683
 1198TIP3    H225010   0.557   3.778  16.088  0.1621 -1.9524 -0.8141
 1199TIP3   OH225011   5.360   0.520   1.900 -0.0251  0.2767  0.0669
 1199TIP3    H125012   5.427   0.585   1.922  0.2887 -0.2082  0.5516
 1199TIP3    H225013   5.285   0.573   1.872  0.1358  0.8589  0.7020
 1200TIP3   OH225014   4.234   4.698  16.106 -0.0189  0.2964  0.5987
 1200TIP3    H125015   4.270   4.663  16.188  1.4375  1.2696  0.4102
 1200TIP3    H225016   4.299   4.676  16.040  0.5651  2.6085  0.3345
 1201TIP3   OH225017   5.532   1.314  11.319 -0.7379 -0.3079 -0.3686
 1201TIP3    H125018   5.454   1.261  11.334 -1.3142  1.1173  2.3160
 1201TIP3    H225019   5.584   1.302  11.399  0.7736  0.4651 -1.1926
 1202TIP3   OH225020   2.564   4.657  11.019  0.3433 -0.0731 -0.2944
 1202TIP3    H125021   2.551   4.632  10.927  1.6170 -0.5130 -0.3742
 1202TIP3    H225022   2.505   4.731  11.032 -1.4656 -1.3575 -0.8526
 1203TIP3   OH225023   5.742   3.863   0.188  0.1571 -0.4369  0.2847
 1203TIP3    H125024   5.740   3.790   0.126  2.6374 -1.3797  1.1936
 1203TIP3    H225025   5.696   3.830   0.265  0.8155 -0.9003  0.4963
 1204TIP3   OH225026   2.732   5.125   3.580 -0.4276  0.5804  0.4481
 1204TIP3    H125027   2.755   5.155   3.492 -0.4933 -0.5154  0.0370
 1204TIP3    H225028   2.797   5.166   3.637 -0.1236  0.9656 -0.1628
 1205TIP3   OH225029   6.053   5.194  12.648  0.1022 -0.5888 -0.1460
 1205TIP3    H125030   6.041   5.238  12.732 -2.0630 -0.2228 -0.5766
 1205TIP3    H225031   6.147   5.192  12.635  0.4802 -0.3453  2.1209
 1206TIP3   OH225032   3.546   3.744   5.555 -0.3376 -0.1390  0.8791
 1206TIP3    H125033   3.592   3.681   5.611  2.5828  1.2941  0.3001
 1206TIP3    H225034   3.616   3.790   5.509 -2.4997  0.7190 -1.8289
 1207TIP3   OH225035   1.129   1.233   3.425  0.0324 -0.0920 -0.4147
 1207TIP3    H125036   1.157   1.266   3.340 -0.5924  0.0558 -0.5677
 1207TIP3    H225037   1.041   1.267   3.437  0.1281 -0.0724  0.3159
 1208TIP3   OH225038   0.131   2.217   4.611  0.3096 -0.1530 -0.2788
 1208TIP3    H125039   0.100   2.218   4.521  0.0539 -2.0664 -0.2607
 1208TIP3    H225040   0.206   2.157   4.610 -0.8508 -1.7254  1.0684
 1209TIP3   OH225041   0.124   2.656   0.105  0.1256 -0.0908 -0.5026
 1209TIP3    H125042   0.192   2.723   0.104  0.1288 -0.0783  0.0134
 1209TIP3    H225043   0.168   2.575   0.079  0.1757  0.0624 -0.8872
 1210TIP3   OH225044   1.224   1.686  14.586 -0.0019 -0.4765 -0.1026
 1210TIP3    H125045   1.160   1.639  14.532  0.1264 -0.8670  0.0857
 1210TIP3    H225046   1.170   1.739  14.645 -0.1956 -2.0854  1.2142
 1211TIP3   OH225047   2.028   3.624  11.095 -0.3618  0.0478 -0.3182
 1211TIP3    H125048   1.944   3.659  11.067 -1.4485 -1.6622  0.6480
 1211TIP3    H225049   2.089   3.647  11.024 -2.3293 -1.5119 -2.6800
 1212TIP3   OH225050   1.309   5.295  11.125  0.5211  0.2345  0.1915
 1212TIP3    H125051   1.350   5.376  11.094 -0.5860  0.2687 -1.2448
 1212TIP3    H225052   1.276   5.317  11.212  0.8144  1.1189  0.0870
 1213TIP3   OH225053   2.155   4.459   1.945  0.3615  0.4121 -0.1202
 1213TIP3    H125054   2.137   4.490   2.034 -1.0899 -0.4477 -0.0822
 1213TIP3    H225055   2.203   4.378   1.958  2.0850  1.3824 -0.1843
 1214TIP3   OH225056   5.203   2.837   3.756  0.4620  0.1180 -0.1557
 1214TIP3    H125057   5.158   2.871   3.679  1.4469  2.6439  0.2904
 1214TIP3    H225058   5.293   2.869   3.747  0.5412  0.7420  2.1369
 1215TIP3   OH225059   2.065   3.340   0.464 -0.2818 -0.2333  0.1889
 1215TIP3    H125060   2.071   3.292   0.547  2.2608  0.4305  0.4753
 1215TIP3    H225061   2.048   3.273   0.398  2.0430 -1.4761  0.7379
 1216TIP3   OH225062   1.498   1.468   2.881 -0.2952  0.4264  0.0901
 1216TIP3    H125063   1.471   1.529   2.949  0.6468  0.2880  0.6086
 1216TIP3    H225064   1.423   1.409   2.869 -0.7078  0.8589  0.5360
 1217TIP3   OH225065   2.081   0.853  15.293  0.3487  0.5473 -0.3797
 1217TIP3    H125066   2.163   0.824  15.332 -0.1053  0.5241  0.6123
 1217TIP3    H225067   2.107   0.916  15.226  1.1453  1.4319  0.7105
 1218TIP3   OH225068   2.388   2.707   1.822  0.0106 -0.3119 -0.3181
 1218TIP3    H125069   2.479   2.705   1.795 -0.3294 -1.1336 -1.5053
 1218TIP3    H225070   2.360   2.615   1.816 -0.0423 -0.6538  3.1626
 1219TIP3   OH225071   2.728   2.043  16.373  0.4026  0.3979  0.0895
 1219TIP3    H125072   2.722   2.117  16.312 -0.6243 -1.3749 -2.1245
 1219TIP3    H225073   2.656   2.056  16.435  0.0458  1.1055 -0.4656
 1220TIP3   OH225074   2.755   2.914   5.909  0.4929  0.0543  0.4966
 1220TIP3    H125075   2.740   2.880   5.821  0.1610  1.7438 -0.1250
 1220TIP3    H225076   2.800   2.842   5.954  0.9577 -0.7282 -1.1230
 1221TIP3   OH225077   0.996   3.515  12.785  0.0789 -0.0128  0.4697
 1221TIP3    H125078   0.930   3.539  12.721  1.5992  0.7678 -0.8934
 1221TIP3    H225079   1.003   3.592  12.842  0.6712  0.4193 -0.1654
 1222TIP3   OH225080   1.157   2.739  16.510 -0.4271 -0.4089  0.4986
 1222TIP3    H125081   1.156   2.810  16.575 -0.0751 -1.0816  1.2538
 1222TIP3    H225082   1.244   2.701  16.517 -1.3890 -2.5495  1.9344
 1223TIP3   OH225083   0.158   3.591  14.046  0.2090  0.6268  0.6318
 1223TIP3    H125084   0.134   3.583  14.138 -0.2892  0.1941  0.4682
 1223TIP3    H225085   0.148   3.503  14.011  1.2190  0.6089  0.3542
 1224TIP3   OH225086   5.123   4.522   5.595 -0.1816  0.2013 -0.0566
 1224TIP3    H125087   5.125   4.546   5.688 -1.4695 -2.0038  0.6221
 1224TIP3    H225088   5.209   4.483   5.578 -0.2568 -0.2184  0.4910
 1225TIP3   OH225089   6.266   6.188   5.152  0.0592 -0.0572 -0.6051
 1225TIP3    H125090   6.296   6.248   5.083 -1.6015 -0.0137 -1.3330
 1225TIP3    H225091   6.263   6.243   5.231  2.3976 -0.2133 -0.3318
 1226TIP3   OH225092   3.038   2.432   1.473 -0.0970 -0.0829 -0.0520
 1226TIP3    H125093   3.038   2.485   1.394  0.8646  0.0510  0.0269
 1226TIP3    H225094   2.969   2.367   1.459  0.7707 -0.7551 -1.4777
 1227TIP3   OH225095   2.054   3.570  12.553  0.0605  0.5465  0.1220
 1227TIP3    H125096   2.135   3.622  12.556 -0.4888  1.4603 -0.3512
 1227TIP3    H225097   2.002   3.612  12.485 -0.2070 -0.9460 -0.6526
 1228TIP3   OH225098   0.331   1.486  13.383 -0.2810 -0.0195  0.1607
 1228TIP3    H125099   0.326   1.409  13.438 -1.8945 -0.3493 -0.3868
 1228TIP3    H225100   0.421   1.517  13.393  0.1273 -1.4120  1.1176
 1229TIP3   OH225101   2.066   2.742   0.954 -0.2733 -0.0958  0.0786
 1229TIP3    H125102   2.027   2.720   0.870 -0.4405  0.8690 -0.1010
 1229TIP3    H225103   2.086   2.657   0.994  0.6089 -0.5632 -1.2912
 1230TIP3   OH225104   0.889   4.193  15.944 -0.1541 -0.2642  0.1567
 1230TIP3    H125105   0.888   4.169  15.852  4.5766 -2.1725  0.3684
 1230TIP3    H225106   0.886   4.110  15.992  0.8616  0.4813  1.5946
 1231TIP3   OH225107   5.891   1.125  15.515  0.1810  0.0914 -0.5682
 1231TIP3    H125108   5.890   1.186  15.589 -0.8792 -1.6038  0.8977
 1231TIP3    H225109   5.843   1.170  15.446 -1.7347  0.4805  0.9124
 1232TIP3   OH225110   4.289   5.896  17.239 -0.0606 -0.3445  0.7113
 1232TIP3    H125111   4.375   5.866  17.209 -0.6505  0.1148 -1.6484
 1232TIP3    H225112   4.306   5.978  17.284  0.7958 -0.5705  0.8211
 1233TIP3   OH225113   0.027   5.516  13.079 -0.2426 -0.1285  0.3578
 1233TIP3    H125114   0.037   5.586  13.143  0.7751  0.4013 -0.3509
 1233TIP3    H225115  -0.051   5.540  13.029  1.6619  2.1050 -1.7602
 1234TIP3   OH225116   3.926   0.260  12.754  0.3770  0.4490  0.1741
 1234TIP3    H125117   3.842   0.245  12.798 -0.1173  2.2488 -0.0763
 1234TIP3    H225118   3.991   0.244  12.822 -0.2883  1.3493  1.0510
 1235TIP3   OH225119   3.084   5.360   1.934  0.3992  0.4372  0.2252
 1235TIP3    H125120   3.155   5.421   1.958 -0.1832  0.7976  1.0606
 1235TIP3    H225121   3.052   5.327   2.017 -2.0503  2.1501  0.0538
 1236TIP3   OH225122   4.495   2.107   1.190 -0.2419 -0.2743 -0.2890
 1236TIP3    H125123   4.461   2.151   1.268  4.1815  2.4678  0.4380
 1236TIP3    H225124   4.476   2.167   1.118 -0.0838 -0.4737 -0.4982
 1237TIP3   OH225125   0.827   0.076  13.157 -0.6636  0.3689  0.3501
 1237TIP3    H125126   0.912   0.070  13.114 -0.9101  1.9095 -0.4376
 1237TIP3    H225127   0.790  -0.012  13.150  0.1773  0.0844 -0.7604
 1238TIP3   OH225128   5.359   5.138  16.375  0.0265  0.0266  0.0567
 1238TIP3    H125129   5.351   5.223  16.331 -0.1907 -0.2209 -0.4001
 1238TIP3    H225130   5.382   5.159  16.465  1.6212  0.5195 -0.4265
 1239TIP3   OH225131   0.995   2.245  14.953  0.5782  0.4779 -0.0045
 1239TIP3    H125132   0.958   2.294  15.027 -0.5942  0.7381 -0.7360
 1239TIP3    H225133   0.940   2.269  14.879  2.0038  0.5788 -1.0805
 1240TIP3   OH225134   2.443   5.660  13.446 -0.0521 -0.2465 -0.1935
 1240TIP3    H125135   2.473   5.589  13.389  1.2466 -0.0439  0.2241
 1240TIP3    H225136   2.429   5.734  13.386  0.4189 -0.3074 -0.3824
 1241TIP3   OH225137   4.295   1.853  12.815 -0.2378  0.6749  0.2759
 1241TIP3    H125138   4.324   1.862  12.905 -0.4309  1.6602  0.2508
 1241TIP3    H225139   4.227   1.920  12.805 -1.1302 -0.2820 -0.2296
 1242TIP3   OH225140   4.695   1.163  13.505  0.0922  0.0030  0.4492
 1242TIP3    H125141   4.612   1.159  13.552 -0.4043 -0.9695 -0.4669
 1242TIP3    H225142   4.750   1.220  13.558 -1.0492  0.3970  1.2458
 1243TIP3   OH225143   5.093   4.398  15.785 -0.5789  0.3970  0.1692
 1243TIP3    H125144   5.024   4.463  15.771  0.0155  0.6330 -2.2134
 1243TIP3    H225145   5.088   4.341  15.708 -0.7840 -2.1811  1.9709
 1244TIP3   OH225146   1.737   1.409  11.151 -0.5996  0.1840  0.3644
 1244TIP3    H125147   1.827   1.438  11.166 -1.1848  1.9026  0.7408
 1244TIP3    H225148   1.712   1.367  11.233 -0.1848 -0.2596  0.2765
 1245TIP3   OH225149   1.817   5.865  14.868 -0.4122 -0.2220 -0.6900
 1245TIP3    H125150   1.773   5.901  14.945  0.1497 -1.0600  0.0414
 1245TIP3    H225151   1.790   5.773  14.865  0.6363 -0.5424 -0.7053
 1246TIP3   OH225152   4.731   3.313   0.435 -0.2297  0.4840 -0.4176
 1246TIP3    H125153   4.695   3.331   0.522 -1.8247 -1.7963 -0.5074
 1246TIP3    H225154   4.677   3.242   0.401  3.0926 -1.8032 -1.4519
 1247TIP3   OH225155   1.710   6.702  12.663 -0.0182  0.3888 -0.4146
 1247TIP3    H125156   1.633   6.675  12.613 -0.9076  0.9899  0.5989
 1247TIP3    H225157   1.722   6.794  12.640 -0.7514  0.8210  0.8348
 1248TIP3   OH225158   3.505   5.321  13.909  0.1224 -0.1824 -0.0577
 1248TIP3    H125159   3.446   5.246  13.897  1.2799 -1.1685  0.2155
 1248TIP3    H225160   3.572   5.309  13.842  0.1870  0.7572 -0.1701
 1249TIP3   OH225161   0.633   4.175   4.186 -0.2497 -0.0896  0.1144
 1249TIP3    H125162   0.660   4.221   4.266  0.4729  0.0885 -0.2238
 1249TIP3    H225163   0.694   4.206   4.119 -0.6092 -0.5286 -0.4235
 1250TIP3   OH225164   3.344   0.706   4.443 -0.2946  0.1148 -0.0876
 1250TIP3    H125165   3.412   0.720   4.509 -0.4807  2.5804 -0.3225
 1250TIP3    H225166   3.263   0.736   4.485 -0.4901  1.3137 -1.2370
 1251TIP3   OH225167   2.672   0.607   3.681  0.4687  0.2298  0.4390
 1251TIP3    H125168   2.693   0.593   3.589  0.5079  1.3323  0.2618
 1251TIP3    H225169   2.592   0.660   3.680  0.2001 -0.1478  1.0502
 1252TIP3   OH225170   6.264   4.218   1.577 -0.6656  0.2882  0.4529
 1252TIP3    H125171   6.250   4.141   1.521 -2.0505  1.4827 -0.9549
 1252TIP3    H225172   6.176   4.248   1.598 -0.1466  1.3248  1.2017
 1253TIP3   OH225173   5.745   5.993  11.947  0.2672  0.0120 -0.1784
 1253TIP3    H125174   5.835   5.976  11.918  0.0042  0.7281 -1.4724
 1253TIP3    H225175   5.739   6.089  11.950 -0.9693  0.0179 -1.8084
 1254TIP3   OH225176   2.312   3.976   4.116 -0.1811 -0.2696 -0.1811
 1254TIP3    H125177   2.357   3.928   4.185  0.2537 -0.9531 -0.9214
 1254TIP3    H225178   2.377   4.036   4.082 -1.0234  1.6674  1.4536
 1255TIP3   OH225179   6.227   0.818  12.503  0.0762 -0.1170  0.2317
 1255TIP3    H125180   6.248   0.725  12.509 -0.5004 -0.3412 -0.9425
 1255TIP3    H225181   6.273   0.848  12.424 -0.8735  0.2565 -0.2009
 1256TIP3   OH225182   0.450   5.295   6.498 -0.2230  0.0288 -0.2107
 1256TIP3    H125183   0.389   5.358   6.458 -0.9693 -1.0414 -0.8058
 1256TIP3    H225184   0.395   5.221   6.523  0.2862  0.4735  2.4942
 1257TIP3   OH225185   1.853   3.657   2.751 -0.0331 -0.4643  0.3254
 1257TIP3    H125186   1.765   3.643   2.787 -0.2093 -1.8146 -0.5565
 1257TIP3    H225187   1.907   3.678   2.827 -1.2172  1.0768  0.8070
 1258TIP3   OH225188   0.465   4.516  15.245  0.2198  0.2307  0.1234
 1258TIP3    H125189   0.413   4.464  15.306 -0.0086 -0.4652 -0.6588
 1258TIP3    H225190   0.552   4.475  15.246  0.4544  0.7215  0.5922
 1259TIP3   OH225191   0.511   5.057   0.663 -0.8743 -0.2806 -0.3125
 1259TIP3    H125192   0.425   5.017   0.672 -0.3732 -1.2484  0.3091
 1259TIP3    H225193   0.510   5.130   0.724 -1.3039 -0.1848 -0.4272
 1260TIP3   OH225194   6.642   3.719  15.789  0.4300  0.1853 -0.3227
 1260TIP3    H125195   6.690   3.707  15.871  1.2619 -0.0076 -0.8278
 1260TIP3    H225196   6.601   3.634  15.772  2.3254 -0.5778 -1.3847
 1261TIP3   OH225197   6.112   5.346  16.848 -0.5408  0.1911 -0.0146
 1261TIP3    H125198   6.156   5.274  16.802 -1.1890 -0.0626 -0.2417
 1261TIP3    H225199   6.107   5.317  16.939 -1.6275 -0.4677 -0.2664
 1262TIP3   OH225200   3.401   5.057  12.061 -0.0538 -0.3289 -0.3263
 1262TIP3    H125201   3.306   5.058  12.048  0.0802 -0.5986 -1.4459
 1262TIP3    H225202   3.416   5.122  12.129 -1.1331 -0.9952  0.5855
 1263TIP3   OH225203   1.378   0.100   4.121  0.2156  0.7890 -0.6398
 1263TIP3    H125204   1.443   0.168   4.100  0.8043  0.2687 -0.5441
 1263TIP3    H225205   1.390   0.034   4.053  0.1629  0.4329 -0.3056
 1264TIP3   OH225206   0.497   5.073  14.844  0.3693  0.3002 -0.5821
 1264TIP3    H125207   0.545   4.997  14.812 -2.3051 -0.9312 -1.9971
 1264TIP3    H225208   0.542   5.148  14.805  1.7024 -0.6769 -1.0124
 1265TIP3   OH225209   0.729   3.497   1.907  0.2618 -0.0151  0.4767
 1265TIP3    H125210   0.652   3.443   1.892 -0.2462  1.1687 -1.4504
 1265TIP3    H225211   0.778   3.493   1.825  1.0739  1.0971  0.8795
 1266TIP3   OH225212   0.823   4.806  11.238 -0.5092  0.6602  0.8593
 1266TIP3    H125213   0.914   4.822  11.262 -0.6767  0.9965  1.2853
 1266TIP3    H225214   0.821   4.714  11.212 -0.0096  0.7055  0.6592
 1267TIP3   OH225215   0.313   6.221  15.144  0.1003  0.0230  0.3848
 1267TIP3    H125216   0.347   6.298  15.100  0.1518  0.0788  0.5189
 1267TIP3    H225217   0.307   6.247  15.236  2.6974 -0.9905  0.9246
 1268TIP3   OH225218   2.399   0.004  17.068  0.3139 -0.0384  0.4353
 1268TIP3    H125219   2.472   0.035  17.120  0.5547 -0.6698  0.4846
 1268TIP3    H225220   2.326  -0.004  17.129  0.3937 -0.0737  0.5252
 1269TIP3   OH225221   2.750   6.641  14.381  0.6760 -0.1121  0.2433
 1269TIP3    H125222   2.658   6.651  14.405  0.2957  1.2678 -1.5642
 1269TIP3    H225223   2.798   6.649  14.463 -0.7752 -0.3738  1.1474
 1270TIP3   OH225224   3.654   4.317  11.813 -0.5630 -0.3949  0.1126
 1270TIP3    H125225   3.677   4.331  11.721 -1.1684  0.9840  0.1546
 1270TIP3    H225226   3.711   4.378  11.861  1.3603 -2.6270  0.8872
 1271TIP3   OH225227   4.157   0.848  13.404  0.1515 -0.3806  0.2062
 1271TIP3    H125228   4.192   0.835  13.316 -0.2481 -2.3926  0.2943
 1271TIP3    H225229   4.194   0.932  13.433  2.7666 -1.1275 -0.7011
 1272TIP3   OH225230   1.559   6.536  11.071  0.6095 -0.3160 -0.1219
 1272TIP3    H125231   1.600   6.468  11.018  1.4447 -3.3240  3.9190
 1272TIP3    H225232   1.465   6.525  11.055  0.7325 -2.3781  0.2475
 1273TIP3   OH225233   0.521   4.281  13.246  0.1059  0.4652  0.4061
 1273TIP3    H125234   0.459   4.330  13.192  0.9259  0.8209 -0.2399
 1273TIP3    H225235   0.496   4.189  13.233  0.1200  0.5620 -0.3732
 1274TIP3   OH225236   1.153   3.501   1.074 -0.0914 -0.1985  0.4238
 1274TIP3    H125237   1.146   3.412   1.109 -0.2385 -0.3058  0.1182
 1274TIP3    H225238   1.198   3.550   1.144  0.0861 -0.5346  0.5484
 1275TIP3   OH225239   4.023   6.402  11.749 -0.7247 -0.0427 -0.1313
 1275TIP3    H125240   4.033   6.380  11.657  0.8175 -0.2220  0.0533
 1275TIP3    H225241   4.061   6.328  11.796 -0.4848  0.5448  0.6285
 1276TIP3   OH225242   3.806   2.001   2.114  0.3103 -0.2237 -0.4346
 1276TIP3    H125243   3.802   1.906   2.125  2.1520 -0.2371  0.5133
 1276TIP3    H225244   3.720   2.025   2.079 -0.3695 -2.1679 -0.2073
 1277TIP3   OH225245   6.307   3.734   4.482  0.5568  0.0178 -0.2028
 1277TIP3    H125246   6.378   3.741   4.419 -0.5665  0.3568 -1.4904
 1277TIP3    H225247   6.304   3.819   4.525  0.0205  0.5074 -1.1832
 1278TIP3   OH225248   2.712   4.064  15.438 -0.0726  0.3496  0.4784
 1278TIP3    H125249   2.679   3.979  15.410 -0.0050  0.8016 -1.0629
 1278TIP3    H225250   2.712   4.118  15.359  0.0426  1.7440  1.3811
 1279TIP3   OH225251   0.841   5.832   5.862  0.2713  0.3457 -0.0895
 1279TIP3    H125252   0.906   5.901   5.874 -0.8876  1.2999  0.9431
 1279TIP3    H225253   0.882   5.771   5.800  1.4648  1.7599 -0.7521
 1280TIP3   OH225254   4.928   3.741   1.485 -0.3556  0.4634 -0.1570
 1280TIP3    H125255   4.857   3.755   1.422  0.5332  0.9111 -1.1058
 1280TIP3    H225256   4.901   3.665   1.536 -1.8648  1.1013  0.0320
 1281TIP3   OH225257   0.147   0.468  12.366 -0.1199 -0.3808  0.6354
 1281TIP3    H125258   0.114   0.466  12.456 -0.9211 -2.5337  0.3496
 1281TIP3    H225259   0.234   0.431  12.372  0.9877  2.0324  0.8565
 1282TIP3   OH225260   3.137   4.939   1.509 -0.1643 -0.4859  0.4308
 1282TIP3    H125261   3.046   4.913   1.518 -0.8212  1.4131 -0.2334
 1282TIP3    H225262   3.162   4.910   1.421  0.8936 -3.6889  1.6423
 1283TIP3   OH225263   3.465   5.567  14.894  0.0890  0.0754  0.1798
 1283TIP3    H125264   3.407   5.577  14.819  2.5272  1.4611 -1.6997
 1283TIP3    H225265   3.523   5.494  14.869  1.3177  0.9531  0.3826
 1284TIP3   OH225266   3.606   0.790   1.897 -1.0837 -0.2537 -0.3685
 1284TIP3    H125267   3.640   0.879   1.887  1.9375 -1.2409 -0.1136
 1284TIP3    H225268   3.664   0.750   1.963 -2.0601 -2.5261 -0.8014
 1285TIP3   OH225269   2.170   4.825   0.117  0.5241  0.1147  0.2981
 1285TIP3    H125270   2.090   4.877   0.124 -0.7430 -1.7501  0.4604
 1285TIP3    H225271   2.164   4.762   0.188  0.8895 -1.6693 -1.1733
 1286TIP3   OH225272   2.301   4.753   0.941  0.1363 -0.0669 -0.5148
 1286TIP3    H125273   2.394   4.750   0.962  0.0267 -0.5589 -0.1014
 1286TIP3    H225274   2.261   4.800   1.014 -0.0300 -0.4495 -0.3551
 1287TIP3   OH225275   1.017   3.962  16.071  0.0073 -0.2233  0.0699
 1287TIP3    H125276   1.099   3.918  16.051 -0.0138 -0.0619 -0.3794
 1287TIP3    H225277   0.951   3.914  16.020 -0.4289 -1.3026  1.5393
 1288TIP3   OH225278   2.727   3.593  14.091  0.4326  0.3661  0.4197
 1288TIP3    H125279   2.723   3.503  14.058  0.4772  0.1189  1.0735
 1288TIP3    H225280   2.699   3.586  14.182  1.5109  0.8386  0.8031
 1289TIP3   OH225281   2.622   5.973  14.430 -0.1642 -0.4542 -0.3796
 1289TIP3    H125282   2.564   5.938  14.363 -0.9735  0.9088 -0.4379
 1289TIP3    H225283   2.591   6.063  14.445  0.7466 -0.3162  0.9534
 1290TIP3   OH225284   4.436   1.265  15.437 -0.5134 -0.1279  0.0307
 1290TIP3    H125285   4.393   1.350  15.438 -0.3682 -0.0171 -1.0778
 1290TIP3    H225286   4.368   1.202  15.463 -0.9119  0.2123 -0.1868
 1291TIP3   OH225287   5.205   5.995   3.966 -0.2236  0.4136  0.0164
 1291TIP3    H125288   5.279   5.973   3.909 -0.1188 -2.1242  1.0257
 1291TIP3    H225289   5.245   6.027   4.047 -0.3233  1.3420 -0.2844
 1292TIP3   OH225290   2.283   3.318  12.355 -0.3532  0.2485  0.7298
 1292TIP3    H125291   2.312   3.324  12.264 -0.6563 -3.1555  0.2997
 1292TIP3    H225292   2.187   3.315  12.350 -0.3531 -0.6785  1.0677
 1293TIP3   OH225293   5.929   2.964   3.384  0.4243  0.0036 -0.3584
 1293TIP3    H125294   5.937   2.895   3.319 -1.2939 -0.2364 -0.3510
 1293TIP3    H225295   5.842   2.953   3.422  1.0887  0.5866  1.4822
 1294TIP3   OH225296   2.686   6.412   4.409  0.0754 -0.0839 -0.1115
 1294TIP3    H125297   2.655   6.322   4.416  0.8996 -0.2788  1.4739
 1294TIP3    H225298   2.608   6.466   4.422 -0.2177 -0.5730  0.1620
 1295TIP3   OH225299   4.838   4.074  11.746 -0.1339  0.0135 -0.5830
 1295TIP3    H125300   4.899   4.040  11.680  1.3626 -0.4854  0.9894
 1295TIP3    H225301   4.774   4.124  11.695  0.7361 -0.6628 -2.4476
 1296TIP3   OH225302   2.560   5.413   5.355 -0.1379 -0.0602 -0.0011
 1296TIP3    H125303   2.522   5.431   5.441 -2.5828  1.4507 -1.2879
 1296TIP3    H225304   2.526   5.327   5.330  0.0459 -0.2088  0.2566
 1297TIP3   OH225305   2.902   1.832   0.232  0.3862  0.6401 -0.1848
 1297TIP3    H125306   2.969   1.880   0.182  2.1140  1.1064  2.3891
 1297TIP3    H225307   2.922   1.740   0.217  1.0636  0.7756 -0.1382
 1298TIP3   OH225308   1.871   2.018  15.587 -0.3418 -0.1013  0.1350
 1298TIP3    H125309   1.839   2.108  15.581  0.8502  0.3660  0.4304
 1298TIP3    H225310   1.837   1.987  15.671 -1.4000 -0.2081 -0.3145
 1299TIP3   OH225311   6.167   5.775   4.687 -0.0965 -0.2939 -0.3729
 1299TIP3    H125312   6.221   5.851   4.664 -1.4404 -0.0047 -2.9176
 1299TIP3    H225313   6.090   5.813   4.730  0.0728 -0.3964  0.0262
 1300TIP3   OH225314   0.257   0.753   1.715  0.0800 -0.1842  0.3800
 1300TIP3    H125315   0.258   0.849   1.718  0.5235 -0.1706 -0.0713
 1300TIP3    H225316   0.322   0.727   1.781  0.8101 -0.1444 -0.3105
 1301TIP3   OH225317   5.254   3.221  16.923 -0.0890 -0.2337 -0.2591
 1301TIP3    H125318   5.304   3.243  16.845 -0.3746  0.2308 -0.3186
 1301TIP3    H225319   5.317   3.180  16.982  0.8986  2.1879  0.5154
 1302TIP3   OH225320   2.627   4.531   2.997  0.5449 -0.1416  0.7603
 1302TIP3    H125321   2.533   4.520   3.010  0.5480 -1.0149  0.0860
 1302TIP3    H225322   2.636   4.557   2.906  1.0305 -1.2236  0.4858
 1303TIP3   OH225323   2.070   3.949  12.220  0.2091 -0.3214  0.0184
 1303TIP3    H125324   2.060   3.876  12.159 -0.2510  0.0785 -0.3925
 1303TIP3    H225325   2.017   4.019  12.183 -0.3439 -0.1748  1.0389
 1304TIP3   OH225326   3.740   3.751  11.919  0.0215  0.3425  0.6886
 1304TIP3    H125327   3.763   3.679  11.859  0.8833  1.1590  0.0217
 1304TIP3    H225328   3.747   3.712  12.006 -0.2084 -0.5740  0.3192
 1305TIP3   OH225329   4.844   3.180  17.294  0.8687  0.0056 -0.6583
 1305TIP3    H125330   4.877   3.262  17.332 -1.3365  1.6208 -1.9704
 1305TIP3    H225331   4.905   3.113  17.325  2.1357  1.9536  1.3944
 1306TIP3   OH225332   5.329   3.224  14.518  0.4788 -0.4419 -0.1605
 1306TIP3    H125333   5.235   3.242  14.507  0.8510  0.6878 -1.7965
 1306TIP3    H225334   5.333   3.131  14.540 -1.0502 -0.3638  0.5955
 1307TIP3   OH225335   2.987   1.077   1.843  0.5000 -0.5169 -0.1411
 1307TIP3    H125336   2.951   0.991   1.818 -1.6201  0.0503  0.7205
 1307TIP3    H225337   2.993   1.074   1.938 -1.5269  0.9189  0.0994
 1308TIP3   OH225338   1.848   0.040   1.739 -0.6754 -0.5773  0.2619
 1308TIP3    H125339   1.859   0.081   1.653 -3.1189 -0.0635  0.1264
 1308TIP3    H225340   1.890   0.101   1.800 -2.0410  0.9150 -0.2179
 1309TIP3   OH225341   2.130   0.928   4.021 -0.0377 -0.5588 -0.4702
 1309TIP3    H125342   2.116   0.945   3.928  0.3083  0.9619 -0.2644
 1309TIP3    H225343   2.221   0.898   4.027  0.3311  0.5320 -0.4889
 1310TIP3   OH225344   6.108   2.357   1.160  0.0685  0.1943  0.2697
 1310TIP3    H125345   6.184   2.393   1.115  0.1333  1.0455  1.0270
 1310TIP3    H225346   6.129   2.365   1.253 -0.9513  0.4719  0.4906
 1311TIP3   OH225347   0.685   2.902   4.198 -0.2320  0.4102 -0.1391
 1311TIP3    H125348   0.612   2.952   4.235 -1.4962 -2.2156  1.1853
 1311TIP3    H225349   0.752   2.905   4.266  0.4291  1.6941 -0.8025
 1312TIP3   OH225350   4.505   0.620  16.364  0.2615  0.0791  0.6754
 1312TIP3    H125351   4.599   0.620  16.348  0.5315  0.2221  2.0741
 1312TIP3    H225352   4.489   0.538  16.412 -0.8294 -1.3696 -1.9256
 1313TIP3   OH225353   3.238   6.462   1.924 -0.1285  0.2751  0.1865
 1313TIP3    H125354   3.286   6.380   1.936 -1.0608 -0.4836 -1.0513
 1313TIP3    H225355   3.239   6.504   2.010 -0.1694 -1.3420  0.9955
 1314TIP3   OH225356   1.964   1.537  15.946 -0.4219  0.2249  0.5551
 1314TIP3    H125357   1.974   1.445  15.921 -0.4351  0.4685 -0.3809
 1314TIP3    H225358   1.886   1.538  16.001  0.7319 -0.6381  2.3199
 1315TIP3   OH225359   5.739   0.488  15.837  0.6127 -0.0645 -0.2911
 1315TIP3    H125360   5.735   0.581  15.859 -1.4904 -0.5817  1.9853
 1315TIP3    H225361   5.657   0.471  15.789 -0.9639 -1.3461  2.5774
 1316TIP3   OH225362   0.245   2.924   1.146 -0.7324  0.4153  0.3125
 1316TIP3    H125363   0.260   2.933   1.052  1.5403 -1.1704  0.4370
 1316TIP3    H225364   0.247   2.829   1.162  0.9932  0.6732  2.1747
 1317TIP3   OH225365   4.737   0.467  11.410  0.0411 -0.1477 -0.0291
 1317TIP3    H125366   4.717   0.456  11.503 -1.3017  2.1950  0.0235
 1317TIP3    H225367   4.825   0.430  11.400  0.0132 -0.8930  2.0457
 1318TIP3   OH225368   3.613   6.094   5.086  0.0193 -0.0353 -0.0952
 1318TIP3    H125369   3.624   6.174   5.035  0.3382 -0.7009 -1.0871
 1318TIP3    H225370   3.683   6.098   5.151  0.4017  0.2153 -0.5140
 1319TIP3   OH225371   3.232   0.952  15.951 -0.6486 -0.2120 -0.9101
 1319TIP3    H125372   3.221   0.857  15.948  1.2270 -0.5398  0.7475
 1319TIP3    H225373   3.308   0.966  16.007 -1.4893  2.3290 -0.2511
 1320TIP3   OH225374   0.927   4.904  15.530 -0.0272  0.2604  0.2663
 1320TIP3    H125375   0.832   4.892  15.521  0.0693  0.2289 -0.8405
 1320TIP3    H225376   0.944   4.987  15.485  0.4755  0.2572  0.4495
 1321TIP3   OH225377   3.731   2.626   5.359  0.1576 -0.8070 -0.5961
 1321TIP3    H125378   3.784   2.677   5.298 -0.7689 -0.0802 -0.8054
 1321TIP3    H225379   3.784   2.549   5.377  0.6184 -0.8609 -2.0334
 1322TIP3   OH225380   5.192   6.419   4.073  0.4380  0.1757 -0.3128
 1322TIP3    H125381   5.269   6.442   4.020 -0.3335  1.5689 -0.8852
 1322TIP3    H225382   5.119   6.462   4.030 -0.4303  0.2413  1.1417
 1323TIP3   OH225383   0.332   0.482  11.536  0.4939  0.2573  0.1591
 1323TIP3    H125384   0.263   0.478  11.601 -0.4557  0.9811 -0.7669
 1323TIP3    H225385   0.288   0.511  11.456  1.7130 -0.1150 -0.6758
 1324TIP3   OH225386   4.480   4.203  10.926  0.3735  0.5130 -0.2273
 1324TIP3    H125387   4.562   4.192  10.879  0.2945  0.4829 -0.3603
 1324TIP3    H225388   4.422   4.137  10.888  0.0626  1.0186 -0.6565
 1325TIP3   OH225389   1.651   1.157   2.953 -0.2436 -0.1596  0.4501
 1325TIP3    H125390   1.619   1.228   3.007 -0.1483  0.6259 -0.4966
 1325TIP3    H225391   1.713   1.198   2.892 -2.3794 -0.4167 -2.1084
 1326TIP3   OH225392   1.812   4.345  13.767 -0.7144 -0.5894 -0.1882
 1326TIP3    H125393   1.794   4.279  13.835 -2.6238 -0.5612 -0.6335
 1326TIP3    H225394   1.755   4.419  13.789 -0.7284 -0.2397 -1.3338
 1327TIP3   OH225395   0.686   2.481   2.062  0.0124  0.2098 -0.0922
 1327TIP3    H125396   0.746   2.407   2.053  0.4355  0.5600 -0.1849
 1327TIP3    H225397   0.628   2.474   1.986 -0.7368 -0.7239  0.5394
 1328TIP3   OH225398   3.639   4.700  12.083 -0.4982  0.3708 -0.0686
 1328TIP3    H125399   3.679   4.628  12.035  1.1947  0.5091  1.0527
 1328TIP3    H225400   3.606   4.659  12.164 -0.4007  0.6902  0.1326
 1329TIP3   OH225401   4.705   4.017   0.905 -0.2309  0.8937 -0.1096
 1329TIP3    H125402   4.683   4.028   0.813  2.0723 -0.0100 -0.8410
 1329TIP3    H225403   4.771   4.084   0.923 -1.7320  2.0707  1.3632
 1330TIP3   OH225404   0.043   6.510   6.085 -0.3523 -0.3724 -0.4777
 1330TIP3    H125405   0.096   6.446   6.133 -0.2693  0.0833  0.0536
 1330TIP3    H225406   0.076   6.595   6.115  0.3365 -0.0552 -2.0497
 1331TIP3   OH225407   6.332   4.964   0.490 -0.3506  0.3044  0.0895
 1331TIP3    H125408   6.391   4.930   0.423 -1.2351  2.0861 -1.7099
 1331TIP3    H225409   6.248   4.973   0.445 -1.2757  0.4562  1.7914
 1332TIP3   OH225410   2.051   3.012   5.526  0.0754 -0.2136 -0.5641
 1332TIP3    H125411   1.984   3.073   5.557  0.3043 -0.4863  0.5309
 1332TIP3    H225412   2.028   2.995   5.434 -0.9002  0.2944 -0.4303
 1333TIP3   OH225413   2.580   4.385  14.960 -0.1118  0.4087  0.3604
 1333TIP3    H125414   2.543   4.393  15.048 -0.6633  0.6506  0.1122
 1333TIP3    H225415   2.542   4.304  14.926  2.4873 -1.4305  1.4539
 1334TIP3   OH225416   2.523   2.480   1.253 -0.1106  0.0358  0.0811
 1334TIP3    H125417   2.495   2.488   1.344  3.2558 -0.2358  1.3038
 1334TIP3    H225418   2.530   2.386   1.239 -2.5634 -0.0213 -1.2399
 1335TIP3   OH225419   6.710   4.455  15.902 -1.1485 -0.1276  0.7706
 1335TIP3    H125420   6.632   4.441  15.956 -1.1270 -1.5720  0.4677
 1335TIP3    H225421   6.727   4.370  15.862 -0.4482  0.5973 -0.5611
 1336TIP3   OH225422   5.698   1.041  15.832 -0.0127  0.5557 -0.6452
 1336TIP3    H125423   5.628   1.088  15.878 -0.7770 -0.3859 -0.8032
 1336TIP3    H225424   5.749   1.110  15.790 -0.0197  1.3561  0.5932
 1337TIP3   OH225425   2.478   3.901   4.331 -0.6026  0.4603  0.2097
 1337TIP3    H125426   2.555   3.957   4.323 -0.3535 -0.0289 -1.0545
 1337TIP3    H225427   2.500   3.840   4.401 -0.0834  0.7102  0.2667
 1338TIP3   OH225428   2.138   6.407   5.629  0.1508 -0.8782  0.5452
 1338TIP3    H125429   2.116   6.445   5.714 -1.2434  0.5011 -0.3697
 1338TIP3    H225430   2.234   6.401   5.629  0.2019 -0.3288  1.9649
 1339TIP3   OH225431   6.588   3.832  14.612  0.9969  0.0775  0.2131
 1339TIP3    H125432   6.564   3.740  14.625  3.5021 -0.6595  0.2018
 1339TIP3    H225433   6.602   3.866  14.701 -0.7969  0.7435  0.2648
 1340TIP3   OH225434   0.682   1.150   4.397 -0.5939 -0.2887  0.1924
 1340TIP3    H125435   0.604   1.206   4.397 -0.7230 -0.4447 -0.6785
 1340TIP3    H225436   0.679   1.106   4.312  0.7540  0.1297 -0.0902
 1341TIP3   OH225437   5.168   3.563  14.805  0.2265 -0.1527  0.0052
 1341TIP3    H125438   5.181   3.570  14.711  0.6296  1.2165  0.1350
 1341TIP3    H225439   5.210   3.480  14.829  1.7798  0.3740 -0.7647
 1342TIP3   OH225440   5.238   2.630  12.601 -0.1988  0.3201  0.3153
 1342TIP3    H125441   5.192   2.553  12.567 -0.4034  0.8798 -0.7333
 1342TIP3    H225442   5.168   2.685  12.636 -0.3431  1.0565 -1.0495
 1343TIP3   OH225443   0.279   1.122  15.498  0.0174  0.2817  0.1826
 1343TIP3    H125444   0.290   1.149  15.407  1.7496 -2.5496 -0.5661
 1343TIP3    H225445   0.195   1.075  15.499  0.1904 -0.0437 -0.0947
 1344TIP3   OH225446   2.705   4.432   1.722 -0.0590  0.4689  0.4139
 1344TIP3    H125447   2.730   4.349   1.682 -0.7179  0.4660 -0.0094
 1344TIP3    H225448   2.775   4.451   1.784  1.1023  0.5433 -0.8502
 1345TIP3   OH225449   0.431   2.153  11.166 -0.5507  0.2054 -0.4541
 1345TIP3    H125450   0.419   2.059  11.154 -3.2643  0.4923 -0.5826
 1345TIP3    H225451   0.462   2.185  11.081 -1.4060 -0.3566 -0.9936
 1346TIP3   OH225452   3.038   3.154  15.000 -0.7667  0.3538  0.6609
 1346TIP3    H125453   3.053   3.140  14.907 -0.9129 -0.2591  0.7209
 1346TIP3    H225454   3.111   3.208  15.029  0.1521 -0.7789  0.5128
 1347TIP3   OH225455   1.418   0.504   5.943 -0.7507 -0.0788 -0.5927
 1347TIP3    H125456   1.327   0.534   5.933 -0.5940  0.9431  0.7122
 1347TIP3    H225457   1.446   0.543   6.026  1.2025  0.4357 -1.4490
 1348TIP3   OH225458   3.206   6.669   2.965  0.1063 -0.1644  0.5787
 1348TIP3    H125459   3.226   6.577   2.946  1.8196  0.5191 -1.2510
 1348TIP3    H225460   3.186   6.708   2.880 -2.1880  0.8653  1.5071
 1349TIP3   OH225461   0.711   6.331  16.990 -0.2420 -0.1726  0.1746
 1349TIP3    H125462   0.761   6.395  17.040 -0.7372  0.0844  0.3428
 1349TIP3    H225463   0.647   6.383  16.942 -1.4911 -0.6422  1.2909
 1350TIP3   OH225464   2.260   2.454  17.158 -0.6039  0.0748 -0.0135
 1350TIP3    H125465   2.339   2.451  17.212 -0.8607 -1.0832  0.3295
 1350TIP3    H225466   2.281   2.515  17.087  0.7268 -0.4706 -0.1206
 1351TIP3   OH225467   3.358   3.414  17.158 -0.2956 -0.1710  0.4896
 1351TIP3    H125468   3.294   3.472  17.116  1.0011  2.2147  1.5752
 1351TIP3    H225469   3.308   3.337  17.184 -1.7768 -0.3553 -2.5411
 1352TIP3   OH225470   4.713   2.811   5.956 -0.5606  0.3392  0.6936
 1352TIP3    H125471   4.680   2.751   5.889 -2.7203  2.8371 -0.6982
 1352TIP3    H225472   4.664   2.788   6.035  0.5910 -1.3718  0.9574
 1353TIP3   OH225473   3.749   2.507   1.279  0.2524  0.1716 -0.0612
 1353TIP3    H125474   3.676   2.446   1.270  0.9206 -0.8125  0.9447
 1353TIP3    H225475   3.760   2.544   1.191 -0.7473 -0.4695 -0.4751
 1354TIP3   OH225476   5.301   3.344  11.747  0.4516 -0.3516  0.0956
 1354TIP3    H125477   5.317   3.279  11.816  1.3670 -0.7557 -0.4733
 1354TIP3    H225478   5.341   3.424  11.780 -1.1857  0.1217  1.0569
 1355TIP3   OH225479   3.331   1.206  11.739  0.3984 -0.0801  0.4234
 1355TIP3    H125480   3.312   1.169  11.825  1.8424 -2.0992 -0.0246
 1355TIP3    H225481   3.254   1.185  11.686  0.5232 -1.0696  0.6097
 1356TIP3   OH225482   3.620   1.537  11.147  0.2346 -0.5196 -0.0239
 1356TIP3    H125483   3.554   1.468  11.145 -0.8662  0.4961  0.2317
 1356TIP3    H225484   3.648   1.547  11.056  1.8805 -2.6259  0.1716
 1357TIP3   OH225485   5.175   2.717   3.322  0.1834 -0.8374 -0.0199
 1357TIP3    H125486   5.258   2.670   3.318  0.2005 -0.9359  1.1726
 1357TIP3    H225487   5.161   2.748   3.232  1.1886 -1.3499 -0.3749
 1358TIP3   OH225488   6.110   4.841  17.492 -0.5425 -0.2480 -0.3044
 1358TIP3    H125489   6.059   4.899  17.436 -1.2051 -0.4645  0.0540
 1358TIP3    H225490   6.146   4.775  17.432  0.0737  0.4302 -0.6853
 1359TIP3   OH225491   5.542   2.156  13.807  0.1108 -0.5387  0.2182
 1359TIP3    H125492   5.574   2.163  13.897 -3.2499 -0.1349  1.5134
 1359TIP3    H225493   5.606   2.204  13.755  1.4711  0.3693  2.5675
 1360TIP3   OH225494   6.593   2.821  17.309  0.2672 -0.3060  0.0320
 1360TIP3    H125495   6.535   2.762  17.261  1.3061 -2.6433  1.4275
 1360TIP3    H225496   6.670   2.767  17.330  0.9590  1.3199  2.0619
 1361TIP3   OH225497   4.926   6.351  15.806 -0.5435 -0.2279 -0.8059
 1361TIP3    H125498   4.956   6.292  15.736  0.2767  0.0319 -0.6820
 1361TIP3    H225499   4.937   6.300  15.886 -1.5410 -0.5473 -0.8536
 1362TIP3   OH225500   3.826   1.408  16.313 -0.0366  0.3510  0.5283
 1362TIP3    H125501   3.790   1.472  16.251  0.7055  1.2154  0.9667
 1362TIP3    H225502   3.794   1.324  16.281  0.4523  0.7589 -1.1177
 1363TIP3   OH225503   5.293   2.910   2.547 -0.1229 -0.0073 -0.2616
 1363TIP3    H125504   5.259   2.996   2.523  2.0372  0.7129 -0.9860
 1363TIP3    H225505   5.300   2.913   2.643  1.1943  1.2044 -0.3539
 1364TIP3   OH225506   0.998   6.183  17.056 -0.6335  0.7414  0.2594
 1364TIP3    H125507   1.024   6.229  17.136 -0.0545  1.9354 -0.5976
 1364TIP3    H225508   0.923   6.232  17.023  0.5393  1.6761 -1.1491
 1365TIP3   OH225509   2.670   0.292  14.881 -0.1295  0.0273 -0.2229
 1365TIP3    H125510   2.674   0.199  14.904  0.5056 -0.2771 -1.4704
 1365TIP3    H225511   2.656   0.337  14.964 -0.4313 -1.1824  0.3998
 1366TIP3   OH225512   1.873   3.308   4.121 -0.5765 -0.0948 -0.1015
 1366TIP3    H125513   1.839   3.223   4.147  0.0865 -0.0989  0.8235
 1366TIP3    H225514   1.795   3.364   4.116 -1.1087 -0.9218 -1.5028
 1367TIP3   OH225515   1.763   3.921   3.231  0.2026 -1.1562  0.8904
 1367TIP3    H125516   1.777   3.943   3.323  0.9534  0.9344  0.3376
 1367TIP3    H225517   1.712   3.995   3.196 -1.0725 -2.4517 -0.1466
 1368TIP3   OH225518   4.734   4.341   1.658 -0.6014  0.2151 -0.1180
 1368TIP3    H125519   4.645   4.321   1.688 -0.5612  0.2712  0.0356
 1368TIP3    H225520   4.747   4.282   1.583 -0.3273 -0.6288  0.5802
 1369TIP3   OH225521   1.849   0.037   2.892 -0.0183 -0.2889  0.3631
 1369TIP3    H125522   1.891   0.046   2.978  1.3892  0.2096 -0.3568
 1369TIP3    H225523   1.911  -0.015   2.840 -1.3912 -1.6272 -0.0258
 1370TIP3   OH225524   5.747   4.970  12.174  0.0845 -0.0128 -0.3868
 1370TIP3    H125525   5.725   4.954  12.082 -2.3075  0.4932  0.0081
 1370TIP3    H225526   5.831   5.016  12.171 -0.8489  1.7396 -2.4871
 1371TIP3   OH225527   4.191   6.365  16.338  0.0887 -0.6444  0.4506
 1371TIP3    H125528   4.188   6.294  16.273  0.7729 -1.2287  1.0422
 1371TIP3    H225529   4.181   6.321  16.422 -1.1305  0.1469  0.7398
 1372TIP3   OH225530   0.181   0.836  14.337  0.6493  0.5485 -0.0415
 1372TIP3    H125531   0.229   0.903  14.386  1.5021  0.8154 -1.1994
 1372TIP3    H225532   0.103   0.881  14.306  0.3033  0.4857  0.6973
 1373TIP3   OH225533   6.553   6.073   3.213  0.6549  0.9313 -0.2302
 1373TIP3    H125534   6.524   6.159   3.242 -1.1879  0.3141 -0.0849
 1373TIP3    H225535   6.503   6.011   3.267 -1.1128 -0.2312 -2.9317
 1374TIP3   OH225536   2.860   3.704   2.058  0.6477 -0.4316  0.3669
 1374TIP3    H125537   2.929   3.682   1.996 -1.1857 -2.0202 -1.2363
 1374TIP3    H225538   2.880   3.651   2.135  1.6962 -0.1669  0.2972
 1375TIP3   OH225539   2.637   3.060   3.556 -0.0419  0.0541  0.2076
 1375TIP3    H125540   2.639   2.983   3.499 -0.6562  0.8081 -0.8913
 1375TIP3    H225541   2.566   3.114   3.519  1.6473  2.0455 -0.2898
 1376TIP3   OH225542   6.157   2.781  16.585  0.4483 -0.1663 -0.7697
 1376TIP3    H125543   6.167   2.690  16.556 -0.2437  0.0624 -1.7980
 1376TIP3    H225544   6.134   2.774  16.677 -0.4511 -1.0975 -1.0362
 1377TIP3   OH225545   0.554   4.450   5.432 -0.1949  0.7549  0.2040
 1377TIP3    H125546   0.572   4.449   5.526 -0.3583  0.3140  0.2371
 1377TIP3    H225547   0.458   4.452   5.427 -0.1661  2.4079  0.0373
 1378TIP3   OH225548   1.607   3.656   2.852 -0.1044  0.3815  0.1840
 1378TIP3    H125549   1.621   3.650   2.946  0.1617 -0.9627  0.0835
 1378TIP3    H225550   1.551   3.733   2.841 -0.4835  0.3204  1.4797
 1379TIP3   OH225551   3.467   2.725  11.452 -0.0717  0.4856  0.1657
 1379TIP3    H125552   3.475   2.706  11.546 -0.3783 -2.1596 -0.2643
 1379TIP3    H225553   3.547   2.773  11.430 -0.1010  1.3542  1.8008
 1380TIP3   OH225554   4.410   0.373   1.056 -0.2683 -0.2137  0.3146
 1380TIP3    H125555   4.387   0.389   1.148 -0.5737 -1.6999  0.5202
 1380TIP3    H225556   4.453   0.287   1.057 -0.7325 -0.4760 -0.9908
 1381TIP3   OH225557   3.505   5.253   5.325  0.8720 -0.5308 -0.3042
 1381TIP3    H125558   3.572   5.261   5.393  1.8169 -1.6054 -1.0609
 1381TIP3    H225559   3.425   5.235   5.373  0.9453  1.4383  0.6647
 1382TIP3   OH225560   4.978   2.779  15.827 -0.9803  0.0015 -0.3563
 1382TIP3    H125561   4.909   2.787  15.762  0.1038  1.3203 -1.4047
 1382TIP3    H225562   4.932   2.781  15.911 -2.3426 -0.9709 -1.0375
 1383TIP3   OH225563   6.004   1.514  12.248 -0.5117 -0.4139 -0.0920
 1383TIP3    H125564   5.949   1.508  12.326  1.1224 -0.5128  1.0946
 1383TIP3    H225565   6.005   1.425  12.213 -1.5960 -0.2802 -0.4866
 1384TIP3   OH225566   5.132   0.390   3.579  1.1210 -0.6098  0.2839
 1384TIP3    H125567   5.221   0.423   3.586  0.9741 -0.0976 -0.1262
 1384TIP3    H225568   5.140   0.308   3.531  1.4795 -1.1206  1.1981
 1385TIP3   OH225569   1.069   0.143  10.968  0.3547 -0.1674  0.8779
 1385TIP3    H125570   1.127   0.075  11.001 -0.5553 -1.2899  0.2255
 1385TIP3    H225571   1.110   0.172  10.887 -1.1431 -2.7186 -0.9363
 1386TIP3   OH225572   0.559   2.201  10.928  0.3744  0.3383 -0.4630
 1386TIP3    H125573   0.654   2.188  10.929  0.1984 -1.8492 -2.2202
 1386TIP3    H225574   0.539   2.220  10.836 -1.0080 -0.6606 -0.3954
 1387TIP3   OH225575   2.951   6.095  16.165  0.3972 -0.3326  0.0648
 1387TIP3    H125576   3.017   6.123  16.227 -0.1602 -0.4620  0.7383
 1387TIP3    H225577   2.870   6.134  16.197  0.1549 -0.1386 -0.7684
 1388TIP3   OH225578   4.256   6.372   5.169 -0.3934  0.5736 -0.3628
 1388TIP3    H125579   4.314   6.384   5.094 -1.2235 -1.6044 -1.4505
 1388TIP3    H225580   4.168   6.369   5.130 -0.8223 -0.7453  0.6306
 1389TIP3   OH225581   3.953   5.648  15.289 -0.4443 -0.2335 -0.3815
 1389TIP3    H125582   3.902   5.626  15.367 -1.9790 -0.0488 -1.2894
 1389TIP3    H225583   3.942   5.743  15.279 -0.1235 -0.2322 -0.7346
 1390TIP3   OH225584   6.440   3.311   5.157  0.0441  0.4875 -0.4413
 1390TIP3    H125585   6.398   3.384   5.203  3.3052  2.6315 -0.5087
 1390TIP3    H225586   6.410   3.233   5.203 -1.8525  2.0340  1.1208
 1391TIP3   OH225587   5.171   5.007  12.544 -0.5159  0.4697  0.3021
 1391TIP3    H125588   5.223   4.957  12.481 -1.0631  1.8432 -1.3068
 1391TIP3    H225589   5.144   4.942  12.609  2.3093 -0.4783  0.6430
 1392TIP3   OH225590   3.851   5.027   2.307  0.2030 -0.3451  0.1544
 1392TIP3    H125591   3.855   5.121   2.294  0.1971 -0.0105  2.2690
 1392TIP3    H225592   3.884   4.990   2.225  0.6366  1.4868 -0.5421
 1393TIP3   OH225593   6.609   3.383  16.869  0.5455  0.5879  0.2296
 1393TIP3    H125594   6.545   3.451  16.889  0.2996  0.1442  1.0184
 1393TIP3    H225595   6.693   3.428  16.871  0.4000  0.8430  0.9120
 1394TIP3   OH225596   3.716   5.354  16.026  0.2224 -0.0530 -0.7669
 1394TIP3    H125597   3.686   5.267  16.002 -1.6038  0.7140 -1.4317
 1394TIP3    H225598   3.805   5.359  15.990  0.2408 -1.5049 -0.9880
 1395TIP3   OH225599   3.572   1.221  16.575  0.4000 -0.5193  1.0238
 1395TIP3    H125600   3.653   1.210  16.625  0.4283 -1.6759  0.7517
 1395TIP3    H225601   3.556   1.315  16.576  1.4359 -0.3328  1.5757
 1396TIP3   OH225602   6.039   1.630   4.867 -0.3533  0.0520 -0.0683
 1396TIP3    H125603   6.067   1.718   4.844  0.9885 -0.8051 -1.9420
 1396TIP3    H225604   5.955   1.619   4.822 -1.1645  0.7582  1.1978
 1397TIP3   OH225605   5.037   0.779   6.599  0.0395 -0.0256 -0.3978
 1397TIP3    H125606   4.955   0.785   6.550  0.3653 -0.9856 -1.0986
 1397TIP3    H225607   5.092   0.721   6.546  1.2030  0.6718  0.0212
 1398TIP3   OH225608   6.536   3.639  14.962 -0.0175 -0.2214  0.4862
 1398TIP3    H125609   6.454   3.663  14.918 -0.6856 -2.3898  0.4427
 1398TIP3    H225610   6.525   3.671  15.051 -0.1216  1.1037  0.0257
 1399TIP3   OH225611   5.705   4.703  12.226 -0.0030 -0.3884  0.0763
 1399TIP3    H125612   5.776   4.644  12.203 -0.0488  0.4744 -2.5921
 1399TIP3    H225613   5.734   4.789  12.196 -0.6682  0.6925  2.2930
 1400TIP3   OH225614   1.627   4.409   1.241 -0.1615  0.1322 -0.2043
 1400TIP3    H125615   1.573   4.372   1.171 -1.6180  1.3947  0.2040
 1400TIP3    H225616   1.682   4.474   1.197 -0.9964  0.8448 -0.2232
 1401TIP3   OH225617   2.531   0.773   2.296  0.2962  0.1274 -0.2798
 1401TIP3    H125618   2.544   0.803   2.386  0.6900 -0.6957 -0.0565
 1401TIP3    H225619   2.438   0.749   2.292  0.0123  1.2257 -0.4219
 1402TIP3   OH225620   0.939   6.392  15.083 -0.2925 -0.5558 -0.3155
 1402TIP3    H125621   0.944   6.314  15.137 -1.9473  0.1843  0.9928
 1402TIP3    H225622   0.982   6.460  15.135  3.3227 -0.9358 -2.4094
 1403TIP3   OH225623   4.266   0.064  17.143 -0.2316 -0.4398 -0.8979
 1403TIP3    H125624   4.325   0.009  17.091 -1.1438 -1.3847 -0.9626
 1403TIP3    H225625   4.208   0.106  17.080  1.1884  1.5778 -0.9607
 1404TIP3   OH225626   6.283   5.324   0.427  0.4440 -0.0368  0.3795
 1404TIP3    H125627   6.359   5.338   0.484  0.3414  0.9174  0.2820
 1404TIP3    H225628   6.221   5.275   0.481  0.3247  0.9121  1.1207
 1405TIP3   OH225629   5.004   5.253  13.113  0.0403 -0.4729 -0.5976
 1405TIP3    H125630   5.020   5.210  13.197  0.2140  1.6038  0.5007
 1405TIP3    H225631   4.910   5.272  13.114  0.6621  3.4443  1.2424
 1406TIP3   OH225632   2.158   1.057  15.062  0.2948 -0.0139 -0.1435
 1406TIP3    H125633   2.077   1.100  15.033 -0.2216 -0.2586  0.8644
 1406TIP3    H225634   2.195   1.118  15.126 -0.2904 -0.8806  1.0783
 1407TIP3   OH225635   2.039   1.799   2.811 -0.1228 -0.0349  0.3694
 1407TIP3    H125636   1.962   1.748   2.834 -0.4794 -0.0016 -0.7259
 1407TIP3    H225637   2.072   1.832   2.895 -1.0250 -0.4297  0.8869
 1408TIP3   OH225638   2.097   5.299  12.693 -0.5081  0.2716  0.8493
 1408TIP3    H125639   2.072   5.370  12.634 -1.3985  0.2893  1.2321
 1408TIP3    H225640   2.058   5.221  12.654 -0.6757  0.2064  1.1465
 1409TIP3   OH225641   5.031   2.094   2.405 -0.2258 -0.1309 -0.1330
 1409TIP3    H125642   5.088   2.082   2.481  0.1626  1.5988 -0.1012
 1409TIP3    H225643   4.949   2.127   2.442 -0.6022 -0.8033 -0.3485
 1410TIP3   OH225644   1.908   3.091  10.763  0.3956  0.0103 -0.6360
 1410TIP3    H125645   1.921   3.142  10.684  3.2019  0.4458  0.0082
 1410TIP3    H225646   1.915   3.000  10.734  0.4467  0.1358 -1.0227
 1411TIP3   OH225647   2.317   3.275  15.741  0.6726 -0.4271  0.2088
 1411TIP3    H125648   2.355   3.189  15.722  1.9761 -0.2048  1.5759
 1411TIP3    H225649   2.339   3.329  15.665  0.0044 -1.2391 -0.5743
 1412TIP3   OH225650   3.344   5.315   2.601 -0.8402  0.0260  0.1603
 1412TIP3    H125651   3.423   5.308   2.548 -0.4069 -1.2715  0.9144
 1412TIP3    H225652   3.285   5.371   2.551 -0.0280 -0.2518 -1.1331
 1413TIP3   OH225653   6.369   6.139  16.629 -0.2465  0.3431  0.1588
 1413TIP3    H125654   6.398   6.223  16.596 -2.2598  1.3420  0.7862
 1413TIP3    H225655   6.310   6.160  16.701 -0.5992 -1.6110  0.5113
 1414TIP3   OH225656   3.069   2.902  15.618  0.1640 -0.1126 -0.5075
 1414TIP3    H125657   3.122   2.958  15.561 -0.8732 -0.8227 -2.2766
 1414TIP3    H225658   3.089   2.813  15.590 -0.0923 -0.5124  0.5235
 1415TIP3   OH225659   5.008   4.011  13.816  0.6138 -0.3884  0.3591
 1415TIP3    H125660   4.918   4.007  13.785  0.3418 -2.7128  1.2304
 1415TIP3    H225661   5.061   3.996  13.737  0.1471 -0.7398  0.1062
 1416TIP3   OH225662   5.905   3.917  12.708 -0.0711  0.1837  0.3542
 1416TIP3    H125663   5.997   3.894  12.723  0.0552  0.0905 -0.5313
 1416TIP3    H225664   5.858   3.834  12.714  0.3963 -0.4717 -2.9476
 1417TIP3   OH225665   3.906   1.140   1.742 -0.8427 -0.5006 -0.6542
 1417TIP3    H125666   3.944   1.226   1.761  0.1014 -0.9402 -0.4822
 1417TIP3    H225667   3.980   1.088   1.710 -1.1486 -1.5823  0.3365
 1418TIP3   OH225668   5.435   2.877  15.777  0.2133  0.0766 -0.4311
 1418TIP3    H125669   5.528   2.858  15.792  0.1710  0.5713  0.5366
 1418TIP3    H225670   5.396   2.792  15.756  0.9688 -0.0600 -1.3466
 1419TIP3   OH225671   4.354   4.669   0.558 -0.2956 -0.0955  0.7186
 1419TIP3    H125672   4.406   4.650   0.480  0.2576 -1.4278  1.3856
 1419TIP3    H225673   4.276   4.713   0.524  0.5117  0.5086 -0.4508
 1420TIP3   OH225674   5.510   6.056   5.763 -0.3612  0.1692  0.2025
 1420TIP3    H125675   5.442   6.068   5.698  1.1894 -0.4980 -1.6300
 1420TIP3    H225676   5.498   5.967   5.795  1.0914 -0.8957 -1.9827
 1421TIP3   OH225677   5.795   5.756  11.205 -0.5782 -0.3212 -0.2959
 1421TIP3    H125678   5.862   5.695  11.171 -0.1642  1.0665 -2.1611
 1421TIP3    H225679   5.839   5.801  11.277  0.1788 -0.0878 -0.8913
 1422TIP3   OH225680   5.536   5.316   1.012  0.0167 -0.4100  0.3432
 1422TIP3    H125681   5.584   5.385   0.966  0.5976 -0.3034  1.0682
 1422TIP3    H225682   5.571   5.319   1.101 -0.7109 -0.9426  0.6573
 1423TIP3   OH225683   2.709   6.504   1.356 -0.0748 -0.0497  0.6366
 1423TIP3    H125684   2.616   6.489   1.373  0.0132 -1.1827  0.1829
 1423TIP3    H225685   2.748   6.417   1.358  0.6764  0.2232 -1.0280
 1424TIP3   OH225686   0.944   3.696   1.210 -0.0669  0.8033  0.2734
 1424TIP3    H125687   0.884   3.678   1.282 -0.9616 -0.1535 -0.6597
 1424TIP3    H225688   1.031   3.676   1.245 -0.7793 -4.7264 -0.1992
 1425TIP3   OH225689   3.279   5.503  10.451  0.2897 -0.0557  0.3845
 1425TIP3    H125690   3.353   5.457  10.412  0.3757 -1.0830  1.6784
 1425TIP3    H225691   3.210   5.500  10.384  1.4324  1.0408 -0.8889
 1426TIP3   OH225692   2.996   6.579  11.221  0.5150  0.1177  0.3479
 1426TIP3    H125693   2.999   6.485  11.203 -0.2716 -0.0689  1.0928
 1426TIP3    H225694   3.069   6.615  11.171 -0.6395 -0.5269 -1.9458
 1427TIP3   OH225695   6.395   2.614  12.416 -0.1848  0.0424  0.3326
 1427TIP3    H125696   6.397   2.661  12.333 -0.3731  0.5371  0.6023
 1427TIP3    H225697   6.485   2.585  12.429 -0.3102 -0.7271 -0.4249
 1428TIP3   OH225698   2.819   5.034   4.653  0.6735  0.8095  0.4567
 1428TIP3    H125699   2.911   5.049   4.674  0.9072  2.5610 -1.4764
 1428TIP3    H225700   2.776   5.117   4.674 -0.1590  0.5394 -0.1173
 1429TIP3   OH225701   0.966   1.652  17.031  0.4830  0.5786 -0.7036
 1429TIP3    H125702   0.942   1.742  17.007  1.7625  1.1070 -0.0758
 1429TIP3    H225703   1.041   1.662  17.088  0.2602 -0.8822 -0.1230
 1430TIP3   OH225704   4.711   1.315   0.214  0.4851 -0.5282  0.0784
 1430TIP3    H125705   4.795   1.351   0.188 -0.7761  1.6283 -1.3220
 1430TIP3    H225706   4.648   1.350   0.151 -1.6841 -0.9865  1.8223
 1431TIP3   OH225707   4.479   5.332  17.262  0.4579  0.2807 -0.6228
 1431TIP3    H125708   4.411   5.298  17.205  0.1521  0.2918 -0.2675
 1431TIP3    H225709   4.554   5.274  17.247  0.2501  0.0400 -0.7373
 1432TIP3   OH225710   6.536   4.282  13.752  0.3040  0.4095  0.1355
 1432TIP3    H125711   6.575   4.369  13.753 -0.0186  0.5609 -0.1324
 1432TIP3    H225712   6.479   4.283  13.675 -0.0653  0.1193  0.4049
 1433TIP3   OH225713   4.348   6.477   2.809  0.2608 -0.0769  0.2897
 1433TIP3    H125714   4.434   6.469   2.852  0.1299  1.2202  0.8141
 1433TIP3    H225715   4.308   6.554   2.848 -1.4697 -1.0601  0.5619
 1434TIP3   OH225716   4.642   1.740  14.391  0.4200 -0.2377 -0.2839
 1434TIP3    H125717   4.728   1.703  14.415 -0.5013 -0.7145  2.7534
 1434TIP3    H225718   4.599   1.756  14.475 -2.8088 -0.7910 -1.6816
 1435TIP3   OH225719   4.654   6.691   1.216  0.2009  0.2474  0.6262
 1435TIP3    H125720   4.658   6.606   1.261 -1.6135 -0.0445  0.3116
 1435TIP3    H225721   4.740   6.701   1.177  0.8656 -0.8668  1.7088
 1436TIP3   OH225722   5.831   0.127   2.944 -0.3448  0.1801  0.4432
 1436TIP3    H125723   5.737   0.146   2.936 -0.0208  1.0556 -2.3277
 1436TIP3    H225724   5.843   0.047   2.893  0.3024 -0.4494  1.5527
 1437TIP3   OH225725   4.328   2.021  16.302 -0.5207 -0.0721  0.4036
 1437TIP3    H125726   4.236   2.047  16.304 -0.3611  0.6077 -0.4751
 1437TIP3    H225727   4.375   2.101  16.280  0.1614 -0.6877 -0.4523
 1438TIP3   OH225728   2.043   0.790  15.704  0.3233  0.7070 -0.0422
 1438TIP3    H125729   2.101   0.769  15.631  0.3320  1.8131 -0.3789
 1438TIP3    H225730   2.097   0.840  15.765  1.2093 -2.7157  2.3063
 1439TIP3   OH225731   1.731   4.466  14.858  0.3274  0.5752  0.1230
 1439TIP3    H125732   1.753   4.411  14.782  2.5791  1.4578  0.0724
 1439TIP3    H225733   1.716   4.403  14.929 -0.0455 -0.1851 -0.5985
 1440TIP3   OH225734   4.389   4.829  17.026 -0.2616 -0.4037  0.0570
 1440TIP3    H125735   4.401   4.772  16.950 -0.3152 -0.9573  0.4568
 1440TIP3    H225736   4.402   4.917  16.992  0.2984 -0.6829 -0.4775
 1441TIP3   OH225737   4.291   4.078  15.607 -0.1061  0.1249  0.0857
 1441TIP3    H125738   4.218   4.019  15.589 -0.3658  0.8701 -1.4663
 1441TIP3    H225739   4.257   4.139  15.673 -1.2348  1.0110 -1.2485
 1442TIP3   OH225740   0.046   0.356   3.093 -0.5820  0.0559  0.9371
 1442TIP3    H125741   0.025   0.271   3.053  0.2437 -0.3040  1.2554
 1442TIP3    H225742   0.136   0.347   3.124 -0.8589  0.6795  1.9609
 1443TIP3   OH225743   1.252   0.729   6.120 -0.3661  0.1258  0.3200
 1443TIP3    H125744   1.342   0.703   6.142 -0.5757 -1.6461 -0.8065
 1443TIP3    H225745   1.236   0.805   6.177  1.3760 -0.2931  1.4731
 1444TIP3   OH225746   5.398   4.991   0.488  0.1097  0.8741  0.1725
 1444TIP3    H125747   5.371   4.968   0.577  1.5497  2.1810  0.9836
 1444TIP3    H225748   5.387   5.086   0.483  2.7324  1.2498 -0.0225
 1445TIP3   OH225749   2.141   2.547  11.994 -0.5436  0.4625  0.4310
 1445TIP3    H125750   2.143   2.534  11.899  0.3847 -0.1943  0.5191
 1445TIP3    H225751   2.052   2.524  12.020 -0.7269  0.3858 -0.2407
 1446TIP3   OH225752   3.442   6.075  11.390  0.8097  0.0902 -0.2906
 1446TIP3    H125753   3.480   6.064  11.302 -0.0935  1.8362 -0.9520
 1446TIP3    H225754   3.417   6.168  11.393  2.6063  0.5988  2.5443
 1447TIP3   OH225755   2.139   3.811  16.146  0.4466 -0.2416 -0.3559
 1447TIP3    H125756   2.130   3.905  16.128  1.9319 -0.0960 -0.4788
 1447TIP3    H225757   2.198   3.806  16.222  0.6115 -1.0761 -0.5230
 1448TIP3   OH225758   3.019   5.459  14.707  0.1931 -0.2329  0.2557
 1448TIP3    H125759   3.019   5.398  14.633  0.5979  0.8318 -0.6601
 1448TIP3    H225760   2.930   5.456  14.741 -0.9496  1.5443 -2.2697
 1449TIP3   OH225761   4.658   2.242   3.134  0.1880  0.7789  0.4351
 1449TIP3    H125762   4.734   2.289   3.170  0.8924 -0.0794  0.0835
 1449TIP3    H225763   4.678   2.150   3.148 -0.1696  0.4842 -0.8995
 1450TIP3   OH225764   5.024   2.291   0.658 -0.5776 -0.4239  0.0688
 1450TIP3    H125765   5.089   2.244   0.710 -1.0377 -2.1125 -0.8119
 1450TIP3    H225766   4.949   2.232   0.655 -1.1168  0.2935 -1.2345
 1451TIP3   OH225767   3.895   2.813  15.701 -0.0999 -0.0239 -0.1825
 1451TIP3    H125768   3.929   2.774  15.781  1.6147  0.4769 -0.6327
 1451TIP3    H225769   3.835   2.881  15.731 -1.9253 -1.8596  0.6179
 1452TIP3   OH225770   1.812   5.942   5.944  0.0617  0.2788 -0.3961
 1452TIP3    H125771   1.834   5.852   5.919  2.4437 -0.0927  2.5324
 1452TIP3    H225772   1.868   5.996   5.890 -1.1055  0.0485 -1.9008
 1453TIP3   OH225773   0.184   5.665  12.211 -0.4407  0.3202 -0.6534
 1453TIP3    H125774   0.157   5.751  12.242  0.0697  0.2246  0.0943
 1453TIP3    H225775   0.125   5.604  12.257  1.2617  0.0745  1.3906
 1454TIP3   OH225776   4.589   1.781  15.767 -0.0166  0.3618 -0.2585
 1454TIP3    H125777   4.657   1.744  15.711 -0.4965 -1.5116  0.3331
 1454TIP3    H225778   4.507   1.762  15.721 -0.3470 -0.2988  0.5871
 1455TIP3   OH225779   1.969   2.806  10.318  0.0803 -0.1944  0.1071
 1455TIP3    H125780   1.877   2.801  10.343  0.2253 -1.2246  0.4744
 1455TIP3    H225781   1.968   2.831  10.226 -0.5711 -0.3998  0.0555
 1456TIP3   OH225782   2.338   1.577  11.152 -0.1889  0.5409  0.3851
 1456TIP3    H125783   2.396   1.513  11.111 -0.3152  0.2549  0.6527
 1456TIP3    H225784   2.315   1.538  11.237 -0.1708  0.9899  0.5996
 1457TIP3   OH225785   3.877   0.674   4.397  0.3240  0.3434  0.2667
 1457TIP3    H125786   3.917   0.590   4.378 -0.5834  0.2444 -1.3743
 1457TIP3    H225787   3.908   0.732   4.328  1.6268  1.6274  1.8545
 1458TIP3   OH225788   1.944   1.454   5.867 -0.2240 -0.1128  0.3675
 1458TIP3    H125789   1.921   1.512   5.795 -1.1761 -0.0292  0.7306
 1458TIP3    H225790   1.861   1.415   5.895  0.0964 -0.0014  1.5351
 1459TIP3   OH225791   3.295   2.217  14.290  0.4127 -0.4379  0.2488
 1459TIP3    H125792   3.380   2.258  14.274 -0.1645  0.7774  0.1537
 1459TIP3    H225793   3.257   2.206  14.203 -0.3369  0.8837  0.3718
 1460TIP3   OH225794   4.273   0.419  15.703 -0.4899  0.4389  0.3888
 1460TIP3    H125795   4.233   0.418  15.616 -0.7904 -3.4190  0.4127
 1460TIP3    H225796   4.224   0.487  15.751 -3.3249 -0.3039 -1.1959
 1461TIP3   OH225797   0.383   4.933   2.694 -0.3577  0.0417 -0.2963
 1461TIP3    H125798   0.345   4.925   2.782  0.6803 -1.4372  0.0704
 1461TIP3    H225799   0.470   4.892   2.703 -0.1908 -0.0147 -1.9791
 1462TIP3   OH225800   6.355   4.584   6.083 -0.3778 -0.1169 -0.0669
 1462TIP3    H125801   6.393   4.499   6.104 -0.3479 -0.3800 -1.1305
 1462TIP3    H225802   6.350   4.630   6.168  0.9094 -0.6371  0.3190
 1463TIP3   OH225803   3.620   1.453   3.853 -0.2437 -0.4571  0.0771
 1463TIP3    H125804   3.527   1.439   3.839 -0.2123 -3.2011  1.8850
 1463TIP3    H225805   3.663   1.401   3.786 -0.0321 -0.9279  0.5740
 1464TIP3   OH225806   5.571   2.433   0.472 -0.0200 -0.0024 -0.0662
 1464TIP3    H125807   5.657   2.459   0.440  0.6175  0.6814  2.0330
 1464TIP3    H225808   5.586   2.412   0.564 -2.2178  0.7371  0.5090
 1465TIP3   OH225809   5.554   3.184  17.341  0.4285  0.5435 -0.3130
 1465TIP3    H125810   5.646   3.161  17.329 -0.3493 -2.7070 -1.1242
 1465TIP3    H225811   5.533   3.240  17.267  1.1809 -0.7895 -1.5812
 1466TIP3   OH225812   6.266   2.784  16.062 -0.0772  0.1458 -0.4445
 1466TIP3    H125813   6.308   2.860  16.102 -1.3381  1.4961 -1.5335
 1466TIP3    H225814   6.178   2.783  16.100 -0.4993  0.0205 -1.4058
 1467TIP3   OH225815   1.928   4.615   5.006 -0.1833  0.1591  0.0797
 1467TIP3    H125816   1.898   4.660   5.085 -0.3140 -0.4190  0.3650
 1467TIP3    H225817   1.970   4.683   4.953 -0.8920  0.7252  0.2415
 1468TIP3   OH225818   5.273   1.635   6.386  0.3564 -0.5126 -1.1556
 1468TIP3    H125819   5.184   1.610   6.360 -0.7230  0.4474  1.3271
 1468TIP3    H225820   5.279   1.611   6.478  1.9732  1.2369 -0.7396
 1469TIP3   OH225821   6.180   2.895  13.466 -0.1013 -0.0183  0.0770
 1469TIP3    H125822   6.178   2.921  13.558 -0.6644  1.6262 -0.3591
 1469TIP3    H225823   6.088   2.891  13.440  0.0628  0.0218 -0.5376
 1470TIP3   OH225824   2.387   3.377   0.213 -0.9400  0.4111  0.2537
 1470TIP3    H125825   2.454   3.364   0.147 -0.3942  0.0144  0.8760
 1470TIP3    H225826   2.374   3.290   0.252  0.1980  0.9745  2.0367
 1471TIP3   OH225827   5.293   0.745  17.104 -0.3761 -0.0770 -0.5199
 1471TIP3    H125828   5.352   0.671  17.119 -0.2804 -0.1165 -1.0877
 1471TIP3    H225829   5.286   0.752  17.009 -0.6095  0.4678 -0.4688
 1472TIP3   OH225830   1.497   3.530  17.550  0.4769  0.0359 -0.5596
 1472TIP3    H125831   1.433   3.587  17.592  0.4724  0.5811 -1.3006
 1472TIP3    H225832   1.577   3.541  17.601 -0.7639 -3.1096  2.4782
 1473TIP3   OH225833   0.742   2.999  14.068  0.8164  0.6338 -0.1831
 1473TIP3    H125834   0.771   3.069  14.126  2.0237 -0.8626  1.0837
 1473TIP3    H225835   0.655   2.975  14.100  1.0560  0.4982  0.3676
 1474TIP3   OH225836   2.446   0.746  10.654  0.4989  0.3498  0.4119
 1474TIP3    H125837   2.409   0.711  10.573  2.5819  1.5932 -1.1835
 1474TIP3    H225838   2.504   0.676  10.685  1.9296  0.9412 -0.8221
 1475TIP3   OH225839   6.525   0.029   4.788  0.1950 -0.0273 -0.3452
 1475TIP3    H125840   6.451  -0.026   4.763 -0.4918  1.8421 -2.8331
 1475TIP3    H225841   6.563  -0.015   4.863 -2.6079 -1.7980  0.1934
 1476TIP3   OH225842   2.287   5.572  16.111  0.2411  0.5202  0.3157
 1476TIP3    H125843   2.243   5.577  16.026  0.1049  2.7346  0.4772
 1476TIP3    H225844   2.242   5.500  16.156 -2.0745  1.5438 -0.1968
 1477TIP3   OH225845   1.391   1.646  15.773  0.3166  0.2030  0.0030
 1477TIP3    H125846   1.306   1.612  15.746 -0.0402 -0.0005  1.3066
 1477TIP3    H225847   1.386   1.740  15.757 -0.7560  0.4336  1.4988
 1478TIP3   OH225848   0.852   5.281   1.751  0.1390  0.1724  0.1686
 1478TIP3    H125849   0.789   5.243   1.813  2.6410 -1.6414  1.7744
 1478TIP3    H225850   0.902   5.344   1.803  0.9155  0.1534 -0.5388
 1479TIP3   OH225851   0.861   1.970  16.438 -0.0933 -0.1594 -0.3047
 1479TIP3    H125852   0.811   1.982  16.357 -0.0896  1.4493 -0.0991
 1479TIP3    H225853   0.905   2.054  16.451  1.5806 -1.0839  0.2639
 1480TIP3   OH225854   4.948   4.748   2.400  0.0697 -0.1495  0.5397
 1480TIP3    H125855   4.988   4.668   2.433  1.3617  0.1549 -0.2287
 1480TIP3    H225856   4.872   4.762   2.456 -0.5009 -2.1928  0.3541
 1481TIP3   OH225857   4.256   3.081   1.748  0.0404 -0.3432 -0.2781
 1481TIP3    H125858   4.230   3.139   1.819  0.2415 -1.0760  0.4102
 1481TIP3    H225859   4.293   3.004   1.792 -1.5216 -1.6248 -1.1069
 1482TIP3   OH225860   1.851   5.918  14.146  0.3686  0.8246 -0.5123
 1482TIP3    H125861   1.874   5.825  14.146  0.6524  0.8934 -0.4223
 1482TIP3    H225862   1.812   5.933  14.233  2.3875  1.2820  0.3732
 1483TIP3   OH225863   5.682   4.018  11.576 -0.0443  0.2303  0.0767
 1483TIP3    H125864   5.682   4.083  11.646  0.9843  0.4873 -0.1437
 1483TIP3    H225865   5.634   4.061  11.504  1.0157  0.9527 -0.2297
 1484TIP3   OH225866   5.571   5.762   2.048  0.1084  0.1694 -0.1537
 1484TIP3    H125867   5.543   5.671   2.035  2.7532 -0.7673 -0.0297
 1484TIP3    H225868   5.571   5.773   2.144 -0.4422  0.4056 -0.1760
 1485TIP3   OH225869   2.951   5.115  14.898  0.0007 -0.1966  0.8631
 1485TIP3    H125870   2.934   5.176  14.970  1.3201 -0.8457  1.7667
 1485TIP3    H225871   3.031   5.148  14.856  0.0089 -0.5960  0.5599
 1486TIP3   OH225872   3.751   6.634  11.752 -0.1181 -0.1782  0.1731
 1486TIP3    H125873   3.805   6.557  11.734  0.8934  0.9112 -1.8096
 1486TIP3    H225874   3.813   6.708  11.750 -1.3091  0.8597  0.2489
 1487TIP3   OH225875   0.421   4.448  14.510  0.3804 -0.2561 -0.1414
 1487TIP3    H125876   0.487   4.407  14.455  2.0581  1.9360  0.1104
 1487TIP3    H225877   0.468   4.474  14.589 -0.5931  1.8573 -0.1827
 1488TIP3   OH225878   5.004   0.095   5.913 -0.7411 -0.2441 -0.7459
 1488TIP3    H125879   5.004   0.020   5.972  1.2935  0.9330  0.8822
 1488TIP3    H225880   5.055   0.067   5.838  0.3197 -0.4023  0.0195
 1489TIP3   OH225881   1.456   0.061   5.572 -0.1468  0.6016 -0.3539
 1489TIP3    H125882   1.494  -0.026   5.587  0.3384  0.9241  0.3495
 1489TIP3    H225883   1.445   0.066   5.477  2.3985  0.8163 -0.7035
 1490TIP3   OH225884   4.848   1.176  12.763  0.0842 -0.5017  0.3705
 1490TIP3    H125885   4.854   1.148  12.671  0.4243  0.7683 -0.0334
 1490TIP3    H225886   4.791   1.112  12.805 -0.8425 -0.5884 -0.9494
 1491TIP3   OH225887   5.532   4.325  10.872 -0.2279  0.4354 -0.3094
 1491TIP3    H125888   5.449   4.367  10.851 -0.9333  0.7626  2.7561
 1491TIP3    H225889   5.595   4.397  10.877 -0.2758  0.4742 -0.2680
 1492TIP3   OH225890   0.820   3.129  15.748 -0.1614 -0.6534 -0.0157
 1492TIP3    H125891   0.881   3.192  15.787  0.2300 -2.0220  1.6866
 1492TIP3    H225892   0.739   3.179  15.738  0.2569  0.2478  0.8869
 1493TIP3   OH225893   0.244   4.685   5.306 -0.4172  0.1614  0.4965
 1493TIP3    H125894   0.250   4.606   5.360  0.2237  0.2930  0.6259
 1493TIP3    H225895   0.152   4.690   5.281 -0.1786 -1.5198 -0.8555
 1494TIP3   OH225896   3.623   1.675  17.297  0.7849 -0.7262  0.1439
 1494TIP3    H125897   3.558   1.616  17.337  1.1154 -2.6413 -1.9594
 1494TIP3    H225898   3.696   1.618  17.274  1.5974  0.7227 -0.9980
 1495TIP3   OH225899   1.024   2.600   0.892 -0.7528  0.1730  0.2642
 1495TIP3    H125900   0.932   2.620   0.877 -0.8527  0.4624  1.2224
 1495TIP3    H225901   1.025   2.549   0.973  0.0838  1.7184  1.2772
 1496TIP3   OH225902   0.101   6.431  17.506  1.0011 -0.8456  0.0008
 1496TIP3    H125903   0.072   6.487  17.433  1.4045 -0.3383  0.2227
 1496TIP3    H225904   0.179   6.474  17.539  0.4246 -0.6855  1.1855
 1497TIP3   OH225905   0.611   5.941  16.592  0.4332  0.4349  0.1133
 1497TIP3    H125906   0.693   5.984  16.568  1.5204 -0.7336  1.5463
 1497TIP3    H225907   0.618   5.927  16.686 -0.5207 -1.4635 -0.0495
 1498TIP3   OH225908   0.190   0.013  14.651 -0.2043 -0.9553  0.2073
 1498TIP3    H125909   0.232  -0.068  14.679 -1.6049 -2.0225 -0.6869
 1498TIP3    H225910   0.256   0.057  14.598  0.7220 -1.2712  1.0601
 1499TIP3   OH225911   0.881   5.569  15.919  0.3014 -0.2394 -0.3122
 1499TIP3    H125912   0.951   5.557  15.855  0.8399  0.2451  0.1697
 1499TIP3    H225913   0.927   5.589  16.001 -0.4214  1.7614 -0.3441
 1500TIP3   OH225914   1.067   6.195  13.916  0.3863 -0.5731  0.2237
 1500TIP3    H125915   1.118   6.263  13.873  0.9385 -1.1240 -0.0049
 1500TIP3    H225916   1.122   6.165  13.988  0.7519 -1.7402 -0.5180
 1501TIP3   OH225917   2.059   3.676  13.118  0.2521  0.2844  0.1352
 1501TIP3    H125918   2.023   3.645  13.035  0.1374  0.2395  0.2016
 1501TIP3    H225919   2.151   3.692  13.100  0.5069 -0.8647  0.2954
 1502TIP3   OH225920   0.283   0.055   4.791 -0.1383 -0.0937  0.1566
 1502TIP3    H125921   0.193   0.086   4.790  0.2709  1.1577 -0.2432
 1502TIP3    H225922   0.280  -0.029   4.838 -1.7185 -0.7784 -1.0778
 1503TIP3   OH225923   5.402   4.109  15.106  0.2438  0.2112  0.3417
 1503TIP3    H125924   5.450   4.182  15.068 -0.6844  0.0825 -1.1425
 1503TIP3    H225925   5.414   4.037  15.044 -1.8088  0.1726 -0.0935
 1504TIP3   OH225926   2.067   2.892   3.411 -0.1986 -0.0304 -0.0080
 1504TIP3    H125927   2.077   2.982   3.441  3.5565 -0.1557 -0.4946
 1504TIP3    H225928   2.088   2.895   3.317 -0.2930 -1.3751 -0.1000
 1505TIP3   OH225929   6.511   5.225  10.842  0.5549 -0.2164  0.0870
 1505TIP3    H125930   6.469   5.285  10.903  0.9347 -0.9128  1.0453
 1505TIP3    H225931   6.439   5.187  10.792  0.2468  0.3625  0.0875
 1506TIP3   OH225932   4.288   0.871   4.255  0.7437 -0.0152  0.2388
 1506TIP3    H125933   4.361   0.888   4.196 -0.2619 -2.5462 -1.9306
 1506TIP3    H225934   4.330   0.844   4.337  2.1746  1.4864  0.0519
 1507TIP3   OH225935   1.981   6.145  17.131  0.2034 -0.0683  0.1078
 1507TIP3    H125936   2.020   6.146  17.043  1.4883  2.3102  0.6235
 1507TIP3    H225937   2.024   6.217  17.177 -2.7418  0.8313  1.6848
 1508TIP3   OH225938   2.542   6.519   4.923  0.1193 -0.5227  0.3945
 1508TIP3    H125939   2.555   6.568   5.004  0.7221 -1.1413  0.6914
 1508TIP3    H225940   2.496   6.579   4.865 -0.3901 -0.0972  1.2246
 1509TIP3   OH225941   5.818   0.804   3.866 -0.5426  0.3739 -0.0702
 1509TIP3    H125942   5.837   0.710   3.870 -1.2500  0.2105 -0.3340
 1509TIP3    H225943   5.891   0.845   3.912 -0.6845 -0.3668  0.8582
 1510TIP3   OH225944   1.559   5.590  13.031  0.2095  0.1905 -0.0601
 1510TIP3    H125945   1.617   5.600  13.107  0.3328  0.8348 -0.2281
 1510TIP3    H225946   1.582   5.664  12.974 -1.5515  1.1387  0.3882
 1511TIP3   OH225947   4.760   3.791   3.365  0.3726  0.3830 -0.1288
 1511TIP3    H125948   4.732   3.700   3.354 -0.2899  0.4642  0.7514
 1511TIP3    H225949   4.708   3.840   3.302 -0.6171  0.3771  0.6647
 1512TIP3   OH225950   0.925   3.036   4.849  0.3776  0.5823 -0.2370
 1512TIP3    H125951   0.988   3.066   4.915 -0.3902  2.2779 -0.2044
 1512TIP3    H225952   0.978   3.000   4.779  1.2179 -1.2998  1.2931
 1513TIP3   OH225953   3.649   3.389  14.509  0.3633 -0.2511 -0.3347
 1513TIP3    H125954   3.726   3.445  14.518  1.5494 -1.7975 -0.5212
 1513TIP3    H225955   3.575   3.450  14.512  1.6120  1.4018 -1.3186
 1514TIP3   OH225956   6.133   0.596  14.628 -0.3163  0.4218 -0.7313
 1514TIP3    H125957   6.165   0.542  14.557 -0.9244 -1.4773  0.3731
 1514TIP3    H225958   6.135   0.539  14.705 -1.8244  1.6893  0.3168
 1515TIP3   OH225959   1.545   6.387  15.914 -0.3387  0.3077 -0.5039
 1515TIP3    H125960   1.487   6.437  15.858 -2.2740 -1.3854 -0.1357
 1515TIP3    H225961   1.503   6.301  15.922  1.9906 -0.8786  0.1682
 1516TIP3   OH225962   2.475   6.350   3.592  0.0891  0.0102 -0.1622
 1516TIP3    H125963   2.434   6.398   3.520 -1.6239 -0.5279  0.3895
 1516TIP3    H225964   2.511   6.417   3.649 -0.1897  0.5175 -0.5743
 1517TIP3   OH225965   4.939   0.141   2.662 -0.3469 -0.3121 -0.0212
 1517TIP3    H125966   4.995   0.064   2.665 -0.4831 -0.4322 -0.3879
 1517TIP3    H225967   4.945   0.179   2.749  0.0152 -0.5276  0.0515
 1518TIP3   OH225968   3.382   3.763  17.400  0.0951  0.6352 -0.3202
 1518TIP3    H125969   3.397   3.820  17.325 -2.9916 -0.0824 -1.6169
 1518TIP3    H225970   3.294   3.729  17.388  1.0600 -2.9737  1.3648
 1519TIP3   OH225971   5.748   2.523  17.467  0.3498 -0.0742  0.0345
 1519TIP3    H125972   5.718   2.610  17.494  0.3736 -0.2062  0.4865
 1519TIP3    H225973   5.774   2.535  17.375 -2.0651 -0.1824 -0.7325
 1520TIP3   OH225974   4.867   4.536   6.160  0.3155  0.6964 -0.1155
 1520TIP3    H125975   4.866   4.534   6.255  0.0358 -0.5518 -0.1329
 1520TIP3    H225976   4.775   4.527   6.134  0.4430  0.4701 -0.5070
 1521TIP3   OH225977   0.724   3.610  15.723  0.3768  0.5372 -0.5978
 1521TIP3    H125978   0.790   3.555  15.680  0.3054 -0.1306  0.1188
 1521TIP3    H225979   0.730   3.694  15.678  0.6797  0.0295 -1.5388
 1522TIP3   OH225980   5.987   4.515   6.284 -0.2072  0.0136 -0.2139
 1522TIP3    H125981   6.044   4.439   6.298 -0.0625 -0.0465 -1.0505
 1522TIP3    H225982   6.029   4.562   6.212 -0.1830  1.0037  0.4339
 1523TIP3   OH225983   1.597   6.518  13.911  0.0717 -0.2954 -0.4994
 1523TIP3    H125984   1.619   6.483  13.997  0.5415 -2.1243 -1.3146
 1523TIP3    H225985   1.572   6.609  13.927  1.1996 -0.2821  1.4220
 1524TIP3   OH225986   2.252   3.508  17.237  0.8367  0.5550  0.1305
 1524TIP3    H125987   2.159   3.508  17.258  0.8945  0.7756  0.3881
 1524TIP3    H225988   2.266   3.426  17.191  0.0126  1.5973 -2.1211
 1525TIP3   OH225989   0.547   4.989  15.479 -0.0853 -0.4069 -0.0103
 1525TIP3    H125990   0.531   4.980  15.573 -0.4828  0.2658 -0.0087
 1525TIP3    H225991   0.592   4.908  15.455  1.0894 -0.0773  0.9695
 1526TIP3   OH225992   6.104   4.548   3.181 -0.5147  0.0738  0.0873
 1526TIP3    H125993   6.013   4.537   3.207 -1.0134 -0.5205 -1.7559
 1526TIP3    H225994   6.131   4.630   3.222 -1.3074 -0.6027  2.0940
 1527TIP3   OH225995   2.632   2.323  14.377  0.0018 -0.5666  0.1698
 1527TIP3    H125996   2.605   2.356  14.291 -1.0988  0.6882  0.9547
 1527TIP3    H225997   2.697   2.386  14.408  1.1475 -1.5614 -0.1358
 1528TIP3   OH225998   0.414   2.614  10.371 -0.2645 -0.6114 -0.4792
 1528TIP3    H125999   0.347   2.547  10.383 -0.9386  0.0573 -0.4398
 1528TIP3    H226000   0.496   2.565  10.363 -0.8018 -1.4597 -0.9106
 1529TIP3   OH226001   2.647   5.214   3.113 -0.4190 -0.2747 -0.2244
 1529TIP3    H126002   2.641   5.127   3.074  0.4098  0.3900 -1.9369
 1529TIP3    H226003   2.658   5.273   3.039 -2.0637  1.4456  0.8216
 1530TIP3   OH226004   2.910   2.595  17.176  0.3305  0.3039  0.2700
 1530TIP3    H126005   3.002   2.574  17.188  0.5905  0.2242 -1.5710
 1530TIP3    H226006   2.889   2.654  17.249  2.1391  1.2602  0.0650
 1531TIP3   OH226007   3.150   1.301   0.042  0.1335  0.1422 -0.5542
 1531TIP3    H126008   3.181   1.378  -0.004  2.5114  0.4738  1.4044
 1531TIP3    H226009   3.225   1.272   0.094 -1.4933 -1.9106  0.8289
 1532TIP3   OH226010   6.427   3.061   1.125 -0.1042  0.3753  0.2537
 1532TIP3    H126011   6.494   2.993   1.130  0.6266  0.9379 -1.1819
 1532TIP3    H226012   6.454   3.127   1.189 -1.1606 -0.9231  2.1131
 1533TIP3   OH226013   2.387   0.812   3.483  0.0393 -0.1838  0.1920
 1533TIP3    H126014   2.442   0.881   3.446 -0.7250  0.0115 -0.6263
 1533TIP3    H226015   2.381   0.747   3.414 -2.1752  0.6113 -0.4463
 1534TIP3   OH226016   5.425   4.615   0.899  0.0316 -0.1455 -0.2846
 1534TIP3    H126017   5.330   4.607   0.907 -0.0798  0.9124 -0.3957
 1534TIP3    H226018   5.451   4.663   0.977  0.8105 -2.5435  1.0235
 1535TIP3   OH226019   6.362   0.717   3.190  0.6283  0.1545  0.5200
 1535TIP3    H126020   6.391   0.646   3.133 -2.7867 -3.4698  2.8093
 1535TIP3    H226021   6.440   0.740   3.240  1.8699 -2.1261 -0.2238
 1536TIP3   OH226022   5.904   4.294   4.962 -0.5745  0.1647 -0.0727
 1536TIP3    H126023   5.958   4.225   4.999 -0.9987  1.1259  2.5652
 1536TIP3    H226024   5.830   4.249   4.921 -0.3526 -0.9819  0.7595
 1537TIP3   OH226025   0.398   0.512   4.889  0.7085  0.1794  0.0002
 1537TIP3    H126026   0.425   0.553   4.971 -0.6677 -0.9105  1.0583
 1537TIP3    H226027   0.309   0.544   4.874  0.4118 -0.7587 -0.2910
 1538TIP3   OH226028   6.365   6.415  12.860 -0.1385 -0.1492  0.4264
 1538TIP3    H126029   6.292   6.452  12.910 -0.3966 -0.0528 -0.0150
 1538TIP3    H226030   6.323   6.361  12.793  0.1191  1.1540 -0.8459
 1539TIP3   OH226031   6.536   4.220  14.764  0.1751  0.7266  0.1193
 1539TIP3    H126032   6.566   4.304  14.799  3.3403  0.3346 -1.3050
 1539TIP3    H226033   6.541   4.160  14.838  2.5730  0.8349  0.1302
 1540TIP3   OH226034   2.024   4.376   0.608  0.1852 -0.2920 -0.2915
 1540TIP3    H126035   2.108   4.405   0.571  0.0235  1.0302  0.2943
 1540TIP3    H226036   1.985   4.457   0.641 -1.2446 -0.9262 -0.3916
 1541TIP3   OH226037   0.574   0.952  11.375  0.1370 -0.1506 -0.0070
 1541TIP3    H126038   0.604   0.958  11.284  1.3278  0.7617  0.4076
 1541TIP3    H226039   0.568   0.858  11.392 -0.9383 -0.3357 -1.2720
 1542TIP3   OH226040   1.301   2.834  17.086 -0.5459  0.5467 -0.1472
 1542TIP3    H126041   1.242   2.799  17.020 -0.1808 -2.2105  0.8600
 1542TIP3    H226042   1.388   2.807  17.058 -0.2108  0.9184  0.5114
 1543TIP3   OH226043   6.427   1.282  14.789 -0.3535  0.6204  0.0911
 1543TIP3    H126044   6.386   1.324  14.713 -0.0400  2.0389  0.6688
 1543TIP3    H226045   6.496   1.343  14.815 -0.0119 -0.1774  1.0998
 1544TIP3   OH226046   3.152   2.620  16.802 -0.3566  0.3885  0.3554
 1544TIP3    H126047   3.082   2.686  16.799  0.2300  0.9899 -0.6289
 1544TIP3    H226048   3.163   2.593  16.711  0.4099 -0.0115  0.5628
 1545TIP3   OH226049   2.391   6.612   2.406 -0.5504 -0.3442  0.1500
 1545TIP3    H126050   2.302   6.611   2.370 -0.3835  1.0215 -0.3451
 1545TIP3    H226051   2.422   6.701   2.391  1.5922 -1.2860 -1.3514
 1546TIP3   OH226052   1.947   5.021  12.702 -0.5699  0.0307 -0.1948
 1546TIP3    H126053   1.972   4.970  12.778  0.6104  0.8591 -0.0049
 1546TIP3    H226054   1.892   5.092  12.737 -1.3775 -0.5136 -0.3337
 1547TIP3   OH226055   1.419   4.477  15.601 -0.0603 -0.3992 -0.2503
 1547TIP3    H126056   1.425   4.433  15.516 -0.7198  1.0082 -1.0548
 1547TIP3    H226057   1.384   4.563  15.581  1.5277  0.6589  1.2361
 1548TIP3   OH226058   0.286   3.576  15.487  0.5943 -1.0576 -0.1279
 1548TIP3    H126059   0.245   3.490  15.495 -0.6208 -0.2997  3.3309
 1548TIP3    H226060   0.212   3.637  15.482  1.3311  0.0195  1.4647
 1549TIP3   OH226061   3.220   3.081   5.905  0.6324 -0.2348 -0.0797
 1549TIP3    H126062   3.201   3.072   5.811  0.1601  0.1897 -0.0319
 1549TIP3    H226063   3.134   3.090   5.946  0.8158 -0.8667  0.4496
 1550TIP3   OH226064   5.178   2.381   4.599 -0.6381 -0.4134  0.1556
 1550TIP3    H126065   5.173   2.286   4.610 -1.2645 -0.3739  0.2640
 1550TIP3    H226066   5.102   2.415   4.647 -1.5605 -0.0027 -1.5132
 1551TIP3   OH226067   0.293   5.501   1.325  0.4346  0.9393 -0.2753
 1551TIP3    H126068   0.325   5.502   1.415  0.0046  0.4726 -0.1117
 1551TIP3    H226069   0.218   5.560   1.326  1.3049  2.0883 -0.6747
 1552TIP3   OH226070   3.001   3.130  14.713  0.2931 -0.9497  0.3720
 1552TIP3    H126071   3.025   3.166  14.628  0.5083 -1.3714  0.2497
 1552TIP3    H226072   2.907   3.111  14.706  0.1076 -0.1387  0.5449
 1553TIP3   OH226073   4.634   6.330   5.218 -0.9842 -0.0959  0.3865
 1553TIP3    H126074   4.704   6.313   5.154 -0.3874 -0.4152  1.1063
 1553TIP3    H226075   4.610   6.421   5.204  0.0006  0.1962  0.5232
 1554TIP3   OH226076   4.839   0.644  12.095 -0.2777 -0.6584 -0.1651
 1554TIP3    H126077   4.771   0.579  12.081 -0.1033 -1.9065  3.6122
 1554TIP3    H226078   4.791   0.723  12.122 -0.3492 -0.8571  0.3089
 1555TIP3   OH226079   2.445   6.252   4.145 -0.4123  0.4433 -0.2098
 1555TIP3    H126080   2.357   6.279   4.170  0.3162  1.0838  1.8599
 1555TIP3    H226081   2.483   6.217   4.225  0.9562 -0.5864 -1.2614
 1556TIP3   OH226082   6.702   4.587  17.600 -0.0824  0.0962 -0.7443
 1556TIP3    H126083   6.772   4.547  17.548  0.4125 -2.4630  1.6348
 1556TIP3    H226084   6.749   4.638  17.667 -0.2187 -2.8379  1.8007
 1557TIP3   OH226085   5.519   0.732  14.465 -0.2851  0.4855  0.2430
 1557TIP3    H126086   5.452   0.712  14.531  0.4386 -0.1306  0.8077
 1557TIP3    H226087   5.577   0.794  14.509  0.2904 -0.0505  0.2482
 1558TIP3   OH226088   1.962   0.984   1.206 -0.5414 -0.0225 -0.7951
 1558TIP3    H126089   2.053   0.955   1.215 -0.4111  0.3133 -1.0066
 1558TIP3    H226090   1.919   0.915   1.157 -1.0858 -1.5596  1.6567
 1559TIP3   OH226091   1.549   6.702  12.397  0.1053 -0.6782 -1.0338
 1559TIP3    H126092   1.467   6.720  12.351 -0.0393  2.0000  0.1096
 1559TIP3    H226093   1.617   6.723  12.333 -0.0915 -0.9923 -1.3510
 1560TIP3   OH226094   2.173   0.495   4.894 -0.0360 -0.0295 -0.3033
 1560TIP3    H126095   2.153   0.402   4.894  0.6949 -0.2343 -2.1718
 1560TIP3    H226096   2.094   0.538   4.863 -0.2335 -0.0609  0.1532
 1561TIP3   OH226097   2.200   3.768   0.253  0.4261  0.0874 -0.6796
 1561TIP3    H126098   2.207   3.684   0.208 -1.1717  0.2172 -1.2291
 1561TIP3    H226099   2.290   3.793   0.272  0.9779 -1.2532 -1.4268
 1562TIP3   OH226100   2.233   6.185  14.510 -0.1317  0.1339 -0.2988
 1562TIP3    H126101   2.181   6.131  14.450  0.3842 -0.5899 -0.1172
 1562TIP3    H226102   2.168   6.229  14.564 -0.5797 -0.0764 -0.6549
 1563TIP3   OH226103   1.385   0.413   0.211 -0.0410  0.0690 -0.3891
 1563TIP3    H126104   1.385   0.389   0.303  1.0918 -2.1858 -0.9001
 1563TIP3    H226105   1.464   0.373   0.175  0.2513  1.9821 -2.1090
 1564TIP3   OH226106   3.333   1.329   3.137 -0.0369 -0.2324  0.1861
 1564TIP3    H126107   3.274   1.387   3.088 -0.7618  0.2649  1.6061
 1564TIP3    H226108   3.416   1.376   3.138 -0.1192 -0.0676 -0.2253
 1565TIP3   OH226109   0.858   3.420   3.140 -0.1857  0.6871  0.1778
 1565TIP3    H126110   0.883   3.374   3.060 -2.2605  1.8258 -1.2091
 1565TIP3    H226111   0.896   3.507   3.132  0.1868  0.5921  0.7974
 1566TIP3   OH226112   5.707   5.547  12.056  0.9022 -0.9931 -0.0982
 1566TIP3    H126113   5.773   5.616  12.051 -0.2134  0.0158 -1.8809
 1566TIP3    H226114   5.627   5.593  12.081  0.3023 -1.7515 -0.5768
 1567TIP3   OH226115   4.220   1.109  13.793  0.0681  0.3436  0.4009
 1567TIP3    H126116   4.146   1.055  13.763 -0.7175  1.2344  0.6685
 1567TIP3    H226117   4.294   1.048  13.796 -0.1744 -0.1591 -1.7549
 1568TIP3   OH226118   3.759   2.038  10.754 -0.1783 -0.5016 -0.0062
 1568TIP3    H126119   3.837   1.998  10.715 -0.2156  0.9571 -1.6825
 1568TIP3    H226120   3.738   1.981  10.828  0.8864 -2.4624 -1.1220
 1569TIP3   OH226121   5.585   5.840   2.309 -0.0022  0.1412  0.1134
 1569TIP3    H126122   5.552   5.759   2.346  1.6755 -0.5214  0.2549
 1569TIP3    H226123   5.586   5.901   2.383 -0.9922  0.2317  0.0686
 1570TIP3   OH226124   5.991   2.398  17.552 -0.1041 -0.5586 -0.2516
 1570TIP3    H126125   5.918   2.444  17.511  1.8207  1.6669 -1.3939
 1570TIP3    H226126   6.068   2.450  17.530  1.9484 -3.1234  0.3993
 1571TIP3   OH226127   0.412   2.819  13.692  0.3110  0.2930 -0.3900
 1571TIP3    H126128   0.444   2.840  13.779  2.8291 -1.9734 -0.6328
 1571TIP3    H226129   0.406   2.904  13.647  1.7498  1.2261  1.0966
 1572TIP3   OH226130   3.611   2.238   4.625 -0.7449  0.3487  0.2181
 1572TIP3    H126131   3.648   2.171   4.567 -0.0790  0.8515  0.0461
 1572TIP3    H226132   3.681   2.303   4.634 -1.6234  1.3909 -0.1962
 1573TIP3   OH226133   5.443   1.560   0.400  0.3135 -1.1086  0.5324
 1573TIP3    H126134   5.522   1.540   0.450  0.5479  0.6124  0.9276
 1573TIP3    H226135   5.443   1.655   0.393 -2.0523 -1.0082  1.0647
 1574TIP3   OH226136   6.134   2.549   2.103 -0.0317 -0.1317  0.4626
 1574TIP3    H126137   6.213   2.520   2.150 -0.8093  0.0482  1.9496
 1574TIP3    H226138   6.142   2.508   2.017  1.2412 -0.8592  0.8850
 1575TIP3   OH226139   0.504   0.708   5.059  0.0918 -0.1973  0.3543
 1575TIP3    H126140   0.464   0.790   5.031  0.5605  0.1991  0.8476
 1575TIP3    H226141   0.499   0.709   5.154 -1.7543 -1.6715  0.3450
 1576TIP3   OH226142   0.616   2.304   0.551  0.3437 -0.3268 -0.2607
 1576TIP3    H126143   0.670   2.227   0.568  1.2287  0.6499  1.6409
 1576TIP3    H226144   0.647   2.337   0.466  2.1598 -0.2949  0.3660
 1577TIP3   OH226145   1.508   4.937  13.127  0.2506 -0.0147  0.1706
 1577TIP3    H126146   1.555   4.932  13.044 -0.1488  0.6177 -0.1038
 1577TIP3    H226147   1.576   4.954  13.192  0.4584  0.4897 -0.1701
 1578TIP3   OH226148   0.452   0.597  15.427  0.1357  0.3200  0.2374
 1578TIP3    H126149   0.400   0.536  15.480  0.7886 -1.7782 -1.4212
 1578TIP3    H226150   0.543   0.578  15.450  0.3374  2.4072  1.4490
 1579TIP3   OH226151   3.667   1.885  10.955  0.2368 -0.6504  0.4742
 1579TIP3    H126152   3.660   1.792  10.937 -1.8651 -0.3404 -0.6578
 1579TIP3    H226153   3.651   1.892  11.050 -1.9214 -1.3091  0.2123
 1580TIP3   OH226154   2.670   4.494  15.423  0.2529 -0.5897  0.4149
 1580TIP3    H126155   2.743   4.453  15.377  2.5627  2.6440  0.8066
 1580TIP3    H226156   2.602   4.505  15.356  1.5105 -0.5561 -0.9079
 1581TIP3   OH226157   1.892   6.446   0.776 -0.3388 -0.2288 -0.2815
 1581TIP3    H126158   1.879   6.374   0.838 -1.1498  0.4300  0.3379
 1581TIP3    H226159   1.953   6.411   0.710 -1.4956 -1.8283 -0.5554
 1582TIP3   OH226160   6.565   2.453   1.855 -0.3500  0.0931  0.0106
 1582TIP3    H126161   6.633   2.519   1.868 -0.7846  0.2509  1.7027
 1582TIP3    H226162   6.483   2.499   1.871 -0.7536 -0.5010 -0.2960
 1583TIP3   OH226163   2.631   3.916  12.501 -0.2890 -0.5285  0.0868
 1583TIP3    H126164   2.587   3.987  12.547  2.1354 -0.3945  2.4689
 1583TIP3    H226165   2.568   3.845  12.500 -1.9594  0.8863 -0.3331
 1584TIP3   OH226166   1.151   1.875   2.360 -0.3429  0.2898  0.6032
 1584TIP3    H126167   1.097   1.906   2.433 -2.3522  2.5197 -1.6307
 1584TIP3    H226168   1.241   1.890   2.388 -1.0642  1.5455  2.4054
 1585TIP3   OH226169   2.218   1.345   3.977  0.1565  0.6033  0.4491
 1585TIP3    H126170   2.301   1.350   3.928 -0.2071 -1.3949 -0.5059
 1585TIP3    H226171   2.242   1.301   4.059 -0.2069 -2.1209 -0.7734
 1586TIP3   OH226172   5.303   4.859   4.021 -0.0418 -0.2362 -0.5298
 1586TIP3    H126173   5.323   4.767   4.035 -3.0306 -0.9616 -0.4620
 1586TIP3    H226174   5.330   4.902   4.102 -2.3967 -1.7981  1.2076
 1587TIP3   OH226175   1.028   5.542   0.085  0.1317  0.6528  0.7271
 1587TIP3    H126176   0.939   5.517   0.058  1.0588 -1.4447 -0.6630
 1587TIP3    H226177   1.025   5.638   0.092 -2.5403  0.5556  1.9903
 1588TIP3   OH226178   0.080   2.087  12.278  0.0624  0.0535  0.3890
 1588TIP3    H126179   0.079   2.019  12.345 -1.4874 -0.7022 -0.3514
 1588TIP3    H226180  -0.010   2.093  12.248  0.7564  0.1325 -1.8632
 1589TIP3   OH226181   4.633   0.126  16.395 -0.0975 -0.1127 -0.0292
 1589TIP3    H126182   4.571   0.072  16.347 -0.6222  0.4962 -0.0451
 1589TIP3    H226183   4.662   0.070  16.468  1.4874 -1.4365 -1.5664
 1590TIP3   OH226184   5.278   3.252   3.026 -0.4753 -0.0966 -0.1268
 1590TIP3    H126185   5.371   3.252   3.047 -0.6776 -1.7661  0.9665
 1590TIP3    H226186   5.274   3.280   2.935  1.2894 -2.0208 -0.8594
 1591TIP3   OH226187   5.809   3.990  12.953 -0.5175 -0.4580 -0.2622
 1591TIP3    H126188   5.777   3.924  13.015 -1.1983  0.4630  0.3903
 1591TIP3    H226189   5.834   3.940  12.876  0.3891 -1.6399  0.7609
 1592TIP3   OH226190   1.581   1.328  16.269 -0.0058 -0.1929 -0.1331
 1592TIP3    H126191   1.539   1.377  16.340  0.8845  1.5323 -0.7300
 1592TIP3    H226192   1.509   1.286  16.223 -0.8751  0.9058  0.1666
 1593TIP3   OH226193   5.626   0.176   2.425 -0.1177 -0.4544  0.5811
 1593TIP3    H126194   5.591   0.097   2.466  1.7633 -0.4806  2.2525
 1593TIP3    H226195   5.598   0.169   2.333 -1.1894 -2.3323  0.9912
 1594TIP3   OH226196   0.281   0.716  16.739  0.0572  0.1395 -0.3245
 1594TIP3    H126197   0.242   0.629  16.743 -0.6989  0.5205  1.1405
 1594TIP3    H226198   0.373   0.702  16.761 -0.0139 -0.3005 -0.3015
 1595TIP3   OH226199   3.237   5.766  11.277 -0.6514  0.3116  0.2248
 1595TIP3    H126200   3.195   5.809  11.352 -0.6744  0.7190 -0.0209
 1595TIP3    H226201   3.216   5.673  11.289  0.6999  0.1484  1.5995
 1596TIP3   OH226202   5.390   1.677  16.142  0.0658  0.1248 -0.0958
 1596TIP3    H126203   5.345   1.678  16.227  2.8049  0.6600  1.4466
 1596TIP3    H226204   5.352   1.752  16.095 -1.4897 -0.1716  0.6051
 1597TIP3   OH226205   3.309   1.041   2.177 -1.0578 -0.6712 -0.1085
 1597TIP3    H126206   3.233   1.098   2.168 -1.5631 -1.4037 -0.6265
 1597TIP3    H226207   3.384   1.095   2.154 -1.0514  0.9405  3.1604
 1598TIP3   OH226208   2.134   5.668  15.150 -1.3281  0.4916  0.5528
 1598TIP3    H126209   2.046   5.694  15.179 -2.2051  0.8354 -2.1283
 1598TIP3    H226210   2.160   5.736  15.088 -0.6787 -1.3666 -1.3298
 1599TIP3   OH226211   3.923   3.499   2.679  0.2077 -0.4445  0.3366
 1599TIP3    H126212   3.862   3.516   2.751 -0.1753 -0.8453  0.1121
 1599TIP3    H226213   4.009   3.516   2.717  0.1778 -2.6094  1.5167
 1600TIP3   OH226214   0.375   5.322   3.897  0.1802 -0.0290  0.1080
 1600TIP3    H126215   0.368   5.384   3.970 -2.0887  2.8175 -2.2733
 1600TIP3    H226216   0.456   5.348   3.852  0.0063  0.2498 -0.0499
 1601TIP3   OH226217   4.082   0.463   4.458 -0.5918 -0.2343 -0.1066
 1601TIP3    H126218   4.013   0.430   4.401  1.0840  1.3480 -3.3013
 1601TIP3    H226219   4.157   0.406   4.441 -0.5161 -0.8857  2.0390
 1602TIP3   OH226220   5.637   2.209   3.639 -0.0717  0.4287  0.4249
 1602TIP3    H126221   5.679   2.173   3.560 -0.1382 -0.8453  0.9419
 1602TIP3    H226222   5.582   2.138   3.671 -0.3188  1.0571  1.4296
 1603TIP3   OH226223   3.654   1.910   4.716  0.3099  0.1944 -0.0932
 1603TIP3    H126224   3.581   1.924   4.654  2.3231 -1.7246 -3.1717
 1603TIP3    H226225   3.709   1.987   4.704  1.0505 -0.4917 -1.3510
 1604TIP3   OH226226   1.113   4.613   3.890  0.0468 -0.1337  0.0089
 1604TIP3    H126227   1.118   4.573   3.977 -0.0600 -0.2451 -0.0355
 1604TIP3    H226228   1.046   4.563   3.845 -1.1309  1.0138  0.4316
 1605TIP3   OH226229   2.884   0.084   4.458 -0.1453  0.8108 -0.0240
 1605TIP3    H126230   2.834   0.137   4.396  2.6922  2.6035 -1.0014
 1605TIP3    H226231   2.898   0.141   4.533  1.0877  0.6962 -0.1402
 1606TIP3   OH226232   1.878   6.388  11.643  0.1655 -0.2636  0.0217
 1606TIP3    H126233   1.796   6.420  11.680  0.2554  0.3307 -0.2879
 1606TIP3    H226234   1.862   6.387  11.548  0.2138 -1.0059  0.0094
 1607TIP3   OH226235   2.040   5.195   2.247 -0.3072  0.3928 -0.4389
 1607TIP3    H126236   1.966   5.254   2.261  0.8693  1.6707  0.7270
 1607TIP3    H226237   2.063   5.166   2.335 -0.6578 -1.6036 -0.9661
 1608TIP3   OH226238   2.698   2.068  11.634  0.0319 -0.5667  0.4835
 1608TIP3    H126239   2.628   2.003  11.625 -1.2746  0.1268  4.0514
 1608TIP3    H226240   2.753   2.035  11.704  1.6529  0.3530 -0.2923
 1609TIP3   OH226241   5.464   1.317  15.705 -0.2255 -0.5226  0.2933
 1609TIP3    H126242   5.445   1.281  15.619  0.3175 -2.0920  0.7892
 1609TIP3    H226243   5.555   1.344  15.701 -0.5763  0.6826 -0.0155
 1610TIP3   OH226244   4.342   2.087  12.609  0.7336 -0.1488 -0.1548
 1610TIP3    H126245   4.281   2.140  12.660  0.1705  1.5745 -2.4388
 1610TIP3    H226246   4.424   2.091  12.658 -0.2689 -0.2404  1.5865
 1611TIP3   OH226247   0.831   0.120  16.850  0.2004  0.6545  0.2710
 1611TIP3    H126248   0.895   0.123  16.921 -1.0482  0.8870  1.4230
 1611TIP3    H226249   0.883   0.131  16.771  1.5532  1.1912  1.1903
 1612TIP3   OH226250   4.615   6.154  17.397  0.1117 -0.0134 -0.4362
 1612TIP3    H126251   4.659   6.238  17.409  3.5760 -1.6438 -0.4249
 1612TIP3    H226252   4.591   6.127  17.486  0.5933  0.1970 -0.2364
 1613TIP3   OH226253   2.032   1.877  12.221  0.1517 -0.8253 -0.0303
 1613TIP3    H126254   2.062   1.796  12.262  3.2170  1.0522  1.8125
 1613TIP3    H226255   2.070   1.874  12.133  2.1244 -0.5211  0.7534
 1614TIP3   OH226256   0.962   1.001  15.566  0.1310 -0.0369 -0.1248
 1614TIP3    H126257   1.040   1.031  15.614  0.8599  0.4646 -1.5527
 1614TIP3    H226258   0.906   1.079  15.562  0.4354  0.1595 -0.7564
 1615TIP3   OH226259   6.239   1.942   1.565  0.2102 -0.5284  0.4637
 1615TIP3    H126260   6.305   1.907   1.504  1.5205 -1.8453  2.5155
 1615TIP3    H226261   6.160   1.951   1.512  1.6110 -0.3225 -1.7400
 1616TIP3   OH226262   1.217   1.019   4.038 -0.0911  0.8999  0.6232
 1616TIP3    H126263   1.197   1.103   3.998  1.6928  1.6902  1.2956
 1616TIP3    H226264   1.297   1.034   4.087  0.4511 -1.2741  0.5130
 1617TIP3   OH226265   4.985   6.061   0.532  0.6703  0.0942 -0.7891
 1617TIP3    H126266   4.955   6.143   0.494 -0.5652 -0.4567 -1.0144
 1617TIP3    H226267   5.059   6.087   0.588 -0.1114  1.4435 -0.3484
 1618TIP3   OH226268   1.619   6.156   0.686  0.3005 -0.2521 -0.7845
 1618TIP3    H126269   1.685   6.090   0.705  0.4249 -0.5281 -2.1007
 1618TIP3    H226270   1.661   6.216   0.624 -0.6568 -0.3999 -1.5976
 1619TIP3   OH226271   3.197   4.921  13.605 -0.1382  0.3923 -0.1506
 1619TIP3    H126272   3.231   4.834  13.626 -0.2957 -0.0732 -1.6781
 1619TIP3    H226273   3.252   4.981  13.654 -1.1467 -0.6073  2.3756
 1620TIP3   OH226274   0.324   4.311   2.661 -0.2741  0.4423 -0.6929
 1620TIP3    H126275   0.301   4.258   2.585  0.0258  0.0987 -0.5455
 1620TIP3    H226276   0.350   4.248   2.728  1.9187  0.8304 -1.1107
 1621TIP3   OH226277   3.333   1.660   4.830  0.3522  0.3107  0.0909
 1621TIP3    H126278   3.359   1.586   4.775  0.5041 -0.2162  0.8588
 1621TIP3    H226279   3.262   1.625   4.884 -1.6738  1.5678 -1.5969
 1622TIP3   OH226280   0.887   6.704   1.672  0.2629  0.4841  0.0088
 1622TIP3    H126281   0.832   6.667   1.741 -0.1729  1.5964  0.2748
 1622TIP3    H226282   0.846   6.787   1.650  0.2165  0.0353 -1.8131
 1623TIP3   OH226283   6.270   2.096   3.681 -0.1198  0.0363  0.2424
 1623TIP3    H126284   6.185   2.122   3.646 -0.2001 -0.6413 -0.0897
 1623TIP3    H226285   6.311   2.047   3.610  0.3275 -0.0994  0.5887
 1624TIP3   OH226286   3.305   4.580  11.678 -0.4315  0.7137 -0.1329
 1624TIP3    H126287   3.397   4.584  11.652 -0.7235 -1.4082 -1.7633
 1624TIP3    H226288   3.295   4.492  11.715 -1.8693  0.8090 -0.2575
 1625TIP3   OH226289   5.374   0.492   3.636 -0.3349 -0.2935  0.1536
 1625TIP3    H126290   5.443   0.558   3.643 -0.0052 -0.4907 -0.9504
 1625TIP3    H226291   5.399   0.423   3.698 -0.0316  0.0521  0.4163
 1626TIP3   OH226292   1.581   1.533   5.429 -0.0137  0.5967  0.5077
 1626TIP3    H126293   1.620   1.514   5.515  1.7846  0.0760 -0.3705
 1626TIP3    H226294   1.535   1.453   5.406 -1.0533  0.9565  1.2280
 1627TIP3   OH226295   5.272   2.170  11.332 -0.0264  0.5360 -0.0778
 1627TIP3    H126296   5.333   2.226  11.284  0.0264  0.3904 -0.1812
 1627TIP3    H226297   5.323   2.092  11.352  0.0330  0.7037  0.4427
 1628TIP3   OH226298   0.233   1.558  14.047  0.3405 -0.5141  0.1021
 1628TIP3    H126299   0.289   1.634  14.032 -0.7435  0.0834 -1.1591
 1628TIP3    H226300   0.288   1.497  14.096  1.6754  0.5272 -0.0287
 1629TIP3   OH226301   5.076   4.783   3.242 -0.0218  0.2182  0.1921
 1629TIP3    H126302   5.148   4.754   3.298  1.1485  0.0180 -1.3410
 1629TIP3    H226303   5.098   4.748   3.155 -1.9880  0.1540 -0.3134
 1630TIP3   OH226304   3.089   1.586   1.313 -0.0477 -0.5044  0.7014
 1630TIP3    H126305   3.049   1.504   1.342 -0.9949  0.1942  1.4762
 1630TIP3    H226306   3.136   1.618   1.389  0.0470 -0.1741  0.5056
 1631TIP3   OH226307   0.833   3.354  13.613 -0.0124  0.0734 -0.0743
 1631TIP3    H126308   0.841   3.267  13.575  0.9385  0.1612 -0.0781
 1631TIP3    H226309   0.846   3.341  13.707  1.2311  0.3501 -0.1929
 1632TIP3   OH226310   1.154   4.260  13.091  0.0953 -0.0157  0.4215
 1632TIP3    H126311   1.231   4.270  13.146  0.4977 -0.3325 -0.0784
 1632TIP3    H226312   1.176   4.189  13.030 -0.5172  0.0083  0.1577
 1633TIP3   OH226313   5.233   5.925   2.728 -0.2122  0.2235 -0.4612
 1633TIP3    H126314   5.165   5.923   2.796 -1.0527 -0.6820 -1.2923
 1633TIP3    H226315   5.256   6.017   2.719 -2.1816  0.7027 -0.9647
 1634TIP3   OH226316   0.650   0.297  12.455 -0.1828 -0.4490 -0.4916
 1634TIP3    H126317   0.560   0.289  12.421  0.2030 -1.4994 -1.3288
 1634TIP3    H226318   0.645   0.264  12.544 -0.4789 -1.3579 -0.8266
 1635TIP3   OH226319   5.084   3.973  15.741 -0.9613 -0.0325 -1.3217
 1635TIP3    H126320   5.106   4.045  15.682 -0.6001  1.2178  0.2652
 1635TIP3    H226321   5.054   4.016  15.821 -1.1220 -1.6631 -0.4607
 1636TIP3   OH226322   0.882   1.028   2.544 -0.3369 -0.1782  0.6377
 1636TIP3    H126323   0.890   1.122   2.565  1.6394 -0.4397  1.2710
 1636TIP3    H226324   0.972   0.999   2.531 -0.9407 -1.9606  0.2109
 1637TIP3   OH226325   6.167   3.067  15.776  0.0325 -0.3426 -0.4091
 1637TIP3    H126326   6.227   3.111  15.716 -1.7931  1.9412 -0.7393
 1637TIP3    H226327   6.159   2.978  15.741  2.0593 -0.2835 -1.1652
 1638TIP3   OH226328   4.206   3.792  16.538  0.1098 -0.0923 -0.4727
 1638TIP3    H126329   4.280   3.847  16.565  0.9983 -1.0620 -0.8727
 1638TIP3    H226330   4.239   3.742  16.463 -1.2190  0.0445 -1.1665
 1639TIP3   OH226331   0.859   4.849  17.291 -0.8890  0.0344 -0.2953
 1639TIP3    H126332   0.804   4.793  17.236 -1.6351  1.4602 -1.0539
 1639TIP3    H226333   0.809   4.859  17.372 -0.5730 -0.6975 -0.0047
 1640TIP3   OH226334   6.248   1.884   5.329  0.1624  0.2899 -0.3705
 1640TIP3    H126335   6.243   1.788   5.326 -0.2113  0.2479  0.7984
 1640TIP3    H226336   6.339   1.902   5.350  0.1161  0.1531 -0.0303
 1641TIP3   OH226337   4.909   3.106   4.794 -0.2014 -0.1395 -0.2392
 1641TIP3    H126338   4.849   3.162   4.844  0.1287 -1.6274  1.9679
 1641TIP3    H226339   4.854   3.034   4.763  0.2370 -1.0952  1.1200
 1642TIP3   OH226340   2.467   4.908   2.171  0.1413 -0.6991 -0.1987
 1642TIP3    H126341   2.373   4.910   2.152  0.6091 -0.8133 -2.8923
 1642TIP3    H226342   2.508   4.892   2.086  2.5786 -1.3879  1.0293
 1643TIP3   OH226343   4.417   1.456   4.366  0.4890 -0.7424 -0.7473
 1643TIP3    H126344   4.362   1.514   4.419  0.0165 -2.0046  0.1999
 1643TIP3    H226345   4.436   1.506   4.287 -0.2439  0.5361 -0.1411
 1644TIP3   OH226346   4.839   3.745  15.386 -0.5778 -0.4605 -0.4082
 1644TIP3    H126347   4.885   3.728  15.304 -1.7122  0.5744 -1.3053
 1644TIP3    H226348   4.751   3.772  15.359 -0.9075  0.1291  1.1406
 1645TIP3   OH226349   6.520   4.076   0.639 -0.8232 -1.0055 -0.0506
 1645TIP3    H126350   6.484   3.988   0.650 -2.9962  0.0615  2.2039
 1645TIP3    H226351   6.444   4.132   0.629  0.5315  0.6551 -1.8188
 1646TIP3   OH226352   2.551   4.992  14.144  0.3153  0.1858 -0.2742
 1646TIP3    H126353   2.639   4.976  14.109  0.1740 -0.2390 -0.4372
 1646TIP3    H226354   2.498   5.013  14.067  0.0783 -0.4261 -0.2773
 1647TIP3   OH226355   6.590   4.945  10.879 -0.1270 -0.5803 -0.7794
 1647TIP3    H126356   6.552   5.032  10.875  0.4828 -0.3394 -1.6226
 1647TIP3    H226357   6.584   4.912  10.789 -2.4686 -2.3520 -0.0803
 1648TIP3   OH226358   4.365   4.491  13.397  0.1590  0.6064  0.4517
 1648TIP3    H126359   4.406   4.414  13.358 -0.6110  1.1928 -1.6915
 1648TIP3    H226360   4.314   4.457  13.471  0.3729 -0.8388 -0.0359
 1649TIP3   OH226361   5.580   5.269   2.809 -0.1889  0.1859 -0.0850
 1649TIP3    H126362   5.548   5.243   2.895  1.9718  1.0523  1.0643
 1649TIP3    H226363   5.542   5.356   2.795  1.7399  1.3347  1.3959
 1650TIP3   OH226364   4.272   3.916  13.467  0.5830  0.4641 -0.3818
 1650TIP3    H126365   4.302   3.926  13.377 -0.6226  0.1900 -0.8230
 1650TIP3    H226366   4.238   4.003  13.490 -0.5286  0.1425 -0.7385
 1651TIP3   OH226367   0.621   4.442  14.730 -0.4393  0.3290  0.2871
 1651TIP3    H126368   0.624   4.491  14.812  1.9141  0.9001 -0.0471
 1651TIP3    H226369   0.685   4.372  14.741  2.4556  2.3032 -2.0362
 1652TIP3   OH226370   2.824   0.914  15.110 -0.2262  0.0670  0.3199
 1652TIP3    H126371   2.905   0.902  15.060 -0.7461 -0.3095 -0.4581
 1652TIP3    H226372   2.761   0.854  15.069 -1.1489  0.9852  0.3490
 1653TIP3   OH226373   3.604   0.988  15.858  0.0905  0.1094 -0.2235
 1653TIP3    H126374   3.553   1.058  15.900  2.1369  0.6061  1.5932
 1653TIP3    H226375   3.639   0.938  15.931  2.0864 -0.2774 -1.3958
 1654TIP3   OH226376   1.499   4.593   3.272  0.1476  0.0802  0.0788
 1654TIP3    H126377   1.531   4.676   3.308 -0.0941  0.6894 -1.0519
 1654TIP3    H226378   1.496   4.534   3.347 -0.5285  1.3463  1.0986
 1655TIP3   OH226379   0.761   2.654  16.195 -0.2696  0.1207 -0.0140
 1655TIP3    H126380   0.739   2.747  16.204  0.1441  0.3680 -1.3117
 1655TIP3    H226381   0.854   2.653  16.172  0.3308 -0.7522  2.1846
 1656TIP3   OH226382   5.211   5.587  11.807 -0.5220 -0.4343 -0.4323
 1656TIP3    H126383   5.218   5.495  11.784  1.0432 -0.1094 -1.4127
 1656TIP3    H226384   5.136   5.619  11.758 -1.6935 -1.3664  0.6758
 1657TIP3   OH226385   6.136   2.611  17.253 -0.2188  0.2160 -0.2428
 1657TIP3    H126386   6.156   2.521  17.228  1.2909  1.0605 -2.4440
 1657TIP3    H226387   6.055   2.632  17.207 -0.6239 -0.0346  0.3491
 1658TIP3   OH226388   6.419   2.322   5.238  0.3718  0.0541  0.3339
 1658TIP3    H126389   6.410   2.229   5.218 -0.4816 -0.0923  1.3298
 1658TIP3    H226390   6.329   2.353   5.249  0.6863  0.7979  0.8596
 1659TIP3   OH226391   2.608   6.291  13.280  0.0416 -0.4575  0.0559
 1659TIP3    H126392   2.643   6.258  13.363 -1.1383 -0.8905  0.3885
 1659TIP3    H226393   2.669   6.257  13.214  0.5743 -0.7230  0.6718
 1660TIP3   OH226394   5.640   1.495   5.180  0.1706 -0.5145 -0.2010
 1660TIP3    H126395   5.659   1.490   5.273  1.1947  0.0189 -0.3673
 1660TIP3    H226396   5.592   1.577   5.169 -1.7690 -1.5499  0.1250
 1661TIP3   OH226397   3.211   0.923  15.235 -0.2982  0.0300  0.0193
 1661TIP3    H126398   3.221   0.853  15.171  1.2608  0.0186  0.2406
 1661TIP3    H226399   3.168   0.993  15.187 -0.5601 -0.5499 -0.6018
 1662TIP3   OH226400   6.134   5.339  14.928  0.3585  0.3753  0.1805
 1662TIP3    H126401   6.180   5.378  15.002 -0.4378  0.0215  0.8843
 1662TIP3    H226402   6.041   5.354  14.948  0.1111 -0.3918 -0.3739
 1663TIP3   OH226403   1.522   5.243  15.636 -0.7041  0.3664  0.6943
 1663TIP3    H126404   1.493   5.200  15.556 -0.4749  0.7647  0.3929
 1663TIP3    H226405   1.498   5.183  15.706 -0.5727 -0.1531  0.2978
 1664TIP3   OH226406   5.982   3.295  16.878  0.2565 -0.1063 -0.3735
 1664TIP3    H126407   5.929   3.374  16.866 -0.3391 -0.3448  0.5597
 1664TIP3    H226408   5.955   3.237  16.808 -1.2613 -0.4947  0.4901
 1665TIP3   OH226409   6.593   4.017   2.866  0.4068 -0.3734 -0.3113
 1665TIP3    H126410   6.674   4.003   2.915 -0.2192  1.9085  1.5691
 1665TIP3    H226411   6.597   4.108   2.838 -1.2638 -0.3778 -0.6727
 1666TIP3   OH226412   0.075   6.007   0.329  0.4765 -0.5562 -0.3885
 1666TIP3    H126413   0.137   5.981   0.397 -0.1588 -0.9853  0.0358
 1666TIP3    H226414  -0.003   5.955   0.347  0.4917 -1.1060 -1.7849
 1667TIP3   OH226415   4.376   0.769  11.771 -0.1350 -0.1728  0.0388
 1667TIP3    H126416   4.371   0.757  11.866 -0.0806 -1.0938 -0.0691
 1667TIP3    H226417   4.309   0.836  11.752  1.3989  1.7220  0.9816
 1668TIP3   OH226418   1.962   2.672  11.362 -0.2640 -0.9379  0.0333
 1668TIP3    H126419   2.041   2.627  11.332 -1.0010 -1.2518 -1.5076
 1668TIP3    H226420   1.891   2.635  11.310 -1.0456  1.2686 -0.5940
 1669TIP3   OH226421   1.837   5.447   4.131 -0.4374 -0.2259  0.1548
 1669TIP3    H126422   1.859   5.478   4.219 -0.9516 -1.7705  0.8634
 1669TIP3    H226423   1.848   5.524   4.075  2.4500  0.2112  1.1185
 1670TIP3   OH226424   5.579   0.637   3.823  0.2935  0.0606  0.3211
 1670TIP3    H126425   5.508   0.679   3.873 -1.1017  0.7660 -2.0637
 1670TIP3    H226426   5.653   0.696   3.833  0.7335 -0.8279  3.1014
 1671TIP3   OH226427   5.401   0.092  14.700  0.2785 -0.8507  0.6622
 1671TIP3    H126428   5.487   0.071  14.664 -0.9740 -0.0737 -3.1504
 1671TIP3    H226429   5.401   0.187  14.710 -0.5805 -0.6657 -0.8260
 1672TIP3   OH226430   4.353   4.176   0.117 -0.9638 -0.4167  0.5708
 1672TIP3    H126431   4.290   4.126   0.066 -1.1635  0.7994 -0.4098
 1672TIP3    H226432   4.325   4.267   0.108  0.3895  0.0547  0.8878
 1673TIP3   OH226433   3.685   6.650  14.793 -0.7414 -0.2644 -0.1873
 1673TIP3    H126434   3.762   6.663  14.738 -0.4327 -0.9248  0.0829
 1673TIP3    H226435   3.648   6.566  14.764 -2.5058  0.9315 -1.6702
 1674TIP3   OH226436   2.559   3.455  12.771 -0.3017  0.4171 -0.6016
 1674TIP3    H126437   2.629   3.391  12.781 -1.4970 -1.0134 -1.1811
 1674TIP3    H226438   2.555   3.472  12.677 -1.0714  0.1084 -0.6252
 1675TIP3   OH226439   3.745   0.988  17.194 -0.4566 -0.8803 -0.7905
 1675TIP3    H126440   3.699   0.987  17.110 -1.6329 -0.3309 -0.1906
 1675TIP3    H226441   3.823   1.041  17.179 -1.6732  0.9224 -1.0717
 1676TIP3   OH226442   3.586   4.363   0.394 -0.3262 -0.4989  0.5160
 1676TIP3    H126443   3.630   4.281   0.417  0.5349 -0.6758 -1.5083
 1676TIP3    H226444   3.658   4.426   0.385 -0.7237 -0.1314 -0.2141
 1677TIP3   OH226445   2.183   3.812  13.462  0.3798  0.0699  0.4391
 1677TIP3    H126446   2.264   3.768  13.437 -0.0987 -1.3446  1.2293
 1677TIP3    H226447   2.151   3.761  13.537 -0.4354  1.5350  1.1292
 1678TIP3   OH226448   4.885   1.288  15.886  0.5396  0.3152 -0.6202
 1678TIP3    H126449   4.855   1.228  15.955  0.2055 -0.4592 -1.4150
 1678TIP3    H226450   4.822   1.360  15.888 -1.3999 -1.1862 -2.1256
 1679TIP3   OH226451   0.021   5.583   2.208 -0.3888 -1.0910 -0.2859
 1679TIP3    H126452   0.076   5.529   2.265  1.1931 -1.5239 -2.0889
 1679TIP3    H226453  -0.057   5.530   2.193  0.1117 -1.8898 -0.1653
 1680TIP3   OH226454   3.967   2.867   1.853 -0.2694  0.1209  0.1938
 1680TIP3    H126455   4.000   2.956   1.862 -0.2381  0.1978 -0.6024
 1680TIP3    H226456   3.899   2.859   1.920 -0.4960  0.8486  0.0582
 1681TIP3   OH226457   6.385   5.960   4.612  0.3076 -0.3192  0.2638
 1681TIP3    H126458   6.358   6.007   4.691 -0.9610 -0.4057 -0.0855
 1681TIP3    H226459   6.380   6.025   4.542 -1.0473 -0.8213 -0.1486
 1682TIP3   OH226460   6.391   0.059   6.000 -0.4209 -0.4753 -1.0480
 1682TIP3    H126461   6.451   0.028   6.068 -0.6086  0.6682 -0.3242
 1682TIP3    H226462   6.304   0.048   6.039 -0.4893  0.9199 -0.7598
 1683TIP3   OH226463   1.965   2.020   3.806  0.2862 -0.4588  0.6183
 1683TIP3    H126464   2.050   2.062   3.793  0.7188  0.0205  4.0494
 1683TIP3    H226465   1.984   1.926   3.800  1.4525 -0.4233  2.7970
 1684TIP3   OH226466   3.687   3.208   2.437  0.4009  0.6806 -0.1078
 1684TIP3    H126467   3.761   3.158   2.405 -0.0752 -0.1613  0.0819
 1684TIP3    H226468   3.725   3.293   2.463  1.7542 -0.5266  2.2108
 1685TIP3   OH226469   2.295   0.813  16.858 -0.1205 -0.3185 -0.4288
 1685TIP3    H126470   2.350   0.870  16.912 -0.6576 -0.6221  0.4488
 1685TIP3    H226471   2.206   0.845  16.873 -0.4318 -1.3748  0.0760
 1686TIP3   OH226472   3.148   1.483   2.996  0.1757  0.6419 -0.2418
 1686TIP3    H126473   3.075   1.526   3.041  1.4756  3.0336 -0.2456
 1686TIP3    H226474   3.145   1.517   2.907  1.2718  0.8181 -0.2341
 1687TIP3   OH226475   3.307   6.311   0.140 -0.0612  0.4050  0.2650
 1687TIP3    H126476   3.364   6.238   0.115 -2.4994 -1.6033  0.1311
 1687TIP3    H226477   3.239   6.313   0.073 -0.0461  2.9073  0.2405
 1688TIP3   OH226478   5.314   4.179  17.045  0.0329 -0.0153 -0.1977
 1688TIP3    H126479   5.327   4.085  17.033 -1.1689 -0.3749  1.0984
 1688TIP3    H226480   5.393   4.209  17.088  1.1747 -0.0790 -2.1497
 1689TIP3   OH226481   0.895   1.729  14.230 -1.0854  0.3981  0.1994
 1689TIP3    H126482   0.988   1.705  14.228 -1.3172 -0.4628 -1.0038
 1689TIP3    H226483   0.864   1.697  14.315 -0.7718 -1.2693 -0.2865
 1690TIP3   OH226484   1.778   4.960  12.369 -0.3808 -0.1070 -0.6262
 1690TIP3    H126485   1.817   4.873  12.362  0.4403  0.2653 -0.6948
 1690TIP3    H226486   1.699   4.946  12.422 -0.2603 -0.8931 -0.6419
 1691TIP3   OH226487   5.858   1.803   6.302  1.0669 -0.3602 -0.2668
 1691TIP3    H126488   5.951   1.823   6.288  0.8331  1.2592  0.2691
 1691TIP3    H226489   5.825   1.781   6.215  1.3042  2.0740 -1.0526
 1692TIP3   OH226490   6.428   1.188   0.450 -0.1604  0.2903  0.3912
 1692TIP3    H126491   6.368   1.245   0.402 -0.2314  1.5632  1.9024
 1692TIP3    H226492   6.403   1.099   0.424 -1.2998  0.8627 -0.5851
 1693TIP3   OH226493   2.234   4.912  14.453  0.2833  0.5336  0.8561
 1693TIP3    H126494   2.162   4.884  14.509  0.8034  0.8321  1.7044
 1693TIP3    H226495   2.284   4.833  14.436  0.4172  0.5263  1.2655
 1694TIP3   OH226496   0.882   5.862   4.431  0.0201 -0.0423  0.0160
 1694TIP3    H126497   0.869   5.932   4.495 -0.3553 -0.1315  0.0399
 1694TIP3    H226498   0.903   5.785   4.483  1.5753  0.2971 -0.0621
 1695TIP3   OH226499   2.968   3.370   0.966 -0.4018  0.5058  0.2042
 1695TIP3    H126500   2.992   3.319   0.889  0.3203  2.2114 -0.7780
 1695TIP3    H226501   2.933   3.306   1.028  0.9786 -1.2367 -0.7111
 1696TIP3   OH226502   4.377   1.522   0.014 -0.4519 -0.0108  0.2186
 1696TIP3    H126503   4.349   1.600  -0.033 -1.1095 -0.5749 -0.3504
 1696TIP3    H226504   4.301   1.464   0.012 -0.2263 -0.3673  1.3009
 1697TIP3   OH226505   2.899   5.353   5.211  0.2498 -0.0220  0.2210
 1697TIP3    H126506   2.872   5.444   5.197  1.4648  0.6207  1.7313
 1697TIP3    H226507   2.939   5.327   5.129 -0.1430  0.7943 -0.2475
 1698TIP3   OH226508   0.283   0.294   2.540 -0.1064 -0.0389 -0.1784
 1698TIP3    H126509   0.219   0.265   2.605  0.9809 -0.7397  0.6085
 1698TIP3    H226510   0.231   0.307   2.460 -1.1642 -0.9992  0.3180
 1699TIP3   OH226511   2.288   2.195   4.078  0.2064  0.3636 -0.4325
 1699TIP3    H126512   2.253   2.170   3.992 -1.8973  0.3524  0.3800
 1699TIP3    H226513   2.230   2.265   4.108  1.6346  1.2010  0.4939
 1700TIP3   OH226514   0.232   5.693  11.777 -0.3789 -0.1037  0.4121
 1700TIP3    H126515   0.283   5.705  11.857  0.1727 -0.0948  0.0687
 1700TIP3    H226516   0.192   5.607  11.786  1.3184 -1.0035 -0.1776
 1701TIP3   OH226517   4.193   2.598   3.871 -0.2084 -0.5978  0.6599
 1701TIP3    H126518   4.184   2.526   3.809  1.8242  0.3398 -0.8184
 1701TIP3    H226519   4.156   2.674   3.825  1.7496  0.2088  0.3463
 1702TIP3   OH226520   3.216   0.252  15.488 -0.4090 -0.1153  0.1970
 1702TIP3    H126521   3.179   0.306  15.417 -1.1661  1.4265  1.6943
 1702TIP3    H226522   3.304   0.288  15.501 -0.8086  0.6076  1.0010
 1703TIP3   OH226523   2.507   1.005   4.783  0.1841  0.0248  0.3539
 1703TIP3    H126524   2.569   1.077   4.789  0.0942  0.0489  1.1303
 1703TIP3    H226525   2.476   1.006   4.692  0.5361  0.6654  0.2429
 1704TIP3   OH226526   5.052   4.503   0.340 -0.0183 -0.3099 -0.1951
 1704TIP3    H126527   5.110   4.451   0.284  0.8838  0.6362 -0.1508
 1704TIP3    H226528   5.039   4.449   0.418  1.8580  0.0002  0.3687
 1705TIP3   OH226529   5.124   2.721  12.929  0.2600  0.1723 -0.0989
 1705TIP3    H126530   5.113   2.774  12.850 -0.6925 -0.0866 -0.1551
 1705TIP3    H226531   5.208   2.749  12.966  0.7129  0.2919 -1.2014
 1706TIP3   OH226532   2.686   4.470  12.079 -0.1041  0.3286 -0.0403
 1706TIP3    H126533   2.604   4.439  12.119  0.3971 -0.1372  0.6479
 1706TIP3    H226534   2.741   4.494  12.153  0.5796  0.1260 -0.4783
 1707TIP3   OH226535   6.501   1.447   2.174 -0.2769 -0.5195 -0.2769
 1707TIP3    H126536   6.527   1.535   2.146 -1.7869  0.2656  0.6512
 1707TIP3    H226537   6.567   1.422   2.238  0.9141 -0.6534 -1.5021
 1708TIP3   OH226538   5.949   3.833  14.931  0.2343  0.3191 -0.8693
 1708TIP3    H126539   5.987   3.906  14.882 -0.8918  1.4679 -0.0839
 1708TIP3    H226540   5.867   3.868  14.967 -0.8345 -1.6166 -1.2716
 1709TIP3   OH226541   0.679   1.106  15.804 -0.0179  0.0790  0.2750
 1709TIP3    H126542   0.760   1.143  15.838 -0.6371 -0.1718  2.1441
 1709TIP3    H226543   0.636   1.066  15.880 -1.3509 -0.8150 -0.8730
 1710TIP3   OH226544   6.031   3.547   1.052  0.0257  0.4325  0.2485
 1710TIP3    H126545   6.058   3.546   1.144 -0.3458 -1.1834  0.3630
 1710TIP3    H226546   6.096   3.494   1.007 -0.1960  0.6267 -0.3036
 1711TIP3   OH226547   1.910   1.868   0.100 -0.4291 -0.4166 -0.1265
 1711TIP3    H126548   1.884   1.815   0.176 -0.9995  1.0453  0.7217
 1711TIP3    H226549   1.983   1.820   0.063 -1.1875 -2.0378  0.3627
 1712TIP3   OH226550   0.358   6.649  11.439  0.2810  0.7562  0.0618
 1712TIP3    H126551   0.264   6.633  11.425  0.4200  0.9793 -1.2152
 1712TIP3    H226552   0.363   6.743  11.459  0.3098  0.9070 -0.6461
 1713TIP3   OH226553   5.228   1.101   6.180  0.4267 -0.7915  0.1343
 1713TIP3    H126554   5.256   1.020   6.223  3.0564 -0.7610 -1.2933
 1713TIP3    H226555   5.195   1.156   6.251 -0.0051 -2.5286  1.3400
 1714TIP3   OH226556   5.000   5.529  11.268  0.1114 -0.3606  0.4292
 1714TIP3    H126557   5.032   5.466  11.204  2.3934  0.8637  0.2769
 1714TIP3    H226558   5.007   5.484  11.352 -0.5382 -1.0981  0.1033
 1715TIP3   OH226559   2.505   1.955   0.978 -0.4493  0.0161  0.1061
 1715TIP3    H126560   2.597   1.972   0.958 -0.4572 -1.2708 -1.2151
 1715TIP3    H226561   2.458   1.978   0.898 -1.3811  1.2354  0.9735
 1716TIP3   OH226562   3.734   3.218   0.724 -0.2589  0.0499 -0.6108
 1716TIP3    H126563   3.678   3.293   0.707  0.2522  0.9823  1.4614
 1716TIP3    H226564   3.730   3.206   0.819  3.9137  0.9671 -0.1186
 1717TIP3   OH226565   1.092   0.119  13.841  0.0535 -0.3625  0.1745
 1717TIP3    H126566   1.001   0.135  13.816 -0.4068  0.1511  1.9771
 1717TIP3    H226567   1.142   0.129  13.760 -0.9902  3.6891 -0.1784
 1718TIP3   OH226568   2.798   1.780  17.246 -0.0842 -0.8701  0.0697
 1718TIP3    H126569   2.822   1.758  17.156  0.1273 -0.5102  0.0347
 1718TIP3    H226570   2.796   1.696  17.292  0.1236 -1.0212 -0.1967
 1719TIP3   OH226571   5.534   6.441  16.120  0.6104  0.5981  0.3247
 1719TIP3    H126572   5.599   6.371  16.124  0.3188  0.3597  1.0802
 1719TIP3    H226573   5.496   6.443  16.208 -2.7460 -1.5087 -0.8677
 1720TIP3   OH226574   1.886   4.971   3.749  0.1624 -0.4016 -0.3546
 1720TIP3    H126575   1.933   4.995   3.829 -0.4808  0.2845 -0.1739
 1720TIP3    H226576   1.926   4.888   3.721  0.8605 -0.2868  0.2898
 1721TIP3   OH226577   4.716   4.435   5.322  0.3968  0.2747 -0.1894
 1721TIP3    H126578   4.809   4.448   5.338  0.7652  0.0250 -1.9111
 1721TIP3    H226579   4.695   4.498   5.253 -0.9368  0.9307  0.7530
 1722TIP3   OH226580   4.325   1.781   2.117 -0.6143  0.7486  0.4724
 1722TIP3    H126581   4.254   1.819   2.067 -2.0261  0.2966  2.0386
 1722TIP3    H226582   4.290   1.773   2.206  0.9830 -0.5746  1.0349
 1723TIP3   OH226583   4.445   6.454   2.255 -0.0044  0.4458  0.0977
 1723TIP3    H126584   4.493   6.433   2.175 -2.1672 -0.4466 -1.0546
 1723TIP3    H226585   4.511   6.452   2.324  1.6441 -0.4213 -1.4226
 1724TIP3   OH226586   2.779   3.504  14.941 -0.4621 -0.2974  1.2633
 1724TIP3    H126587   2.777   3.560  14.864  0.1279  1.2130  2.3005
 1724TIP3    H226588   2.805   3.418  14.908  0.5878  0.5055 -0.1050
 1725TIP3   OH226589   3.979   4.765  15.160 -0.1638 -0.2633 -0.3567
 1725TIP3    H126590   3.910   4.748  15.096 -1.2289  1.5463  0.2545
 1725TIP3    H226591   3.947   4.839  15.211  2.6169  1.2278 -0.6205
 1726TIP3   OH226592   2.567   0.545   1.435  0.8089 -0.6333  0.1472
 1726TIP3    H126593   2.602   0.509   1.354  2.6343  2.8399 -0.7962
 1726TIP3    H226594   2.484   0.585   1.410  0.1906 -1.6324  0.5586
 1727TIP3   OH226595   5.531   0.689  15.625 -0.2254 -0.5518  0.1942
 1727TIP3    H126596   5.478   0.610  15.635 -1.5522  0.3418  0.4587
 1727TIP3    H226597   5.488   0.754  15.680  0.7876  0.3907 -0.0993
 1728TIP3   OH226598   4.993   5.228   4.884 -0.0635 -0.1709 -0.1341
 1728TIP3    H126599   4.911   5.277   4.875 -0.6178 -1.1395 -0.6836
 1728TIP3    H226600   5.022   5.214   4.793  0.0036 -0.9575  0.0005
 1729TIP3   OH226601   4.913   3.197   0.972  0.3261  0.3385 -0.0027
 1729TIP3    H126602   4.918   3.133   0.901 -0.2413  0.7538 -0.4235
 1729TIP3    H226603   4.930   3.281   0.930  0.4339  0.5352  0.4346
 1730TIP3   OH226604   0.803   2.137  14.553 -0.1355  0.2621  0.0961
 1730TIP3    H126605   0.791   2.098  14.639 -0.9495 -0.2120 -0.2187
 1730TIP3    H226606   0.859   2.076  14.506 -1.9729 -0.9513 -0.6298
 1731TIP3   OH226607   0.109   3.713   0.424 -0.2233 -0.4498  0.0510
 1731TIP3    H126608   0.021   3.695   0.389 -0.1868  1.6578 -1.2958
 1731TIP3    H226609   0.168   3.672   0.362 -0.2046 -2.3513  1.2558
 1732TIP3   OH226610   3.762   4.392  12.496  0.1120  0.3201 -0.0207
 1732TIP3    H126611   3.758   4.468  12.554 -1.3148 -0.4949  1.0042
 1732TIP3    H226612   3.715   4.420  12.417  1.8400  1.3405 -0.7549
 1733TIP3   OH226613   5.125   2.224  14.877 -0.3489  0.2857  0.3792
 1733TIP3    H126614   5.208   2.253  14.913  1.2243  1.5792 -3.7020
 1733TIP3    H226615   5.149   2.161  14.808 -2.5042  1.8181 -1.9695
 1734TIP3   OH226616   4.599   1.861  14.972 -0.3380 -0.0858 -0.3232
 1734TIP3    H126617   4.573   1.946  14.939  1.5896  1.3581  1.5914
 1734TIP3    H226618   4.540   1.844  15.045  0.1175  0.2432  0.1234
 1735TIP3   OH226619   5.305   0.705  12.587 -0.0371 -0.2617  0.1846
 1735TIP3    H126620   5.239   0.671  12.647 -1.4660  2.2239  0.1813
 1735TIP3    H226621   5.353   0.770  12.638  1.6389 -1.1279 -0.1933
 1736TIP3   OH226622   6.261   0.005   1.142  0.0697 -0.5505 -0.1963
 1736TIP3    H126623   6.170  -0.014   1.166  0.0849 -1.1925 -0.6285
 1736TIP3    H226624   6.270  -0.030   1.053  1.0332 -1.4162  0.2326
 1737TIP3   OH226625   4.601   2.381  11.224 -0.5257  0.0745  0.0632
 1737TIP3    H126626   4.541   2.395  11.297 -1.8541 -0.9032 -0.7976
 1737TIP3    H226627   4.604   2.285  11.213 -0.1479  0.1860 -0.9836
 1738TIP3   OH226628   3.318   3.722  12.737 -0.2097  0.2442 -0.2820
 1738TIP3    H126629   3.296   3.629  12.745  1.0589  0.0527  2.2230
 1738TIP3    H226630   3.289   3.760  12.820 -0.5269  2.0726 -1.1847
 1739TIP3   OH226631   4.029   0.368  13.886  0.0438  0.1776 -0.2260
 1739TIP3    H126632   4.014   0.291  13.830 -1.1078  0.0362  0.2438
 1739TIP3    H226633   4.114   0.401  13.859  1.4523 -2.3263  0.7789
 1740TIP3   OH226634   2.680   2.981  13.942 -0.4635  0.4265 -0.3355
 1740TIP3    H126635   2.710   3.038  13.871 -0.6666 -0.4522 -1.1561
 1740TIP3    H226636   2.759   2.935  13.971  0.0995  2.5197  1.7053
 1741TIP3   OH226637   3.824   3.327   5.476  0.1865 -0.8748 -0.7678
 1741TIP3    H126638   3.877   3.406   5.467 -1.2535  0.1585 -0.5260
 1741TIP3    H226639   3.856   3.285   5.555 -0.1703  0.3990  0.0820
 1742TIP3   OH226640   0.291   0.711  16.331 -0.0980  0.1013  0.2570
 1742TIP3    H126641   0.274   0.618  16.345  0.6644  0.0976  1.2976
 1742TIP3    H226642   0.246   0.755  16.403  0.5220  0.4358  0.4475
 1743TIP3   OH226643   5.229   6.570  17.080  0.4337 -0.0680 -0.6035
 1743TIP3    H126644   5.314   6.526  17.082  0.1690 -0.5706 -0.3606
 1743TIP3    H226645   5.223   6.607  16.992  0.9376  0.0419 -0.5972
 1744TIP3   OH226646   4.653   2.460   6.559 -0.1469 -0.1381  0.2276
 1744TIP3    H126647   4.703   2.509   6.493 -0.9116  1.5074  0.8148
 1744TIP3    H226648   4.614   2.387   6.510  0.1686  0.4261 -0.9097
 1745TIP3   OH226649   5.609   6.321  16.487 -0.2949 -0.8578 -0.6792
 1745TIP3    H126650   5.600   6.413  16.462  3.5427  0.3303  1.4604
 1745TIP3    H226651   5.550   6.311  16.562  1.4572  0.9091  1.0602
 1746TIP3   OH226652   0.198   2.643  13.632  0.5874 -0.2431 -0.9136
 1746TIP3    H126653   0.278   2.683  13.665 -0.1921  0.4779  0.1452
 1746TIP3    H226654   0.184   2.685  13.547  0.8258  0.3248 -0.6798
 1747TIP3   OH226655   2.247   6.524  15.738 -0.0627 -0.2133  0.1505
 1747TIP3    H126656   2.190   6.456  15.774  0.2108 -1.3082 -1.4113
 1747TIP3    H226657   2.304   6.478  15.677 -1.0108  1.6445 -2.2901
 1748TIP3   OH226658   6.700   1.491  16.829 -0.5019 -0.2209  0.4991
 1748TIP3    H126659   6.687   1.565  16.888 -0.3759 -0.5807  0.9765
 1748TIP3    H226660   6.768   1.521  16.768  1.1102 -0.6821  1.9901
 1749TIP3   OH226661   2.282   2.084  13.666 -0.2332  0.0162  0.2450
 1749TIP3    H126662   2.226   2.081  13.744 -2.8952 -0.3376 -1.5216
 1749TIP3    H226663   2.260   2.004  13.618 -0.2212  1.1809 -1.8132
 1750TIP3   OH226664   4.623   4.139   0.001  0.0120  0.0244  0.4267
 1750TIP3    H126665   4.537   4.157   0.037  0.5465  1.9763  0.8063
 1750TIP3    H226666   4.606   4.080  -0.073 -1.5715  0.0007  0.7751
 1751TIP3   OH226667   6.024   3.519   1.873  0.5175 -0.2305  0.1891
 1751TIP3    H126668   6.030   3.614   1.884  0.8879 -0.2217 -0.0568
 1751TIP3    H226669   5.932   3.498   1.891  0.0623  0.3761 -1.2233
 1752TIP3   OH226670   1.174   4.990  13.633  0.0968 -0.6810 -0.1414
 1752TIP3    H126671   1.144   4.909  13.591 -1.6365 -1.1524  1.8456
 1752TIP3    H226672   1.269   4.989  13.620  0.2965 -3.6036  0.6746
 1753TIP3   OH226673   2.962   4.458  12.685  0.0509 -0.8738  0.6028
 1753TIP3    H126674   3.018   4.381  12.686  2.2436  0.5428 -1.6854
 1753TIP3    H226675   2.983   4.502  12.603 -0.0890  2.8610  2.3619
 1754TIP3   OH226676   2.810   0.223   4.949  0.7604 -0.5196  0.3632
 1754TIP3    H126677   2.731   0.188   4.989  1.9117 -2.6895  0.9170
 1754TIP3    H226678   2.834   0.158   4.883  1.0100  1.0995 -1.2208
 1755TIP3   OH226679   1.967   4.448  11.843 -0.2802 -0.5714 -0.0496
 1755TIP3    H126680   1.979   4.490  11.929 -1.3834  0.4764 -0.3774
 1755TIP3    H226681   2.056   4.435  11.811  0.1332  1.0239  0.3373
 1756TIP3   OH226682   2.288   6.368   2.838 -0.1464  0.6911  0.1474
 1756TIP3    H126683   2.380   6.348   2.820  0.0441 -0.5378  2.1693
 1756TIP3    H226684   2.264   6.309   2.910 -2.7016  0.5559 -0.7059
 1757TIP3   OH226685   0.858   0.676  14.954 -0.3536 -0.0540 -0.2512
 1757TIP3    H126686   0.846   0.717  15.040  1.7901  0.9860 -0.4078
 1757TIP3    H226687   0.850   0.582  14.972  0.6806  0.1071  1.2260
 1758TIP3   OH226688   4.794   5.357   5.830  0.2131  0.1638 -0.5523
 1758TIP3    H126689   4.837   5.397   5.907 -0.7850  0.7950 -0.3029
 1758TIP3    H226690   4.702   5.381   5.839 -0.0736 -0.5424 -1.4739
 1759TIP3   OH226691   0.718   6.508  14.913 -0.6606 -0.0674  0.5306
 1759TIP3    H126692   0.740   6.599  14.891 -1.0175  0.1882  1.1989
 1759TIP3    H226693   0.801   6.469  14.940 -0.5515  0.1377  0.4982
 1760TIP3   OH226694   0.302   6.474   4.202 -0.0284 -0.0854 -0.0208
 1760TIP3    H126695   0.210   6.499   4.194 -0.6998 -1.6625  1.9851
 1760TIP3    H226696   0.301   6.379   4.204  1.8278 -0.1772 -1.3426
 1761TIP3   OH226697   4.218   3.031  11.618 -0.7753  0.0072  0.7732
 1761TIP3    H126698   4.161   3.080  11.558  0.1944 -0.3213 -0.4662
 1761TIP3    H226699   4.302   3.027  11.573 -0.0821 -0.4896  2.0633
 1762TIP3   OH226700   2.177   3.465   0.844 -0.3545 -0.3152  0.4794
 1762TIP3    H126701   2.215   3.403   0.905 -2.3415 -0.6033  1.5176
 1762TIP3    H226702   2.164   3.545   0.894  0.5471  0.3885 -0.3622
 1763TIP3   OH226703   4.693   4.613  17.060 -0.8906 -0.2850 -0.4308
 1763TIP3    H126704   4.778   4.572  17.078  0.3761  2.0445 -0.7661
 1763TIP3    H226705   4.632   4.539  17.051  1.0302 -2.0127  0.0591
 1764TIP3   OH226706   5.976   4.322   1.594 -0.0742  0.0399  0.4147
 1764TIP3    H126707   5.943   4.411   1.599  0.4367  0.3880 -1.5607
 1764TIP3    H226708   5.940   4.287   1.513  1.3348 -0.8542  0.1371
 1765TIP3   OH226709   0.725   5.819  15.963 -0.0233 -0.0935 -0.0079
 1765TIP3    H126710   0.760   5.754  15.903 -3.4494 -1.2160 -1.0163
 1765TIP3    H226711   0.751   5.903  15.925 -0.3764 -0.8204 -1.9848
 1766TIP3   OH226712   5.620   0.855  17.115  0.2464  1.0887 -0.0095
 1766TIP3    H126713   5.579   0.919  17.174 -0.3488  1.0146 -0.3463
 1766TIP3    H226714   5.683   0.809  17.171  1.5999  2.7866 -0.0219
 1767TIP3   OH226715   4.355   4.117   0.664 -0.1952 -0.1202 -0.0682
 1767TIP3    H126716   4.321   4.102   0.576 -1.1489  0.8546  0.1132
 1767TIP3    H226717   4.299   4.186   0.700 -1.0413 -1.7340  1.9594
 1768TIP3   OH226718   0.983   2.298  12.653  0.0507  0.1234  0.0407
 1768TIP3    H126719   0.892   2.308  12.625  0.1620  0.2076 -0.3059
 1768TIP3    H226720   0.978   2.254  12.738 -0.2530 -1.2931 -0.6825
 1769TIP3   OH226721   2.688   2.815  15.964 -0.4671  0.1497 -0.1029
 1769TIP3    H126722   2.755   2.794  15.900  0.0630  0.1590  0.4383
 1769TIP3    H226723   2.609   2.771  15.932  0.1678 -1.1352  0.0321
 1770TIP3   OH226724   5.361   4.696   3.699 -0.6804  0.5881  0.6004
 1770TIP3    H126725   5.442   4.741   3.676 -1.1745  1.0298 -0.3568
 1770TIP3    H226726   5.317   4.682   3.615 -0.0694 -2.6452  0.7177
 1771TIP3   OH226727   4.137   6.674   5.289  0.2628 -0.0975 -0.4397
 1771TIP3    H126728   4.071   6.734   5.253  1.5618  2.1381  0.7290
 1771TIP3    H226729   4.207   6.731   5.320  1.6552 -2.2673  0.6183
 1772TIP3   OH226730   6.570   2.547  16.781  0.2001 -0.0772 -0.0803
 1772TIP3    H126731   6.634   2.511  16.843 -0.8761  0.0608  1.1327
 1772TIP3    H226732   6.486   2.515  16.812 -0.5448  1.5436 -0.3527
 1773TIP3   OH226733   0.547   3.055  12.786  0.1969 -0.1598 -0.3490
 1773TIP3    H126734   0.625   3.088  12.831  0.1579  0.5984 -0.8105
 1773TIP3    H226735   0.546   2.961  12.804 -1.0853  0.3861  3.2123
 1774TIP3   OH226736   5.024   3.846   4.832 -0.7471  0.5013 -0.1616
 1774TIP3    H126737   5.046   3.767   4.783  0.4807  1.2544 -0.8790
 1774TIP3    H226738   4.960   3.817   4.898 -0.3046 -1.0789 -0.3914
 1775TIP3   OH226739   4.683   5.757  15.601 -0.2402 -0.4199  0.2488
 1775TIP3    H126740   4.610   5.803  15.561  0.0670 -0.3524 -0.2478
 1775TIP3    H226741   4.652   5.667  15.612 -0.5090 -0.3147  0.3387
 1776TIP3   OH226742   5.180   2.480  13.530 -0.4901  0.4263  0.2638
 1776TIP3    H126743   5.217   2.566  13.547  0.6000 -0.2445  1.5175
 1776TIP3    H226744   5.243   2.419  13.569 -0.9466 -0.9680 -1.0721
 1777TIP3   OH226745   3.560   4.798  10.887 -0.4005 -0.1237 -0.2754
 1777TIP3    H126746   3.559   4.822  10.795 -0.1454 -1.1936 -0.5752
 1777TIP3    H226747   3.559   4.702  10.887 -0.0173 -0.1449  0.8272
 1778TIP3   OH226748   5.536   4.483  15.850  0.0564 -0.2720 -0.0011
 1778TIP3    H126749   5.444   4.507  15.863 -0.4687 -2.2338  0.3200
 1778TIP3    H226750   5.538   4.444  15.762  0.9214  1.1368 -0.6357
 1779TIP3   OH226751   5.560   5.810   0.290  0.2875  0.1811 -0.1673
 1779TIP3    H126752   5.631   5.777   0.345 -0.4225 -0.7600  0.2085
 1779TIP3    H226753   5.488   5.827   0.350 -0.0484  0.4502 -0.6342
 1780TIP3   OH226754   4.528   2.211  17.569  0.2835 -0.1873  0.0078
 1780TIP3    H126755   4.462   2.200  17.637 -0.5260  0.1643 -0.6948
 1780TIP3    H226756   4.492   2.164  17.493  0.7374  0.1845 -0.4445
 1781TIP3   OH226757   4.097   2.746   3.672 -0.0800 -0.0204 -0.3259
 1781TIP3    H126758   4.040   2.807   3.623 -1.1175  0.9718  1.9430
 1781TIP3    H226759   4.170   2.729   3.613 -1.1869  1.1771 -2.1590
 1782TIP3   OH226760   1.187   3.009  16.625  0.0934 -0.2389  0.3778
 1782TIP3    H126761   1.188   3.053  16.710  0.1423  0.4483  0.0290
 1782TIP3    H226762   1.183   3.080  16.561  0.8584 -0.7202 -0.2187
 1783TIP3   OH226763   3.583   6.144   3.290  0.0147 -0.8872 -0.0252
 1783TIP3    H126764   3.529   6.075   3.328  1.0407 -0.8797  1.5243
 1783TIP3    H226765   3.667   6.138   3.336  0.5340  0.6434 -0.6789
 1784TIP3   OH226766   5.816   0.133  11.558  0.2965 -0.4169  0.3879
 1784TIP3    H126767   5.818   0.221  11.519  1.9153 -0.1868  0.9081
 1784TIP3    H226768   5.840   0.147  11.650 -1.2425 -1.2106  0.9463
 1785TIP3   OH226769   6.153   2.498  16.488  0.3889 -0.1975  0.6214
 1785TIP3    H126770   6.074   2.450  16.466  0.8113  0.0476 -1.7094
 1785TIP3    H226771   6.220   2.430  16.498  0.5604 -0.2496 -0.7009
 1786TIP3   OH226772   0.649   5.607   6.367  0.4969  0.6806  0.6348
 1786TIP3    H126773   0.701   5.686   6.382 -1.1131  1.4340  2.8227
 1786TIP3    H226774   0.558   5.637   6.378 -0.4166 -0.7499 -2.1403
 1787TIP3   OH226775   6.227   2.674  14.936 -0.3559 -0.6540 -0.1251
 1787TIP3    H126776   6.302   2.715  14.977  0.3173 -0.1132 -1.7878
 1787TIP3    H226777   6.263   2.635  14.856 -1.7132 -1.0182 -0.5776
 1788TIP3   OH226778   3.144   2.379  14.658  0.5874  0.1357 -0.0347
 1788TIP3    H126779   3.069   2.419  14.613  0.1348 -1.1536 -0.4770
 1788TIP3    H226780   3.111   2.357  14.745  0.9298  0.9928  0.3191
 1789TIP3   OH226781   2.665   2.345   3.844  0.7795  0.0903 -0.5701
 1789TIP3    H126782   2.578   2.386   3.841 -0.0715 -1.6530 -0.7343
 1789TIP3    H226783   2.684   2.321   3.753  0.8385 -0.7111 -0.3518
 1790TIP3   OH226784   4.184   5.085   4.984  0.1249  0.0616  0.5065
 1790TIP3    H126785   4.268   5.116   4.948 -1.6118  2.3530 -2.0067
 1790TIP3    H226786   4.178   5.126   5.070  0.1618  2.8335 -0.7046
 1791TIP3   OH226787   6.654   3.516   1.575  0.1566 -0.0403 -0.3373
 1791TIP3    H126788   6.717   3.474   1.517  1.8019  1.6478  0.1523
 1791TIP3    H226789   6.633   3.450   1.641 -0.7723 -1.5525 -2.0749
 1792TIP3   OH226790   3.753   2.065  12.273  0.3738 -0.4282  0.4985
 1792TIP3    H126791   3.810   2.106  12.338  0.2515  0.2753  0.1708
 1792TIP3    H226792   3.711   2.139  12.229 -1.4777 -0.9298  1.3298
 1793TIP3   OH226793   4.775   1.967   2.334  0.4574  0.1741  0.4199
 1793TIP3    H126794   4.683   1.943   2.339  0.0614  1.5066 -0.1566
 1793TIP3    H226795   4.808   1.956   2.423 -0.6822  1.3040  0.9976
 1794TIP3   OH226796   3.395   0.891  14.481  0.5253 -0.3540  0.2575
 1794TIP3    H126797   3.320   0.934  14.440 -1.6454 -3.3630  0.7002
 1794TIP3    H226798   3.365   0.871  14.570  2.9507  0.8023  1.4270
 1795TIP3   OH226799   2.062   0.958  16.914 -0.5669  0.0206  0.0120
 1795TIP3    H126800   2.005   0.993  16.983 -0.6017  0.1300 -0.0712
 1795TIP3    H226801   2.114   1.033  16.885  0.2509 -0.2628  0.7000
 1796TIP3   OH226802   4.432   5.144   5.445  0.1625  0.5566 -0.4551
 1796TIP3    H126803   4.425   5.181   5.533  1.2687  0.2113 -0.2060
 1796TIP3    H226804   4.509   5.087   5.449  0.6878  1.1282 -1.8468
 1797TIP3   OH226805   6.517   4.212  16.734  0.2056  0.1276 -0.1435
 1797TIP3    H126806   6.503   4.224  16.827  1.3541  2.8445 -0.2432
 1797TIP3    H226807   6.476   4.288  16.693 -1.7413 -1.7982 -2.0896
 1798TIP3   OH226808   4.932   0.873   6.823  0.0447  0.4242  0.6090
 1798TIP3    H126809   4.875   0.943   6.792  0.1503  1.1629  2.0298
 1798TIP3    H226810   4.963   0.831   6.743 -1.8717  0.4872 -0.2252
 1799TIP3   OH226811   2.693   3.600  13.706  0.6969 -0.1812 -0.0473
 1799TIP3    H126812   2.643   3.533  13.660  1.6146 -1.4983  0.8141
 1799TIP3    H226813   2.694   3.675  13.646 -0.1185 -1.0199 -1.1402
 1800TIP3   OH226814   3.181   2.089   5.966 -0.0666  0.0962  0.7347
 1800TIP3    H126815   3.208   2.137   6.045  0.0935 -0.2151  0.8712
 1800TIP3    H226816   3.250   2.023   5.953 -1.1579 -1.2590  1.5691
 1801TIP3   OH226817   0.842   2.025   4.308 -0.0696  0.9054  0.3974
 1801TIP3    H126818   0.760   2.051   4.350 -1.2148 -0.3290 -0.9340
 1801TIP3    H226819   0.877   1.956   4.365 -0.3031  0.9873  0.6412
 1802TIP3   OH226820   5.183   1.654  11.762  0.1571 -0.4221  0.6676
 1802TIP3    H126821   5.191   1.714  11.688  0.8296  0.4378  1.4196
 1802TIP3    H226822   5.114   1.693  11.816  1.0714  0.0560  1.5028
 1803TIP3   OH226823   2.165   0.930  14.401  0.3529  0.2594  0.0276
 1803TIP3    H126824   2.092   0.954  14.458 -0.3690 -1.1599 -0.2407
 1803TIP3    H226825   2.138   0.847  14.361  0.6001  1.4379 -2.7951
 1804TIP3   OH226826   1.415   6.523  15.197 -0.5457  0.6276  0.5656
 1804TIP3    H126827   1.446   6.603  15.241 -0.1848  1.7258 -1.5238
 1804TIP3    H226828   1.476   6.455  15.225  1.3660  1.8873 -0.3507
 1805TIP3   OH226829   0.521   3.161  17.089 -0.1690 -0.0733  0.2592
 1805TIP3    H126830   0.595   3.149  17.148  0.0769  2.4257  0.5453
 1805TIP3    H226831   0.555   3.214  17.017 -1.4942  0.5449  0.0440
 1806TIP3   OH226832   3.208   6.321  13.258 -0.2781  0.2417 -0.0541
 1806TIP3    H126833   3.140   6.346  13.321  0.7456 -2.2632  2.2353
 1806TIP3    H226834   3.171   6.247  13.210 -0.0356  0.4293 -0.5457
 1807TIP3   OH226835   0.039   4.097   4.763 -0.1369  0.4158 -0.4888
 1807TIP3    H126836  -0.031   4.052   4.715  0.3477  1.5869 -2.4109
 1807TIP3    H226837   0.006   4.103   4.853 -0.9081 -2.2291 -0.5106
 1808TIP3   OH226838   5.995   2.727  13.292  0.3332  0.1293  0.0992
 1808TIP3    H126839   5.999   2.748  13.199  0.9190  1.3670  0.3827
 1808TIP3    H226840   6.059   2.656  13.303  0.3592  0.0676 -0.4105
 1809TIP3   OH226841   5.354   1.467  12.253 -0.2780 -0.0501  0.0866
 1809TIP3    H126842   5.398   1.443  12.335 -2.1509 -0.9499  0.8903
 1809TIP3    H226843   5.414   1.529  12.211  2.5344 -2.3858  0.3062
 1810TIP3   OH226844   5.197   4.651  13.841 -0.0753  0.1612 -0.6706
 1810TIP3    H126845   5.284   4.617  13.823  0.0095  0.2761 -0.4754
 1810TIP3    H226846   5.163   4.674  13.754  0.6132  1.3777 -0.6457
 1811TIP3   OH226847   5.101   0.722  14.101 -0.1909 -0.1630  0.0866
 1811TIP3    H126848   5.171   0.787  14.092 -0.8656  0.9329  2.0817
 1811TIP3    H226849   5.050   0.731  14.021  2.1086 -1.2927 -1.6471
 1812TIP3   OH226850   5.243   5.993   3.056  0.4006  0.1035 -0.7036
 1812TIP3    H126851   5.220   5.901   3.043  0.9953 -0.0222 -0.9119
 1812TIP3    H226852   5.184   6.041   2.998 -1.3296  0.0278  0.9018
 1813TIP3   OH226853   0.532   4.671   0.434 -0.0720  0.5941 -0.3706
 1813TIP3    H126854   0.479   4.639   0.361 -0.4936 -0.6647  0.4534
 1813TIP3    H226855   0.599   4.604   0.446 -0.0966  0.7136  0.4867
 1814TIP3   OH226856   3.268   4.022   4.833 -0.0864  0.6880 -0.1966
 1814TIP3    H126857   3.275   4.102   4.884 -1.8240  0.9090 -0.2539
 1814TIP3    H226858   3.247   3.954   4.897 -0.5355  0.6397 -0.3938
 1815TIP3   OH226859   3.523   6.567   2.300  0.1944 -0.1014 -0.3000
 1815TIP3    H126860   3.590   6.499   2.308 -0.2027 -0.4407  0.2254
 1815TIP3    H226861   3.572   6.647   2.282  0.6956 -0.4515 -0.5056
 1816TIP3   OH226862   2.468   1.818  11.883  0.3897  0.8413 -0.0161
 1816TIP3    H126863   2.563   1.811  11.886  0.3327  0.3895  1.3925
 1816TIP3    H226864   2.445   1.869  11.960 -0.6423 -0.8975  0.8808
 1817TIP3   OH226865   4.378   0.151  13.548 -0.4242 -0.0992  0.1890
 1817TIP3    H126866   4.383   0.207  13.625 -1.1191  0.6503 -0.2964
 1817TIP3    H226867   4.460   0.100  13.550  0.5257  1.3742  0.2990
 1818TIP3   OH226868   4.181   2.262  14.965 -0.0297 -0.4564  0.4290
 1818TIP3    H126869   4.118   2.190  14.974 -0.0561 -0.7815 -1.8621
 1818TIP3    H226870   4.127   2.340  14.957 -0.2684 -0.7971 -2.1203
 1819TIP3   OH226871   3.944   5.142   5.966  0.3746  0.0402  0.0370
 1819TIP3    H126872   3.917   5.103   6.049 -2.1407  1.3431 -0.0800
 1819TIP3    H226873   3.914   5.232   5.971  2.6010  0.9394 -1.2485
 1820TIP3   OH226874   4.692   1.050  16.411  0.6568 -0.5308  0.4091
 1820TIP3    H126875   4.759   1.118  16.415  3.2329 -2.7093 -1.5767
 1820TIP3    H226876   4.675   1.026  16.502  0.1181  2.2306  1.1074
 1821TIP3   OH226877   3.857   3.917   6.260  0.2744 -0.2190  0.4342
 1821TIP3    H126878   3.911   3.981   6.213 -1.1840  0.4525 -0.4160
 1821TIP3    H226879   3.890   3.919   6.349  1.6348  0.1734 -0.0471
 1822TIP3   OH226880   4.333   4.802   2.312  0.1362  0.6582  0.3707
 1822TIP3    H126881   4.304   4.776   2.399  1.9468 -0.0300  0.8110
 1822TIP3    H226882   4.429   4.801   2.317  0.2801  1.4311 -1.3931
 1823TIP3   OH226883   1.375   3.048  15.679 -0.2432  0.3222  0.4520
 1823TIP3    H126884   1.462   3.025  15.709 -0.2552  1.2393  1.2516
 1823TIP3    H226885   1.390   3.105  15.603 -0.1912 -0.9738 -0.5321
 1824TIP3   OH226886   0.525   5.058  17.235 -0.2086  0.6920 -0.1874
 1824TIP3    H126887   0.550   5.116  17.306 -0.9907 -0.1029  0.7600
 1824TIP3    H226888   0.545   5.107  17.155 -0.4962  2.0809  0.5846
 1825TIP3   OH226889   1.038   5.147   1.191  0.0377 -0.0030  0.2354
 1825TIP3    H126890   0.990   5.116   1.114  2.0235 -3.6929  0.2332
 1825TIP3    H226891   0.973   5.146   1.262 -0.9155 -0.4698 -0.6111
 1826TIP3   OH226892   1.812   6.102   2.522 -0.0216 -0.4518  0.1440
 1826TIP3    H126893   1.815   6.011   2.492 -0.9935 -0.3342 -0.3310
 1826TIP3    H226894   1.811   6.154   2.442  0.3827 -0.0207  0.4136
 1827TIP3   OH226895   5.292   0.028  14.262 -0.4268  0.4267 -0.1827
 1827TIP3    H126896   5.293   0.119  14.291  0.3244  0.7007 -1.0324
 1827TIP3    H226897   5.283  -0.023  14.342 -3.9107  1.2941  0.1448
 1828TIP3   OH226898   0.032   0.372   5.558  0.1118 -0.3138  0.2440
 1828TIP3    H126899  -0.033   0.305   5.581  0.7975 -0.2753  2.5507
 1828TIP3    H226900   0.098   0.366   5.627  0.1581  2.7823  0.6134
 1829TIP3   OH226901   5.007   3.104  16.897  0.3103 -0.3421  0.2077
 1829TIP3    H126902   4.989   3.047  16.823  0.1324  1.3618 -1.1345
 1829TIP3    H226903   5.099   3.128  16.889  0.1408  0.3323  0.1558
 1830TIP3   OH226904   1.026   4.861  12.543 -0.0744  0.1621 -0.4773
 1830TIP3    H126905   1.116   4.881  12.568 -0.3352  2.0827 -0.8949
 1830TIP3    H226906   0.975   4.935  12.577 -1.9553 -2.1193  2.0562
 1831TIP3   OH226907   4.757   3.261  11.151  0.0418  0.5173  0.1806
 1831TIP3    H126908   4.744   3.278  11.244 -0.5196  1.2958 -0.0310
 1831TIP3    H226909   4.697   3.189  11.131  0.7872 -0.2384  0.5942
 1832TIP3   OH226910   6.225   3.723   4.048  0.2029  0.2053  0.1780
 1832TIP3    H126911   6.145   3.774   4.034 -0.8479 -0.6011  2.6949
 1832TIP3    H226912   6.296   3.783   4.027 -1.0257  2.0488  1.0884
 1833TIP3   OH226913   4.136   5.378  12.777 -0.2946  0.2364 -0.0663
 1833TIP3    H126914   4.104   5.377  12.687 -2.3527 -2.0114  0.5772
 1833TIP3    H226915   4.104   5.296  12.815  3.1527 -0.4297  1.8558
 1834TIP3   OH226916   2.625   2.744  14.884 -0.1102  0.2606  0.6735
 1834TIP3    H126917   2.646   2.669  14.940 -1.2108 -0.5417  0.0441
 1834TIP3    H226918   2.560   2.711  14.823 -0.9907  1.8584  0.6936
 1835TIP3   OH226919   0.941   0.586   2.524 -0.4315  0.2405 -0.1213
 1835TIP3    H126920   0.879   0.581   2.596 -0.0050 -2.2633  0.1490
 1835TIP3    H226921   1.023   0.553   2.560  0.2556  0.5908 -1.2942
 1836TIP3   OH226922   5.408   4.618   2.447  0.2407 -0.4013 -0.6257
 1836TIP3    H126923   5.468   4.689   2.465 -1.0700  0.6446 -0.2100
 1836TIP3    H226924   5.382   4.631   2.356  0.6515 -0.8557 -0.8085
 1837TIP3   OH226925   4.297   2.282  15.637  0.0667 -0.1656 -0.2689
 1837TIP3    H126926   4.357   2.293  15.711 -0.6745 -0.4865  0.4012
 1837TIP3    H226927   4.311   2.192  15.608  0.4527  0.0023 -0.6099
 1838TIP3   OH226928   4.324   0.389  12.597  0.0361 -0.2554  0.3567
 1838TIP3    H126929   4.294   0.396  12.688 -3.0226 -1.6824 -0.4145
 1838TIP3    H226930   4.285   0.464  12.553 -1.4163 -1.4298 -0.4233
 1839TIP3   OH226931   4.390   3.992  11.285  0.2411  0.0095  0.1458
 1839TIP3    H126932   4.356   4.080  11.270  0.9670  0.1133 -1.0271
 1839TIP3    H226933   4.368   3.973  11.376  1.8422  2.2072  1.0765
 1840TIP3   OH226934   0.917   2.900  12.187 -0.3748  0.6203  0.6486
 1840TIP3    H126935   0.977   2.843  12.235 -3.0563 -0.4563  3.1163
 1840TIP3    H226936   0.847   2.841  12.158 -0.2095  1.7408 -2.3817
 1841TIP3   OH226937   2.509   2.797  14.059  0.5078  0.3644 -0.0327
 1841TIP3    H126938   2.562   2.866  14.019 -0.6891  1.1201 -0.3591
 1841TIP3    H226939   2.419   2.817  14.033  0.1709 -1.6621 -0.6595
 1842TIP3   OH226940   6.688   4.440  16.528 -0.2404  0.2162 -0.2827
 1842TIP3    H126941   6.594   4.449  16.545 -0.4500  1.5763 -1.8748
 1842TIP3    H226942   6.728   4.502  16.588 -0.5526  1.1244 -0.9792
 1843TIP3   OH226943   0.947   1.188  12.917 -0.0632  0.3802  0.7260
 1843TIP3    H126944   0.924   1.232  12.835  1.5177 -0.9953 -0.5516
 1843TIP3    H226945   0.901   1.104  12.912  1.4369 -0.4586  0.3383
 1844TIP3   OH226946   6.418   2.206   6.216  0.6661 -0.6146  0.4931
 1844TIP3    H126947   6.505   2.213   6.255  1.3821 -2.8091 -0.5220
 1844TIP3    H226948   6.392   2.115   6.231 -1.7895  0.1400  1.3541
 1845TIP3   OH226949   0.857   3.453  11.116 -0.2384 -0.4472 -0.2180
 1845TIP3    H126950   0.854   3.372  11.167  0.4181 -0.9894 -1.0120
 1845TIP3    H226951   0.795   3.439  11.045 -2.3858  0.9420  1.2694
 1846TIP3   OH226952   2.921   0.672   0.202 -0.0068 -0.5134 -0.0915
 1846TIP3    H126953   2.908   0.577   0.196  0.6066 -0.7569  1.6683
 1846TIP3    H226954   2.845   0.703   0.251  0.1091 -0.1947 -0.1124
 1847TIP3   OH226955   2.720   3.341   0.807  0.4438  0.5642  0.1057
 1847TIP3    H126956   2.724   3.413   0.744 -1.4554 -0.1286 -0.9066
 1847TIP3    H226957   2.810   3.327   0.834  1.2077  1.4950 -1.7872
 1848TIP3   OH226958   3.865   0.201  11.713  0.2270  0.4526 -0.2821
 1848TIP3    H126959   3.945   0.173  11.758 -0.7666 -1.2082  0.5475
 1848TIP3    H226960   3.879   0.174  11.622  0.2785 -0.6299  0.0300
 1849TIP3   OH226961   4.112   3.283   5.223  0.0084  0.0699  0.1232
 1849TIP3    H126962   4.018   3.272   5.212  0.1827 -0.0870 -1.5123
 1849TIP3    H226963   4.139   3.210   5.279 -0.7074 -0.4598 -0.2165
 1850TIP3   OH226964   2.394   5.881   3.318  0.5620 -0.0357  0.3602
 1850TIP3    H126965   2.428   5.957   3.365  0.2481 -0.1247  0.7449
 1850TIP3    H226966   2.302   5.902   3.303  0.8660  0.3805 -1.0382
 1851TIP3   OH226967   6.396   1.228   4.812 -0.0841 -0.0994 -0.9775
 1851TIP3    H126968   6.369   1.139   4.787 -1.3242 -0.9260  2.6043
 1851TIP3    H226969   6.314   1.273   4.831  0.6002  1.4134 -1.5036
 1852TIP3   OH226970   1.914   3.746   4.965 -0.0030  0.1030  0.3826
 1852TIP3    H126971   1.980   3.814   4.980  0.5226 -0.1624 -0.6253
 1852TIP3    H226972   1.861   3.747   5.044  1.0041  0.5654  1.0837
 1853TIP3   OH226973   1.897   2.594   4.942 -0.0431 -0.1781 -0.3214
 1853TIP3    H126974   1.960   2.549   4.998  0.3045  1.4973  0.7132
 1853TIP3    H226975   1.827   2.621   5.001 -0.5295  0.1201 -1.0212
 1854TIP3   OH226976   3.721   2.850   4.454 -0.1314 -0.7618  0.6227
 1854TIP3    H126977   3.773   2.882   4.380  0.4080 -0.7932  0.9785
 1854TIP3    H226978   3.653   2.917   4.466 -1.0813 -1.4447 -0.7665
 1855TIP3   OH226979   2.671   4.592   5.157 -0.1475  0.0816  0.8209
 1855TIP3    H126980   2.622   4.515   5.129  0.5047  0.0819 -0.4013
 1855TIP3    H226981   2.763   4.570   5.139 -0.0881  1.8663 -1.4925
 1856TIP3   OH226982   0.379   4.494  14.163 -0.4996  0.0528  0.0021
 1856TIP3    H126983   0.390   4.544  14.082 -0.6487 -1.0297 -0.7104
 1856TIP3    H226984   0.402   4.556  14.233 -0.3801  1.0094 -0.8569
 1857TIP3   OH226985   2.583   4.737  15.292  0.1609 -0.4180  0.2120
 1857TIP3    H126986   2.618   4.723  15.204  0.5575 -1.9573  0.5815
 1857TIP3    H226987   2.607   4.827  15.314 -0.9205  0.3689 -1.6686
 1858TIP3   OH226988   2.728   1.219   1.258  0.0813 -0.7273  0.4855
 1858TIP3    H126989   2.817   1.203   1.291  0.2799 -2.5151 -0.8300
 1858TIP3    H226990   2.696   1.133   1.230 -1.7020  0.0428  0.0202
 1859TIP3   OH226991   2.733   1.991   5.520 -0.3507 -0.4278  0.4220
 1859TIP3    H126992   2.748   1.969   5.612 -1.9693 -1.8543  0.3976
 1859TIP3    H226993   2.644   2.026   5.518 -0.0186  0.4009 -0.4986
 1860TIP3   OH226994   2.782   2.936   0.200  0.2471 -0.0154 -0.0653
 1860TIP3    H126995   2.852   2.915   0.139  0.0748 -1.4478  0.2037
 1860TIP3    H226996   2.825   2.948   0.285  0.3221  0.5424 -0.1795
 1861TIP3   OH226997   4.862   2.690  14.069 -0.4465  0.1517  0.0690
 1861TIP3    H126998   4.823   2.700  13.982 -0.1079  1.3587  0.0402
 1861TIP3    H226999   4.818   2.613  14.106 -1.0810  0.0274 -0.9029
 1862TIP3   OH227000   2.695   4.863  10.330  0.1071  0.0749 -0.3807
 1862TIP3    H127001   2.775   4.901  10.367  0.5356 -1.4655  0.3220
 1862TIP3    H227002   2.725   4.787  10.280 -0.7868  0.3274 -1.3438
 1863TIP3   OH227003   3.794   4.080   6.492  0.0686  0.1115  0.2438
 1863TIP3    H127004   3.841   4.163   6.492 -1.1493  0.8132  1.2132
 1863TIP3    H227005   3.717   4.095   6.437 -1.3779  0.3656  2.2583
 1864TIP3   OH227006   1.573   6.232   2.600 -0.4650  0.4097 -0.2338
 1864TIP3    H127007   1.587   6.302   2.536  1.0619  0.7593  0.4323
 1864TIP3    H227008   1.636   6.165   2.576  0.5041  0.7773  1.2034
 1865TIP3   OH227009   3.457   4.303  10.878 -0.4456 -0.4295  0.1685
 1865TIP3    H127010   3.436   4.393  10.852 -2.8341 -1.0895 -0.4881
 1865TIP3    H227011   3.548   4.306  10.906 -0.0754  1.9329 -1.0528
 1866TIP3   OH227012   2.230   2.610   5.277 -0.0885  0.2116 -0.1619
 1866TIP3    H127013   2.311   2.652   5.246 -2.7339  3.8258 -3.1735
 1866TIP3    H227014   2.189   2.576   5.198 -2.3373  0.2012  0.9293
 1867TIP3   OH227015   2.510   0.285  11.493  0.1145  0.4787 -0.2323
 1867TIP3    H127016   2.585   0.232  11.522  0.4411  2.7583  3.8387
 1867TIP3    H227017   2.433   0.239  11.528  0.0789  0.7717  0.0791
 1868TIP3   OH227018   2.045   4.120  15.887  0.5978  0.2869 -0.4499
 1868TIP3    H127019   2.007   4.143  15.972  0.0532 -1.9154 -0.0427
 1868TIP3    H227020   1.971   4.087  15.836  1.5447 -2.1528 -0.3510
 1869TIP3   OH227021   4.426   4.024  11.880  0.2717  0.7905 -0.1970
 1869TIP3    H127022   4.383   4.103  11.913 -2.2492 -0.0832 -1.1387
 1869TIP3    H227023   4.379   4.003  11.800  1.3204 -1.2877 -0.3368
 1870TIP3   OH227024   2.353   5.809  16.505  0.0593  0.5636  0.0503
 1870TIP3    H127025   2.296   5.822  16.429  0.8372  0.5633 -0.5382
 1870TIP3    H227026   2.437   5.845  16.479  0.9604 -1.3934  0.0989
 1871TIP3   OH227027   1.366   5.981  11.318  0.6404 -0.1448 -0.9377
 1871TIP3    H127028   1.281   5.943  11.298 -0.2066  0.9858  0.3511
 1871TIP3    H227029   1.371   6.059  11.264  0.0714  0.7330  0.2233
 1872TIP3   OH227030   5.299   5.172   5.693 -0.7697 -0.6968  0.0438
 1872TIP3    H127031   5.209   5.181   5.725 -0.4048  1.5323  0.5803
 1872TIP3    H227032   5.353   5.183   5.771 -0.0016 -1.6435 -0.3384
 1873TIP3   OH227033   2.641   1.608   3.678 -0.8548  0.1925  0.5244
 1873TIP3    H127034   2.689   1.581   3.756  0.2193  0.9813  0.1680
 1873TIP3    H227035   2.594   1.530   3.651  0.2193 -0.6203  0.9138
 1874TIP3   OH227036   4.904   6.105  14.345  0.0763 -1.0804  0.3275
 1874TIP3    H127037   4.822   6.077  14.387  0.5138 -1.1700  1.1303
 1874TIP3    H227038   4.968   6.038  14.368  0.1220 -1.6223 -1.2600
 1875TIP3   OH227039   5.445   5.383  12.075  0.5174  0.4424  0.7243
 1875TIP3    H127040   5.433   5.429  12.158  0.2785 -0.0209  0.9474
 1875TIP3    H227041   5.467   5.452  12.013 -2.2200  1.2464  0.5110
 1876TIP3   OH227042   3.138   2.382   0.664 -0.0815  0.2985  0.3170
 1876TIP3    H127043   3.100   2.459   0.620 -0.2335  0.4005  0.6244
 1876TIP3    H227044   3.121   2.397   0.757 -2.0917 -1.1536  0.2401
 1877TIP3   OH227045   0.662   6.106   1.703  0.3432  0.4735  0.5571
 1877TIP3    H127046   0.701   6.190   1.725 -0.7746  1.0598  0.3398
 1877TIP3    H227047   0.737   6.050   1.681  0.9768  2.0230 -1.4803
 1878TIP3   OH227048   2.493   0.441   2.232  0.3459 -0.5330  0.2249
 1878TIP3    H127049   2.427   0.442   2.301  0.8881  0.3678  0.7468
 1878TIP3    H227050   2.458   0.380   2.166 -0.6755 -0.5856  0.7956
 1879TIP3   OH227051   4.413   3.296  11.460  0.8229  0.0756  0.2592
 1879TIP3    H127052   4.437   3.228  11.397 -1.3946 -1.5421  1.0301
 1879TIP3    H227053   4.317   3.297  11.458  0.7676  2.0532  1.4993
 1880TIP3   OH227054   6.614   4.237   2.688 -0.2693 -0.3205 -0.2160
 1880TIP3    H127055   6.533   4.269   2.730 -1.1847  0.6320 -2.5510
 1880TIP3    H227056   6.677   4.307   2.702 -0.1439 -0.6022  0.6989
 1881TIP3   OH227057   3.125   5.577  13.092  0.0321  0.0492 -0.2444
 1881TIP3    H127058   3.204   5.582  13.038 -0.3487 -1.4779 -0.9861
 1881TIP3    H227059   3.054   5.560  13.030 -0.7692  0.5841  0.4985
 1882TIP3   OH227060   5.763   1.573  16.476  0.3270 -0.0566  0.1687
 1882TIP3    H127061   5.755   1.659  16.435 -0.2054 -0.3216 -0.3014
 1882TIP3    H227062   5.853   1.569  16.507  0.3655  0.6532  0.1533
 1883TIP3   OH227063   1.401   2.951   2.587 -0.7029 -0.3421 -0.2937
 1883TIP3    H127064   1.415   3.017   2.519 -0.2634 -1.5392 -1.4076
 1883TIP3    H227065   1.488   2.932   2.621 -1.0508  1.2368  1.6225
 1884TIP3   OH227066   2.125   0.875  10.484 -0.2595 -0.9455  0.1062
 1884TIP3    H127067   2.045   0.868  10.433  0.3189 -0.3164 -0.9217
 1884TIP3    H227068   2.161   0.786  10.486  0.6011 -0.7032 -2.1114
 1885TIP3   OH227069   2.134   2.168  16.243 -0.4651  0.4993  0.1815
 1885TIP3    H127070   2.218   2.130  16.268  0.1689  1.6842 -0.0761
 1885TIP3    H227071   2.122   2.241  16.303 -1.5419  0.0613  0.5136
 1886TIP3   OH227072   2.696   4.254  13.983 -0.3660 -0.7555  0.2024
 1886TIP3    H127073   2.771   4.313  13.975 -0.2822 -0.8032  0.6147
 1886TIP3    H227074   2.712   4.185  13.919 -0.6822 -0.1015 -0.6055
 1887TIP3   OH227075   2.164   0.557   2.047 -0.3137  0.5814 -0.0586
 1887TIP3    H127076   2.228   0.487   2.063 -0.0308  0.8182 -0.1680
 1887TIP3    H227077   2.084   0.510   2.021 -0.4134  0.2458  0.8109
 1888TIP3   OH227078   0.154   2.668  15.956  0.1219 -0.1683  0.3293
 1888TIP3    H127079   0.240   2.650  15.918 -0.0675 -0.9974  0.2717
 1888TIP3    H227080   0.172   2.709  16.041  0.5555  0.9954 -0.2961
 1889TIP3   OH227081   3.730   5.397  11.018 -0.2531 -0.5711  0.1561
 1889TIP3    H127082   3.825   5.403  11.018 -0.2789 -0.1024 -0.4580
 1889TIP3    H227083   3.703   5.434  10.934 -0.9782 -0.6782  0.3338
 1890TIP3   OH227084   6.495   5.551  10.811  0.3259 -0.4277 -1.0629
 1890TIP3    H127085   6.582   5.524  10.782  0.7540  0.5257 -0.6953
 1890TIP3    H227086   6.439   5.535  10.734  0.5599 -2.1910 -0.9114
 1891TIP3   OH227087   3.734   4.345  17.361  0.7177 -0.1655 -0.2464
 1891TIP3    H127088   3.773   4.366  17.277 -0.1361 -0.9489 -0.8634
 1891TIP3    H227089   3.781   4.267  17.391  1.0591  0.1454  0.0313
 1892TIP3   OH227090   0.363   4.893   6.266 -0.4311  0.6742 -0.0758
 1892TIP3    H127091   0.285   4.887   6.320  0.1902  0.3091  0.7934
 1892TIP3    H227092   0.436   4.883   6.327  0.2872  0.3054 -0.9661
 1893TIP3   OH227093   5.793   5.729  15.133 -0.0030  0.0838 -0.5591
 1893TIP3    H127094   5.754   5.816  15.132 -0.4450 -0.1134 -0.5969
 1893TIP3    H227095   5.841   5.725  15.216 -1.9772 -0.5024  0.6227
 1894TIP3   OH227096   1.459   6.209  14.969  0.1126  0.3220 -0.1580
 1894TIP3    H127097   1.379   6.238  15.014 -0.8392 -2.4234  0.0758
 1894TIP3    H227098   1.441   6.225  14.877 -0.6464 -0.0929 -0.0906
 1895TIP3   OH227099   4.964   0.879   1.676 -0.2968  0.2029  0.3706
 1895TIP3    H127100   4.957   0.784   1.666 -1.9005  0.3947 -0.6222
 1895TIP3    H227101   4.973   0.913   1.587  1.1551  0.9458  0.7753
 1896TIP3   OH227102   1.081   3.064  10.443  0.0880  0.5626 -0.6108
 1896TIP3    H127103   1.131   3.059  10.361  0.5561 -0.1547 -0.2930
 1896TIP3    H227104   0.990   3.063  10.415  0.2124 -1.2463 -1.0718
 1897TIP3   OH227105   5.745   3.146  16.967 -0.3634  0.0347 -0.1713
 1897TIP3    H127106   5.802   3.199  16.911 -1.2461  0.3553 -0.7821
 1897TIP3    H227107   5.802   3.118  17.039  0.0954  1.9276  0.2560
 1898TIP3   OH227108   2.571   4.414   3.977  0.0919  0.4106  1.2613
 1898TIP3    H127109   2.548   4.506   3.989  1.3221  0.7746  1.0005
 1898TIP3    H227110   2.614   4.411   3.891 -2.5911 -0.9633 -0.1754
 1899TIP3   OH227111   1.091   2.596  13.804  0.0641 -0.4917 -0.0420
 1899TIP3    H127112   1.013   2.569  13.755  0.0314 -0.2058 -0.1542
 1899TIP3    H227113   1.060   2.669  13.858  0.1287 -0.7273  0.3158
 1900TIP3   OH227114   0.697   5.029   4.031  0.2121 -0.1099  0.0677
 1900TIP3    H127115   0.708   4.941   4.067  1.7380  0.0283  0.0031
 1900TIP3    H227116   0.658   5.079   4.102 -0.8538 -0.8572  0.0443
 1901TIP3   OH227117   1.609   3.340  15.818 -0.7223 -0.3341 -0.2114
 1901TIP3    H127118   1.599   3.377  15.730 -2.0231  0.0534  0.0757
 1901TIP3    H227119   1.680   3.391  15.858 -0.2822 -0.3601 -0.9518
 1902TIP3   OH227120   3.346   5.319  11.914  0.0047 -0.9040  0.3246
 1902TIP3    H127121   3.369   5.293  12.002  1.5397 -1.0664 -0.1011
 1902TIP3    H227122   3.361   5.241  11.860 -0.3111 -0.6268 -0.1792
 1903TIP3   OH227123   3.364   2.624  13.510  0.1764 -0.2213 -0.4644
 1903TIP3    H127124   3.319   2.553  13.557  1.6414 -1.6295 -1.1211
 1903TIP3    H227125   3.415   2.668  13.578 -0.3681 -0.0770 -0.1378
 1904TIP3   OH227126   6.465   2.648   1.527  0.0740 -0.2117 -0.0422
 1904TIP3    H127127   6.505   2.562   1.531  0.9757  0.2368  1.7294
 1904TIP3    H227128   6.539   2.709   1.531 -0.5141  0.6832 -1.7254
 1905TIP3   OH227129   1.634   1.718   2.715 -0.5550  0.3046 -0.7616
 1905TIP3    H127130   1.688   1.679   2.783 -1.4025  1.5176  0.6838
 1905TIP3    H227131   1.655   1.812   2.719 -0.2053  0.3404 -2.5877
 1906TIP3   OH227132   1.860   4.062   0.371 -0.2749 -0.6909  0.1183
 1906TIP3    H127133   1.855   3.967   0.384 -0.3955 -0.6449  0.4278
 1906TIP3    H227134   1.938   4.088   0.420 -1.3627 -0.3556  1.7614
 1907TIP3   OH227135   2.614   5.781   4.929 -0.2359 -0.3287  0.0618
 1907TIP3    H127136   2.577   5.715   4.987 -1.6960 -0.0115 -0.4626
 1907TIP3    H227137   2.665   5.732   4.864 -0.4387 -0.8505  0.2990
 1908TIP3   OH227138   4.267   4.868  11.197  0.1337 -0.2170  0.3492
 1908TIP3    H127139   4.194   4.864  11.258  0.7105 -1.3174  0.9975
 1908TIP3    H227140   4.289   4.777  11.180  0.5488  0.0831 -0.8274
 1909TIP3   OH227141   1.241   2.312   2.670 -1.0196 -0.5898 -0.1581
 1909TIP3    H127142   1.255   2.258   2.592  0.4369 -0.5879  0.0847
 1909TIP3    H227143   1.187   2.385   2.638  0.6934  0.1524 -1.5076
 1910TIP3   OH227144   0.536   3.495   1.029 -0.5924 -0.7306  0.1435
 1910TIP3    H127145   0.620   3.457   1.053  0.6060  2.8387  2.2868
 1910TIP3    H227146   0.531   3.484   0.934  2.1439 -1.3422 -0.0024
 1911TIP3   OH227147   0.882   0.851  14.742  0.2040  0.4307  0.4313
 1911TIP3    H127148   0.804   0.893  14.778 -0.4153 -0.6003  0.3355
 1911TIP3    H227149   0.908   0.787  14.808  1.4241  1.2741  0.7952
 1912TIP3   OH227150   0.314   5.796  15.053 -0.0008 -0.1437  0.5677
 1912TIP3    H127151   0.251   5.732  15.083 -0.8347 -0.5057 -1.7382
 1912TIP3    H227152   0.378   5.746  15.003 -0.9429  0.7683 -1.7106
 1913TIP3   OH227153   2.295   0.216  12.667  0.2054 -0.4180 -0.5417
 1913TIP3    H127154   2.347   0.170  12.732 -2.7324 -0.7829  1.7742
 1913TIP3    H227155   2.210   0.172  12.668 -0.4302  0.4820 -3.6585
 1914TIP3   OH227156   6.284   2.253   3.314  0.1378  0.0701 -0.1182
 1914TIP3    H127157   6.198   2.247   3.273 -0.5483 -0.4991  1.3432
 1914TIP3    H227158   6.305   2.347   3.311 -0.0048  0.0863 -1.4609
 1915TIP3   OH227159   0.762   3.222   5.090  0.4144  0.0393  0.2006
 1915TIP3    H127160   0.807   3.142   5.118 -1.5876 -1.1916  0.0740
 1915TIP3    H227161   0.670   3.196   5.082 -0.0633  1.9834 -1.3013
 1916TIP3   OH227162   4.341   2.169  11.299  0.0061 -0.3005 -0.5380
 1916TIP3    H127163   4.269   2.108  11.315 -0.2622  0.3890  1.0659
 1916TIP3    H227164   4.414   2.135  11.351 -0.1805  0.7873  0.4614
 1917TIP3   OH227165   0.001   3.552   4.128 -0.5439  0.0372  0.4281
 1917TIP3    H127166  -0.025   3.477   4.182 -1.0418 -0.6099 -0.6665
 1917TIP3    H227167   0.087   3.527   4.093 -0.2099  0.4666  0.9272
 1918TIP3   OH227168   4.244   5.925  10.807  0.4397  0.0097 -0.3787
 1918TIP3    H127169   4.180   5.974  10.859  0.1670  1.0145 -1.6059
 1918TIP3    H227170   4.318   5.985  10.799  1.4729 -1.0661  0.8520
 1919TIP3   OH227171   3.938   6.467   2.919 -0.0034  0.7177 -0.3636
 1919TIP3    H127172   4.030   6.475   2.895 -0.3510  1.3624 -1.5867
 1919TIP3    H227173   3.891   6.488   2.838 -1.2127 -1.6943 -0.3844
 1920TIP3   OH227174   4.695   6.000  16.895 -0.6241 -0.0788 -0.0583
 1920TIP3    H127175   4.665   6.082  16.933  0.4336  1.0620 -1.5793
 1920TIP3    H227176   4.666   6.004  16.804  1.4091 -0.3286 -0.7482
 1921TIP3   OH227177   0.167   2.824  16.179 -0.8118  0.0983  0.3551
 1921TIP3    H127178   0.172   2.917  16.158 -0.7705  0.1409  0.5499
 1921TIP3    H227179   0.216   2.816  16.261  0.8463 -0.4140 -0.6424
 1922TIP3   OH227180   5.320   4.791   0.284 -0.4624 -0.2013 -1.0021
 1922TIP3    H127181   5.390   4.770   0.223  0.0899 -0.0458 -0.4269
 1922TIP3    H227182   5.357   4.858   0.341 -0.2675 -1.7629  0.7809
 1923TIP3   OH227183   2.810   2.883   6.577  0.7738 -0.3898 -0.0550
 1923TIP3    H127184   2.721   2.860   6.604  1.2554 -0.9739  1.1401
 1923TIP3    H227185   2.865   2.854   6.650  1.9225  0.1849 -0.6631
 1924TIP3   OH227186   4.536   5.301   3.554  0.4200  0.2398  0.0817
 1924TIP3    H127187   4.609   5.252   3.592  0.0091 -0.0255  0.5338
 1924TIP3    H227188   4.535   5.273   3.462  0.3987 -0.3548  0.2550
 1925TIP3   OH227189   0.636   3.176  15.261  0.2988 -0.6655  0.6099
 1925TIP3    H127190   0.632   3.100  15.320  0.6016 -1.0637  0.1271
 1925TIP3    H227191   0.545   3.202  15.250  0.0568 -1.7905 -0.2584
 1926TIP3   OH227192   3.432   1.552   2.957  1.2279  0.2906  0.1307
 1926TIP3    H127193   3.424   1.642   2.924 -0.6362 -0.0033 -0.3001
 1926TIP3    H227194   3.440   1.498   2.879 -1.7003 -0.2658  0.1201
 1927TIP3   OH227195   3.332   3.233   4.869  0.0080  0.5091 -0.5703
 1927TIP3    H127196   3.370   3.148   4.846  0.0884  0.1925  0.6574
 1927TIP3    H227197   3.372   3.255   4.953  0.3070  1.9722 -1.0634
 1928TIP3   OH227198   5.724   3.581  17.230  0.4145  0.1757 -0.5323
 1928TIP3    H127199   5.786   3.512  17.253  0.4130  0.9724  2.1462
 1928TIP3    H227200   5.776   3.662  17.235 -0.5396  0.7445  0.5632
 1929TIP3   OH227201   1.140   5.373   3.683 -0.0172 -0.4192  0.0463
 1929TIP3    H127202   1.156   5.286   3.721  1.5232 -0.2052 -0.0528
 1929TIP3    H227203   1.091   5.419   3.751 -0.8163 -1.3374  0.1209
 1930TIP3   OH227204   5.860   0.428  13.099 -0.3286 -0.6638 -0.2037
 1930TIP3    H127205   5.838   0.385  13.181  1.6452 -0.6476  0.3873
 1930TIP3    H227206   5.792   0.400  13.038 -2.6977  0.4907  1.7522
 1931TIP3   OH227207   1.338   4.188   1.317 -0.2386  0.7244  0.3157
 1931TIP3    H127208   1.272   4.141   1.367 -0.0037 -1.0782 -0.9763
 1931TIP3    H227209   1.287   4.235   1.250 -0.2496 -2.4398 -2.1306
 1932TIP3   OH227210   1.267   6.480  11.791 -0.3792 -0.1230 -0.8407
 1932TIP3    H127211   1.340   6.529  11.751  1.4284  0.4854  2.7812
 1932TIP3    H227212   1.199   6.546  11.804 -0.0359  0.2328 -0.7950
 1933TIP3   OH227213   4.127   1.820   6.010  0.2265  0.1024 -0.6879
 1933TIP3    H127214   4.186   1.751   6.041 -0.0236  0.9800  2.0816
 1933TIP3    H227215   4.078   1.780   5.939 -0.4048 -2.9048  1.2486
 1934TIP3   OH227216   5.344   3.841   0.979 -0.4540  0.1883  0.4471
 1934TIP3    H127217   5.338   3.746   0.995  1.2763  0.1266  0.9121
 1934TIP3    H227218   5.366   3.848   0.886 -1.0327  0.1632  0.3044
 1935TIP3   OH227219   6.101   5.202   2.320 -0.3389  0.4549 -0.0830
 1935TIP3    H127220   6.176   5.143   2.320 -1.0008 -0.4411  1.7948
 1935TIP3    H227221   6.137   5.286   2.349 -0.0244  0.0591  0.6981
 1936TIP3   OH227222   3.437   2.645  14.759  0.4935  0.4452  0.2121
 1936TIP3    H127223   3.426   2.585  14.685  2.9230  0.1313  0.0365
 1936TIP3    H227224   3.468   2.726  14.719 -1.5953  1.5014  0.5820
 1937TIP3   OH227225   1.591   4.533  13.867 -0.5349  0.4685 -0.7239
 1937TIP3    H127226   1.500   4.506  13.855 -0.7955  1.7350 -1.7736
 1937TIP3    H227227   1.605   4.527  13.962 -1.4374 -0.5403 -0.6316
 1938TIP3   OH227228   5.808   3.556   1.381 -0.3339  0.7550  0.3917
 1938TIP3    H127229   5.881   3.525   1.435  0.3682  1.8484  0.1055
 1938TIP3    H227230   5.730   3.534   1.430  0.2734  1.3547  1.6572
 1939TIP3   OH227231   2.246   1.777  11.702  0.4617  0.0429 -0.0555
 1939TIP3    H127232   2.218   1.686  11.715 -0.6769  0.3142 -0.5252
 1939TIP3    H227233   2.327   1.784  11.752  1.2777 -1.5985 -1.0415
 1940TIP3   OH227234   4.326   0.570   1.978  0.2783  0.0491  0.6053
 1940TIP3    H127235   4.242   0.614   1.991 -1.4460 -2.1009 -2.1043
 1940TIP3    H227236   4.348   0.533   2.064 -1.2417  1.1116  1.4965
 1941TIP3   OH227237   0.174   0.487   1.901 -0.0721  0.2660  0.9314
 1941TIP3    H127238   0.143   0.538   1.826  0.2864  0.5009  0.9424
 1941TIP3    H227239   0.096   0.475   1.956 -0.5111 -0.5385  0.1737
 1942TIP3   OH227240   4.507   1.526  10.655 -0.3259  0.0068 -0.2631
 1942TIP3    H127241   4.421   1.566  10.666 -0.8213 -0.6818 -1.4263
 1942TIP3    H227242   4.550   1.537  10.740 -2.2030 -1.1367  0.9062
 1943TIP3   OH227243   0.257   4.136  11.569  0.0194 -0.3446  0.4468
 1943TIP3    H127244   0.269   4.045  11.596 -1.5495  0.1325  3.1101
 1943TIP3    H227245   0.242   4.132  11.475  0.6512 -2.7499  0.3974
 1944TIP3   OH227246   1.835   2.524   4.620 -0.0312  0.2147  0.0962
 1944TIP3    H127247   1.887   2.451   4.585 -0.4316 -0.3702  0.6728
 1944TIP3    H227248   1.797   2.488   4.701 -2.2983  0.2036 -0.8922
 1945TIP3   OH227249   4.215   0.608   4.752 -0.1225  0.5547 -0.2435
 1945TIP3    H127250   4.230   0.673   4.684 -0.4187  1.1625  0.2628
 1945TIP3    H227251   4.259   0.643   4.829 -0.3541  0.1948  0.0551
 1946TIP3   OH227252   0.736   1.858   5.457  0.3899 -0.4004 -0.3399
 1946TIP3    H127253   0.819   1.904   5.448 -0.3349  0.8875 -0.7086
 1946TIP3    H227254   0.711   1.836   5.367 -0.6526  1.0871 -0.4535
 1947TIP3   OH227255   2.854   4.698  15.515 -0.4245  0.3770  0.1337
 1947TIP3    H127256   2.820   4.738  15.435 -1.2819 -0.6446 -0.0347
 1947TIP3    H227257   2.803   4.618  15.526  1.1494 -0.6381  0.5082
 1948TIP3   OH227258   5.611   3.004  15.520  0.1746 -0.1468  0.1086
 1948TIP3    H127259   5.657   2.920  15.521  0.7941  0.1895 -0.2895
 1948TIP3    H227260   5.545   2.994  15.451 -0.3059 -0.5943  0.6199
 1949TIP3   OH227261   2.803   6.442   0.344  0.0239  0.2342  0.2067
 1949TIP3    H127262   2.845   6.411   0.424 -0.9610 -1.3429  0.1545
 1949TIP3    H227263   2.749   6.516   0.373 -2.0310 -1.6506  1.4867
 1950TIP3   OH227264   4.604   6.610  11.215 -0.4135  0.5005 -0.5962
 1950TIP3    H127265   4.652   6.654  11.145 -0.6112  0.5616 -0.6909
 1950TIP3    H227266   4.515   6.644  11.210 -0.3208  0.8483 -0.0311
 1951TIP3   OH227267   0.455   2.497   1.110  0.2212  0.0336 -0.3014
 1951TIP3    H127268   0.482   2.405   1.116  0.3541  0.0967  0.1532
 1951TIP3    H227269   0.374   2.495   1.059  1.2506 -0.1140 -1.9955
 1952TIP3   OH227270   0.160   2.720   6.378 -0.7674 -0.0247  0.5385
 1952TIP3    H127271   0.202   2.760   6.454 -0.5415  0.0713  0.3633
 1952TIP3    H227272   0.222   2.731   6.307  0.3479 -2.6928  0.9647
 1953TIP3   OH227273   0.299   0.804  11.779 -0.4742 -0.0026  0.0048
 1953TIP3    H127274   0.380   0.851  11.799 -0.5325 -0.0742  0.4022
 1953TIP3    H227275   0.230   0.867  11.796 -0.4788  0.3219 -1.0811
 1954TIP3   OH227276   2.001   2.957  13.993 -0.2529  0.3573  0.8654
 1954TIP3    H127277   1.908   2.957  14.015 -0.7552  1.4398 -1.0492
 1954TIP3    H227278   2.013   2.882  13.936  0.0510  0.2650  1.0464
 1955TIP3   OH227279   5.682   0.045  15.345 -0.3418 -0.2784 -0.0522
 1955TIP3    H127280   5.599   0.052  15.392  0.8721  2.6373  1.8943
 1955TIP3    H227281   5.673   0.105  15.272  0.1688  0.3501  0.3941
 1956TIP3   OH227282   3.399   4.921   5.511 -0.0962  0.1356  0.0848
 1956TIP3    H127283   3.447   4.847   5.550 -2.9438 -0.2373  3.3748
 1956TIP3    H227284   3.458   4.996   5.522  1.5809 -1.0400 -0.4377
 1957TIP3   OH227285   2.987   5.758  11.964  0.1380 -0.0619 -0.1037
 1957TIP3    H127286   3.007   5.664  11.966  0.6986  0.0287 -0.7918
 1957TIP3    H227287   3.064   5.797  11.921 -1.4419  0.3343 -2.7843
 1958TIP3   OH227288   3.341   6.156  14.442  0.2811 -0.5953 -0.0894
 1958TIP3    H127289   3.256   6.184  14.407  0.4107 -0.5902 -0.3999
 1958TIP3    H227290   3.406   6.194  14.384  0.4374 -2.1613 -1.0034
 1959TIP3   OH227291   1.588   6.460  12.123 -0.1837 -0.3080  0.1507
 1959TIP3    H127292   1.503   6.455  12.165 -0.2038 -0.6282  0.0712
 1959TIP3    H227293   1.584   6.398  12.051  0.2837 -0.6913  0.4454
 1960TIP3   OH227294   6.225   6.622   6.469 -0.1417  0.2951 -0.0306
 1960TIP3    H127295   6.164   6.686   6.433 -2.5149 -2.0570 -0.4854
 1960TIP3    H227296   6.234   6.556   6.400  0.1482 -1.1740  1.3487
 1961TIP3   OH227297   1.554   2.245   2.665 -0.0981  0.1558 -0.5366
 1961TIP3    H127298   1.560   2.237   2.569 -0.1625 -0.1546 -0.5187
 1961TIP3    H227299   1.464   2.273   2.681  0.3396  1.7046 -0.6407
 1962TIP3   OH227300   2.875   3.425  14.627 -0.2962 -0.3050 -0.2881
 1962TIP3    H127301   2.842   3.503  14.582 -0.0737  0.1139  0.2636
 1962TIP3    H227302   2.805   3.361  14.618 -0.6806  0.1145 -0.3296
 1963TIP3   OH227303   3.505   5.571   1.069 -0.7634 -0.1743 -0.5207
 1963TIP3    H127304   3.502   5.620   0.987 -1.4097  0.9191  0.1470
 1963TIP3    H227305   3.530   5.482   1.042  1.6675  0.7561 -1.6238
 1964TIP3   OH227306   2.996   1.467   4.766 -0.2106 -0.3011  0.3146
 1964TIP3    H127307   3.016   1.410   4.691  0.3195  0.8341 -0.4417
 1964TIP3    H227308   2.945   1.412   4.825 -1.1702 -1.0665 -1.1642
 1965TIP3   OH227309   1.318   6.197  16.681  1.3418  0.4283  0.0508
 1965TIP3    H127310   1.399   6.148  16.664  0.9201  0.0326 -0.8818
 1965TIP3    H227311   1.248   6.134  16.665  0.8261  0.1321  2.8551
 1966TIP3   OH227312   6.641   2.095  16.541  0.0310  0.2147  0.1638
 1966TIP3    H127313   6.598   2.180  16.531  1.8831  1.3203  1.0281
 1966TIP3    H227314   6.732   2.116  16.563  0.5762 -2.0012  0.3111
 1967TIP3   OH227315   3.284   4.566  14.235  0.2635 -0.3927  0.4981
 1967TIP3    H127316   3.276   4.546  14.142  0.2000  1.1247  0.1371
 1967TIP3    H227317   3.349   4.504  14.268  0.5406 -0.7278 -0.6374
 1968TIP3   OH227318   3.678   1.550   6.239  0.6151 -0.0137 -0.3080
 1968TIP3    H127319   3.586   1.529   6.253  0.8151 -0.3322  0.6209
 1968TIP3    H227320   3.710   1.574   6.326  1.2344  0.8046 -0.7472
 1969TIP3   OH227321   0.577   5.672   5.531 -0.0568 -0.6593 -0.2463
 1969TIP3    H127322   0.599   5.761   5.559 -0.0234 -1.0337  0.9949
 1969TIP3    H227323   0.493   5.680   5.487 -1.2077 -0.2866  1.8549
 1970TIP3   OH227324   5.723   5.949   1.902  0.2351  0.0411  0.3426
 1970TIP3    H127325   5.819   5.951   1.901  0.2823 -0.8089 -1.2139
 1970TIP3    H227326   5.702   5.870   1.951  0.3957 -0.4743 -0.3899
 1971TIP3   OH227327   5.378   3.906  13.913 -0.0306 -0.4643  0.3136
 1971TIP3    H127328   5.467   3.938  13.927 -0.2220  0.4776 -0.5001
 1971TIP3    H227329   5.335   3.917  13.997  0.2285  0.4106  0.3407
 1972TIP3   OH227330   1.973   3.740  16.365  0.2468  0.3048  0.2149
 1972TIP3    H127331   2.009   3.748  16.276  1.2301 -1.0730  0.4629
 1972TIP3    H227332   1.940   3.651  16.369 -1.6547  0.9871  0.6005
 1973TIP3   OH227333   3.583   6.411  14.716  0.2606  0.3251  0.3703
 1973TIP3    H127334   3.597   6.320  14.690 -0.4680 -0.6348  2.9990
 1973TIP3    H227335   3.488   6.420  14.721  0.2292  1.9818 -2.0798
 1974TIP3   OH227336   4.056   2.283   6.019 -0.0639  0.2752 -0.1576
 1974TIP3    H127337   4.097   2.370   6.022 -0.0042  0.6388 -4.8569
 1974TIP3    H227338   3.968   2.297   6.055  0.0931  2.1755 -0.4121
 1975TIP3   OH227339   6.403   4.703   2.421  0.5533 -0.2716 -0.1242
 1975TIP3    H127340   6.318   4.742   2.401  0.8557 -0.5846 -2.2578
 1975TIP3    H227341   6.385   4.641   2.491 -0.7698  0.4402  0.1971
 1976TIP3   OH227342   5.364   0.559   4.246  0.2021 -0.3986  0.0170
 1976TIP3    H127343   5.282   0.544   4.199  1.0969 -0.6827 -1.5131
 1976TIP3    H227344   5.346   0.528   4.335 -0.7922 -2.2068 -0.7596
 1977TIP3   OH227345   5.532   2.945   1.506 -0.4797  0.3004 -0.1168
 1977TIP3    H127346   5.624   2.972   1.511  0.0459 -1.2478 -0.5873
 1977TIP3    H227347   5.528   2.865   1.559 -0.6435 -1.7094 -2.8757
 1978TIP3   OH227348   2.626   3.332   5.787 -0.2602  0.2969 -0.1627
 1978TIP3    H127349   2.635   3.379   5.704 -0.4807  1.9466  0.7010
 1978TIP3    H227350   2.540   3.359   5.820  0.1791  0.3387  0.9795
 1979TIP3   OH227351   6.429   4.275   1.827  0.1799 -0.0162  0.6881
 1979TIP3    H127352   6.406   4.331   1.901 -0.8893 -0.9931  1.1154
 1979TIP3    H227353   6.354   4.279   1.769  0.1416 -0.8864  0.6598
 1980TIP3   OH227354   6.586   2.922   2.642 -0.0715 -0.1429 -0.3631
 1980TIP3    H127355   6.558   2.985   2.576  2.3767  0.2829 -1.0655
 1980TIP3    H227356   6.580   2.970   2.725 -1.2447 -0.0474 -0.4855
 1981TIP3   OH227357   5.370   4.431   5.597 -0.2676 -0.4370 -0.3904
 1981TIP3    H127358   5.436   4.483   5.643 -1.2910  0.4811  0.0849
 1981TIP3    H227359   5.404   4.341   5.599  1.0181  0.0362 -0.2787
 1982TIP3   OH227360   2.016   4.327   1.628  0.5279  1.0151  0.1748
 1982TIP3    H127361   2.038   4.237   1.654 -0.9301  0.6806  0.3557
 1982TIP3    H227362   1.937   4.317   1.574  0.2126  2.1968  0.3987
 1983TIP3   OH227363   5.758   1.794   2.447  0.1243 -0.0584  0.2993
 1983TIP3    H127364   5.662   1.792   2.439  0.1418  2.3603 -1.7543
 1983TIP3    H227365   5.789   1.744   2.371  0.4527  0.3595  0.1508
 1984TIP3   OH227366   4.401   5.841  11.759  0.0176 -0.3783 -0.5126
 1984TIP3    H127367   4.447   5.767  11.799 -1.4806  0.0903  2.2977
 1984TIP3    H227368   4.312   5.810  11.745  0.1462 -0.0478 -2.2379
 1985TIP3   OH227369   3.347   4.147  14.774  0.3428 -0.4683  0.0552
 1985TIP3    H127370   3.346   4.157  14.679 -0.9771 -0.1909  0.0824
 1985TIP3    H227371   3.399   4.221  14.805 -0.4961  0.3237 -0.3734
 1986TIP3   OH227372   1.464   3.691  10.185 -0.0849  0.5753  0.3257
 1986TIP3    H127373   1.514   3.670  10.264  0.1008  1.5170  0.4679
 1986TIP3    H227374   1.526   3.736  10.129 -0.7685  1.8188  0.5307
 1987TIP3   OH227375   4.158   4.624   3.911  0.0773  0.1112  0.3086
 1987TIP3    H127376   4.126   4.543   3.872  1.1798 -0.6845  0.9834
 1987TIP3    H227377   4.165   4.685   3.838 -0.5103 -0.4796 -0.2611
 1988TIP3   OH227378   5.649   0.372   1.865  0.5346 -0.5059 -0.2611
 1988TIP3    H127379   5.571   0.325   1.836 -0.9985  0.4908  2.0137
 1988TIP3    H227380   5.715   0.303   1.878 -0.7108 -1.6597  0.1440
 1989TIP3   OH227381   4.184   1.386  16.271 -0.1673 -0.1704  0.1462
 1989TIP3    H127382   4.156   1.294  16.273 -0.9587  0.0679  0.5767
 1989TIP3    H227383   4.252   1.391  16.339 -0.6335 -0.2891  0.6336
 1990TIP3   OH227384   5.836   0.451   2.960  0.0123  0.2950  0.2158
 1990TIP3    H127385   5.889   0.404   2.896  1.3296 -0.2272  1.6363
 1990TIP3    H227386   5.808   0.531   2.915 -0.2366 -0.6859 -1.4291
 1991TIP3   OH227387   3.703   2.765   0.215 -0.1419  0.1137  0.8217
 1991TIP3    H127388   3.723   2.696   0.279 -0.2646 -1.7253 -1.0290
 1991TIP3    H227389   3.775   2.828   0.225  0.5089 -0.7519  1.8873
 1992TIP3   OH227390   3.221   5.239  15.476  0.4565  0.3915  1.1162
 1992TIP3    H127391   3.257   5.182  15.408 -0.7664 -0.6738  1.3198
 1992TIP3    H227392   3.138   5.198  15.500  0.4470  1.2260  2.6312
 1993TIP3   OH227393   5.302   6.025  12.075  0.1973 -0.5686 -0.1496
 1993TIP3    H127394   5.295   5.929  12.080  1.9068 -0.7027  0.0809
 1993TIP3    H227395   5.326   6.052  12.164  0.7732 -0.0338 -0.4590
 1994TIP3   OH227396   0.085   5.981  11.865 -0.2732 -0.1301 -0.1313
 1994TIP3    H127397   0.048   6.069  11.854 -2.2373 -0.8386  0.4016
 1994TIP3    H227398   0.174   5.996  11.895 -0.9594  1.7055  1.1572
 1995TIP3   OH227399   0.235   1.452   2.661  0.2897  0.2573 -0.4268
 1995TIP3    H127400   0.245   1.540   2.697  2.3753 -0.4500  0.9347
 1995TIP3    H227401   0.296   1.450   2.587  0.2885 -0.0507 -0.4181
 1996TIP3   OH227402   1.741   0.725   1.588  0.4284 -0.0666  0.8688
 1996TIP3    H127403   1.758   0.646   1.638  0.3327 -0.1247  0.8089
 1996TIP3    H227404   1.664   0.705   1.535  0.5574 -0.0240  0.6624
 1997TIP3   OH227405   3.678   4.647  12.808  0.1812  0.4505  0.1698
 1997TIP3    H127406   3.640   4.707  12.872 -1.3034 -1.9340  1.6877
 1997TIP3    H227407   3.768   4.634  12.838  0.1371  0.9706  0.5394
 1998TIP3   OH227408   5.086   0.879  11.056 -0.1519  0.0065 -0.0299
 1998TIP3    H127409   5.139   0.900  11.133 -0.0355 -0.1471 -0.0672
 1998TIP3    H227410   5.051   0.963  11.027 -0.3314  0.0456  0.2901
 1999TIP3   OH227411   4.036   6.609  13.816  0.1452  0.2328 -0.5602
 1999TIP3    H127412   4.009   6.536  13.872 -0.9484  1.0139 -0.0394
 1999TIP3    H227413   4.033   6.574  13.728  0.7775 -0.6871 -0.2311
 2000TIP3   OH227414   1.171   6.453  13.781  0.4301 -0.9110 -0.3185
 2000TIP3    H127415   1.240   6.508  13.743  0.1971 -1.1942 -1.1891
 2000TIP3    H227416   1.164   6.379  13.721 -1.4713 -0.2854 -0.9487
 2001TIP3   OH227417   1.646   5.061   0.117  0.3496  0.4311  0.3387
 2001TIP3    H127418   1.556   5.055   0.084  0.5530 -0.8255 -0.0748
 2001TIP3    H227419   1.700   5.031   0.044  0.9513 -0.6652  1.1939
 2002TIP3   OH227420   5.834   3.516   5.044  0.0656 -0.1814 -0.3325
 2002TIP3    H127421   5.907   3.472   5.001  1.0852  0.5797  0.5681
 2002TIP3    H227422   5.875   3.585   5.097 -1.1176 -0.9792  1.7468
 2003TIP3   OH227423   3.620   5.150  13.200  0.4826 -0.4299 -0.3618
 2003TIP3    H127424   3.647   5.241  13.209  0.9547 -0.5357 -0.6952
 2003TIP3    H227425   3.539   5.154  13.148  1.4867 -0.3179 -1.9931
 2004TIP3   OH227426   3.163   2.087  14.480  0.3583 -0.0517 -0.4723
 2004TIP3    H127427   3.215   2.127  14.550 -0.8072  1.4680 -0.4067
 2004TIP3    H227428   3.205   2.115  14.399  1.1805 -1.0671 -0.4203
 2005TIP3   OH227429   3.240   5.391   4.353  0.1507 -0.1028 -0.7218
 2005TIP3    H127430   3.173   5.444   4.395  0.4966 -0.6936  0.6481
 2005TIP3    H227431   3.319   5.444   4.357  0.4013 -0.5356  0.2682
 2006TIP3   OH227432   1.798   4.314  14.616 -0.0965  0.8365  0.5129
 2006TIP3    H127433   1.747   4.247  14.570 -0.8131  2.0930 -0.6262
 2006TIP3    H227434   1.853   4.352  14.548  0.2144  1.4787  1.1134
 2007TIP3   OH227435   6.109   2.520   1.756  0.5422 -0.5251  0.3248
 2007TIP3    H127436   6.065   2.469   1.689  0.6566 -3.9563  2.6275
 2007TIP3    H227437   6.040   2.574   1.795  0.5886  2.0357 -2.7242
 2008TIP3   OH227438   4.400   0.330   3.362 -0.0390  0.4561 -0.1728
 2008TIP3    H127439   4.423   0.272   3.434  0.3430 -0.9520 -1.3769
 2008TIP3    H227440   4.359   0.406   3.404 -0.0436 -0.4220  1.4848
 2009TIP3   OH227441   4.312   2.429   3.141  0.1913 -0.0808 -0.0731
 2009TIP3    H127442   4.342   2.340   3.161  0.3150  0.0336  0.2597
 2009TIP3    H227443   4.217   2.421   3.139  0.2385 -0.5498 -1.6456
 2010TIP3   OH227444   3.491   6.078   6.472 -0.0166  0.8546  0.2838
 2010TIP3    H127445   3.561   6.063   6.408 -1.0476 -0.5531 -0.5685
 2010TIP3    H227446   3.508   6.016   6.542 -1.2500 -0.6513 -0.6820
 2011TIP3   OH227447   4.919   3.364   0.106  0.0991 -0.1320  0.3198
 2011TIP3    H127448   4.866   3.285   0.109 -0.6316  0.2922 -0.6022
 2011TIP3    H227449   4.935   3.378   0.012  0.8638  0.3910  0.5169
 2012TIP3   OH227450   0.068   5.708   5.775  0.0841  0.0418 -0.3130
 2012TIP3    H127451  -0.023   5.715   5.802  0.7630 -0.0542  2.2414
 2012TIP3    H227452   0.096   5.799   5.759  0.3846  0.4586  2.1832
 2013TIP3   OH227453   2.845   0.222  11.785 -0.5657 -0.0718 -0.0671
 2013TIP3    H127454   2.925   0.274  11.796  0.1858 -0.5975 -2.4943
 2013TIP3    H227455   2.875   0.140  11.746 -2.3183 -0.0754 -1.5450
 2014TIP3   OH227456   4.774   0.321   5.194  0.0129  0.3032 -0.1226
 2014TIP3    H127457   4.817   0.389   5.246  0.6582 -0.6971  0.7132
 2014TIP3    H227458   4.691   0.306   5.238  0.6185 -0.6407  0.7470
 2015TIP3   OH227459   1.132   5.006   1.848  0.3687 -0.1946 -0.0750
 2015TIP3    H127460   1.209   4.966   1.807  0.5101  0.5441 -0.5459
 2015TIP3    H227461   1.058   4.960   1.807  0.5268  0.0624 -0.6688
 2016TIP3   OH227462   1.220   6.018  16.280  0.9641  0.6692 -0.3103
 2016TIP3    H127463   1.233   6.042  16.372 -2.7512 -0.8936  0.7907
 2016TIP3    H227464   1.125   6.010  16.270  1.3577 -2.7289 -3.3190
 2017TIP3   OH227465   0.198   2.489  13.113 -0.7024  0.4064 -0.0222
 2017TIP3    H127466   0.178   2.489  13.207  2.1075 -2.1969  0.7416
 2017TIP3    H227467   0.171   2.403  13.083 -0.8831  0.9472 -1.4893
 2018TIP3   OH227468   1.001   3.754   2.967 -0.0585  0.1413 -0.3048
 2018TIP3    H127469   1.027   3.730   3.056  0.5178  0.2381 -0.4387
 2018TIP3    H227470   1.072   3.721   2.912  0.7528  2.0784 -0.5046
 2019TIP3   OH227471   6.144   1.004  17.410 -0.2775  0.0940 -0.1326
 2019TIP3    H127472   6.205   1.063  17.367  0.5645  0.5464  1.5908
 2019TIP3    H227473   6.195   0.924  17.427 -0.5257  0.0084  0.2241
 2020TIP3   OH227474   2.519   0.230   1.764  0.3482  0.2873 -0.6835
 2020TIP3    H127475   2.578   0.281   1.819 -1.7784  0.0056  2.1112
 2020TIP3    H227476   2.504   0.284   1.687  2.6633  1.2022 -0.5555
 2021TIP3   OH227477   5.978   5.626  14.656 -0.0843 -0.1655  0.0411
 2021TIP3    H127478   5.944   5.702  14.609 -2.5470 -0.9211  0.4716
 2021TIP3    H227479   6.025   5.575  14.590  0.8285  1.2291 -0.4378
 2022TIP3   OH227480   2.921   5.646  12.865  0.0527 -0.0126  0.1586
 2022TIP3    H127481   2.873   5.604  12.794  1.5956 -1.6868  0.0479
 2022TIP3    H227482   3.011   5.656  12.832  0.5963 -0.0098  1.5306
 2023TIP3   OH227483   5.092   3.068  15.558 -0.3292  0.1846 -0.4403
 2023TIP3    H127484   5.141   3.064  15.476 -1.2774  1.8034 -1.1325
 2023TIP3    H227485   5.024   3.001  15.549 -1.6870  1.6603 -1.8974
 2024TIP3   OH227486   1.754   6.024   6.199  0.2188 -0.2674 -0.2508
 2024TIP3    H127487   1.749   6.003   6.106  1.0443 -1.2404 -0.0997
 2024TIP3    H227488   1.810   5.955   6.235 -0.8198 -0.4254  1.1279
 2025TIP3   OH227489   5.642   0.428   2.562  0.1855 -0.4176  0.1767
 2025TIP3    H127490   5.551   0.439   2.590  0.6458 -0.8517  1.9842
 2025TIP3    H227491   5.643   0.343   2.519 -0.6899  0.5766 -1.9061
 2026TIP3   OH227492   1.173   4.857   4.645  0.4595 -0.2521  0.0631
 2026TIP3    H127493   1.155   4.945   4.610 -1.6442 -0.4794  0.4050
 2026TIP3    H227494   1.163   4.867   4.740  2.8261 -0.3502  0.3809
 2027TIP3   OH227495   0.482   0.840  15.317 -0.0774  0.1315 -0.0025
 2027TIP3    H127496   0.574   0.834  15.345  0.3756  0.7073 -1.2922
 2027TIP3    H227497   0.445   0.755  15.339  1.1009 -0.5690 -0.6178
 2028TIP3   OH227498   1.582   4.677   5.400 -0.2117 -0.4706  0.5995
 2028TIP3    H127499   1.591   4.632   5.316 -1.6342 -0.0024  0.1809
 2028TIP3    H227500   1.506   4.733   5.390 -0.0232  0.0787  1.9967
 2029TIP3   OH227501   0.728   2.722   0.445  0.3376  0.2286 -0.0557
 2029TIP3    H127502   0.720   2.817   0.443 -0.4998  0.1520 -0.9829
 2029TIP3    H227503   0.639   2.690   0.430  0.7331 -0.7033 -0.4815
 2030TIP3   OH227504   4.787   4.213  12.168  0.2063 -0.4987 -0.5217
 2030TIP3    H127505   4.731   4.291  12.173  0.5528 -0.2905  0.4465
 2030TIP3    H227506   4.733   4.147  12.125 -1.1203 -0.5507  1.1160
 2031TIP3   OH227507   2.957   1.691   5.926  0.0256  0.2962  0.2941
 2031TIP3    H127508   2.931   1.602   5.901  1.2743  0.1642 -0.6158
 2031TIP3    H227509   3.045   1.681   5.961  0.6816  1.3372 -0.9885
 2032TIP3   OH227510   3.212   3.752  10.766  0.0161  0.5234  0.5410
 2032TIP3    H127511   3.173   3.839  10.767  0.1370  0.5807  1.2542
 2032TIP3    H227512   3.261   3.747  10.848 -1.6671 -0.9595  1.5395
 2033TIP3   OH227513   0.872   1.829   6.043 -0.1850 -0.6969 -0.2455
 2033TIP3    H127514   0.884   1.898   5.978  1.2839 -0.0082  0.6969
 2033TIP3    H227515   0.926   1.856   6.118 -2.6561 -0.8998  1.7449
 2034TIP3   OH227516   0.484   3.252   0.109  0.1310 -0.4992  0.0327
 2034TIP3    H127517   0.459   3.233   0.200 -1.5985 -0.7167 -0.4542
 2034TIP3    H227518   0.579   3.260   0.112  0.0559  0.3473  2.0295
 2035TIP3   OH227519   1.672   2.199  17.476  0.0213  0.1203  0.2049
 2035TIP3    H127520   1.736   2.264  17.449  1.3527 -0.5431  1.6576
 2035TIP3    H227521   1.597   2.214  17.418  1.5844  0.6959 -1.7615
 2036TIP3   OH227522   3.493   1.925   4.097 -0.0645  0.3524  0.4651
 2036TIP3    H127523   3.505   2.017   4.121  1.4003 -0.0402  1.3766
 2036TIP3    H227524   3.574   1.882   4.125 -0.7304 -1.2275  0.0849
 2037TIP3   OH227525   3.044   2.512   0.877  0.0124  0.1982 -0.0796
 2037TIP3    H127526   3.125   2.538   0.921  1.1955 -1.2591 -1.2875
 2037TIP3    H227527   3.003   2.450   0.937  1.0455 -0.9171 -0.4866
 2038TIP3   OH227528   0.283   5.575   0.399  0.0567 -0.1703  0.5198
 2038TIP3    H127529   0.290   5.508   0.330  1.0559  1.5144 -1.1295
 2038TIP3    H227530   0.372   5.611   0.405  0.0533 -0.4482  2.9461
 2039TIP3   OH227531   4.143   3.006   4.264 -0.3276  0.6396 -0.3574
 2039TIP3    H127532   4.198   3.084   4.258  1.5889 -0.6549 -0.1332
 2039TIP3    H227533   4.170   2.951   4.191 -2.9526  0.8892 -1.6646
 2040TIP3   OH227534   3.308   6.071  10.409 -0.2806 -0.3008 -0.1646
 2040TIP3    H127535   3.362   5.994  10.391 -1.0092 -0.9356  0.3176
 2040TIP3    H227536   3.344   6.107  10.490 -0.5860 -0.7299  0.1633
 2041TIP3   OH227537   5.497   3.904   5.786  0.1582 -0.2888 -0.0257
 2041TIP3    H127538   5.509   3.824   5.838 -1.1913  0.3071  1.2715
 2041TIP3    H227539   5.586   3.936   5.770  0.7160  0.8878  4.2036
 2042TIP3   OH227540   1.657   6.164  16.119 -0.1129 -0.7477  0.3597
 2042TIP3    H127541   1.621   6.155  16.207 -0.1156  0.5953  0.5279
 2042TIP3    H227542   1.592   6.124  16.062 -0.2052 -1.4506  0.9453
 2043TIP3   OH227543   0.347   5.859  13.575 -0.1860 -0.4858  0.7743
 2043TIP3    H127544   0.377   5.848  13.484 -0.0714 -0.7204  0.8412
 2043TIP3    H227545   0.298   5.941  13.573  1.0463  0.2689  0.8175
 2044TIP3   OH227546   2.006   0.236  12.963  0.1389 -0.0888 -0.0492
 2044TIP3    H127547   2.047   0.314  12.999 -0.1500 -1.4297  3.6097
 2044TIP3    H227548   1.925   0.267  12.923 -0.6133  1.4340  2.4569
 2045TIP3   OH227549   5.695   1.419   2.818  0.4057  0.0662  0.3464
 2045TIP3    H127550   5.681   1.508   2.788  0.8015 -0.3177 -1.0661
 2045TIP3    H227551   5.610   1.391   2.852  0.3530  1.0606  1.0822
 2046TIP3   OH227552   5.745   2.319  12.613  0.2323  0.2757 -0.2001
 2046TIP3    H127553   5.718   2.363  12.694 -0.1487 -0.0013 -0.1748
 2046TIP3    H227554   5.663   2.305  12.565  0.4029  0.0140 -0.4171
 2047TIP3   OH227555   1.046   4.466  12.270  0.0220  0.0157  0.3121
 2047TIP3    H127556   1.046   4.554  12.307  0.0485 -0.5775  1.7957
 2047TIP3    H227557   0.978   4.468  12.202 -0.1173  1.1111  0.4764
 2048TIP3   OH227558   5.258   2.779  17.231  0.3667 -0.5065 -0.2260
 2048TIP3    H127559   5.224   2.761  17.143 -0.6110 -0.3173  0.0981
 2048TIP3    H227560   5.316   2.706  17.250  0.0769 -0.8834 -0.7670
 2049TIP3   OH227561   5.597   1.673   3.689  0.0373  0.5609 -0.0069
 2049TIP3    H127562   5.576   1.728   3.765 -0.9477  1.2946 -0.7807
 2049TIP3    H227563   5.520   1.616   3.680  1.4329 -1.7202  1.3801
 2050TIP3   OH227564   5.822   3.640   0.452 -0.4324  0.0504 -0.4305
 2050TIP3    H127565   5.899   3.684   0.416 -0.1601  0.0379  0.1227
 2050TIP3    H227566   5.812   3.677   0.539 -1.0083 -0.0094 -0.4707
 2051TIP3   OH227567   0.708   4.271  17.173  0.1754 -0.4710 -0.5141
 2051TIP3    H127568   0.631   4.298  17.123 -0.0668 -2.1613 -1.0922
 2051TIP3    H227569   0.733   4.187  17.136  2.3111  0.0152 -0.3157
 2052TIP3   OH227570   0.478   1.273   1.379 -0.4791 -0.0897 -0.2909
 2052TIP3    H127571   0.428   1.345   1.341  0.6358  0.9304  0.1132
 2052TIP3    H227572   0.546   1.254   1.315 -1.6206 -1.8219 -1.0774
 2053TIP3   OH227573   5.165   5.187  17.146 -1.0550  0.8243 -0.2537
 2053TIP3    H127574   5.157   5.196  17.051  0.9148  1.9275 -0.3796
 2053TIP3    H227575   5.196   5.273  17.175  0.2076 -0.0366  1.1148
 2054TIP3   OH227576   4.649   3.320   2.649  0.1487  0.2410  0.0938
 2054TIP3    H127577   4.634   3.324   2.743  0.3821 -1.5448  0.2518
 2054TIP3    H227578   4.704   3.242   2.636 -0.3416  0.1119 -1.5577
 2055TIP3   OH227579   2.928   1.009   2.103  0.2629  0.0983  0.6209
 2055TIP3    H127580   2.843   1.045   2.128  0.2325  0.7464 -0.3672
 2055TIP3    H227581   2.917   0.914   2.111 -0.9434  0.1057 -0.6155
 2056TIP3   OH227582   1.736   3.184   1.282 -0.0682  0.2023  0.0510
 2056TIP3    H127583   1.741   3.275   1.253  0.2366  0.7484  1.7080
 2056TIP3    H227584   1.644   3.160   1.270 -0.4603  1.2058  0.9304
 2057TIP3   OH227585   6.563   0.931  11.792 -0.4577  0.1939  0.9299
 2057TIP3    H127586   6.524   0.908  11.708  1.4611 -1.4340  0.4074
 2057TIP3    H227587   6.538   0.859  11.850  0.1361  0.1049  1.0866
 2058TIP3   OH227588   2.089   1.501  14.111  0.2876 -0.0385  0.2615
 2058TIP3    H127589   2.135   1.510  14.028 -0.3513 -0.5750 -0.1623
 2058TIP3    H227590   2.137   1.432  14.158  0.5909  0.1974  0.2984
 2059TIP3   OH227591   1.186   2.725  13.035 -0.5087 -1.0775  0.4892
 2059TIP3    H127592   1.274   2.747  13.005 -0.6259  0.8619  1.3780
 2059TIP3    H227593   1.198   2.699  13.127 -0.9734  0.7029  1.1014
 2060TIP3   OH227594   4.672   3.927   4.775  0.4754  0.0279 -0.0753
 2060TIP3    H127595   4.612   3.872   4.725 -0.5619  0.6616  0.4280
 2060TIP3    H227596   4.740   3.952   4.712  0.6216 -1.2824 -0.4727
 2061TIP3   OH227597   1.901   5.811  12.966  0.0156 -0.8572  0.1764
 2061TIP3    H127598   1.809   5.827  12.945  0.1230  1.2505  1.0402
 2061TIP3    H227599   1.916   5.719  12.943 -2.4396 -1.3982  0.5408
 2062TIP3   OH227600   0.840   0.449  11.284 -0.2541  0.5455  0.3702
 2062TIP3    H127601   0.755   0.475  11.248 -0.5086 -0.2772  0.3674
 2062TIP3    H227602   0.822   0.370  11.334  0.6477 -0.0695 -0.2585
 2063TIP3   OH227603   0.938   0.691   0.798 -0.1277  0.0848  0.3223
 2063TIP3    H127604   0.983   0.760   0.847  2.2051 -1.3436  0.3469
 2063TIP3    H227605   0.919   0.624   0.863 -0.4395 -0.2123 -0.0737
 2064TIP3   OH227606   5.795   6.220  16.336 -0.2615 -0.0521 -0.2101
 2064TIP3    H127607   5.768   6.140  16.291 -0.7267 -0.3471  0.5632
 2064TIP3    H227608   5.719   6.244  16.389  1.3206 -1.6797  3.1413
 2065TIP3   OH227609   1.916   5.101  15.432  0.5692  0.1514 -0.3531
 2065TIP3    H127610   1.845   5.036  15.433  0.3672  0.3482  1.5906
 2065TIP3    H227611   1.996   5.049  15.434  0.4181 -0.0596  0.5886
 2066TIP3   OH227612   3.228   3.809  14.802 -0.0763 -0.4867 -0.7228
 2066TIP3    H127613   3.312   3.764  14.786  1.3187  1.9558 -0.6941
 2066TIP3    H227614   3.193   3.824  14.714  0.6537  0.4647 -0.8683
 2067TIP3   OH227615   3.260   3.070   4.166 -0.0275  0.4538  0.7494
 2067TIP3    H127616   3.299   2.999   4.115  0.1091  1.3472 -0.4396
 2067TIP3    H227617   3.314   3.147   4.144 -0.4533  1.0202  1.6444
 2068TIP3   OH227618   1.622   3.204   6.469  0.7742 -0.3501  0.3011
 2068TIP3    H127619   1.707   3.203   6.425  0.5054 -1.9709 -0.2512
 2068TIP3    H227620   1.630   3.140   6.540 -1.0301 -3.4176 -2.0143
 2069TIP3   OH227621   6.342   4.511   1.987 -0.0283 -0.0062 -0.1671
 2069TIP3    H127622   6.375   4.565   1.915 -0.4060  0.9547  0.3582
 2069TIP3    H227623   6.260   4.553   2.013 -0.0747 -0.5412  0.5911
 2070TIP3   OH227624   2.482   2.347  12.327  0.0216  0.0498 -0.3923
 2070TIP3    H127625   2.422   2.334  12.254  0.5930  0.5129 -0.9579
 2070TIP3    H227626   2.569   2.348  12.287  0.3331  0.4778  0.2683
 2071TIP3   OH227627   2.565   0.219   2.711  0.2741  0.0498  0.0329
 2071TIP3    H127628   2.495   0.274   2.743  0.5686  1.3605 -1.4837
 2071TIP3    H227629   2.645   0.260   2.744  0.4135 -0.4606  0.3377
 2072TIP3   OH227630   1.905   1.057  17.130  0.4854  0.8109  0.2305
 2072TIP3    H127631   1.852   1.001  17.187  0.7293  1.4046  1.0710
 2072TIP3    H227632   1.941   1.124  17.189  3.5188 -0.4825  0.0715
 2073TIP3   OH227633   6.296   6.313  14.381 -0.2745  0.1634  0.2097
 2073TIP3    H127634   6.289   6.320  14.286  0.1614 -0.9427  0.0824
 2073TIP3    H227635   6.342   6.393  14.407 -0.2645  0.4057 -0.5272
 2074TIP3   OH227636   6.189   4.046  11.251 -0.2381  0.0155 -0.2752
 2074TIP3    H127637   6.162   4.114  11.189 -0.1270 -1.2953 -1.8066
 2074TIP3    H227638   6.132   3.972  11.231 -1.2633  0.0039  2.2390
 2075TIP3   OH227639   4.184   5.461   0.214 -0.1246 -0.0778  0.3771
 2075TIP3    H127640   4.268   5.415   0.214  0.2121  0.5147  0.8330
 2075TIP3    H227641   4.134   5.417   0.283 -0.0411 -0.1659  0.3832
 2076TIP3   OH227642   4.274   3.415   1.727 -0.1017  0.2398 -0.1776
 2076TIP3    H127643   4.190   3.422   1.682 -0.0779  4.1316  0.0184
 2076TIP3    H227644   4.333   3.471   1.677  2.6236 -2.5962 -0.4932
 2077TIP3   OH227645   3.988   4.223   2.707  0.3470 -0.2717  0.5021
 2077TIP3    H127646   4.000   4.295   2.645 -0.7774  0.8260  1.5164
 2077TIP3    H227647   4.070   4.174   2.704  1.5081  1.6115  0.4913
 2078TIP3   OH227648   3.148   2.731  12.482 -0.0697 -0.3623  0.2892
 2078TIP3    H127649   3.205   2.793  12.527 -1.1252  0.0728  1.0683
 2078TIP3    H227650   3.068   2.728  12.536 -0.8551 -0.8220 -0.8584
 2079TIP3   OH227651   1.203   3.032  12.128 -0.7232  0.1426 -0.5825
 2079TIP3    H127652   1.108   3.029  12.124 -0.7790  1.2758 -0.4769
 2079TIP3    H227653   1.223   3.120  12.158  0.3616 -0.1294 -0.4556
 2080TIP3   OH227654   4.798   6.412   1.076 -0.4548  0.5850  0.1118
 2080TIP3    H127655   4.852   6.352   1.128  0.8850  0.5702 -1.2344
 2080TIP3    H227656   4.719   6.362   1.055 -0.0013 -0.1867  0.2145
 2081TIP3   OH227657   6.437   2.435  12.000 -0.1743  0.2690 -0.0391
 2081TIP3    H127658   6.449   2.342  11.981 -1.0809  0.1373  0.0140
 2081TIP3    H227659   6.450   2.442  12.095  1.4694  0.4694 -0.2395
 2082TIP3   OH227660   5.083   0.972  13.648 -0.3481 -0.0210  0.3590
 2082TIP3    H127661   5.155   0.908  13.648 -0.1864  0.1568  0.1837
 2082TIP3    H227662   5.123   1.052  13.614  0.3138  1.1505  3.5025
 2083TIP3   OH227663   5.487   0.216  11.448  0.0013 -0.1226 -0.2136
 2083TIP3    H127664   5.560   0.179  11.497 -0.0435  0.5247  0.3667
 2083TIP3    H227665   5.409   0.177  11.488 -0.0619  0.7932  0.6068
 2084TIP3   OH227666   4.975   1.613   3.892  0.4158  0.3185 -0.0388
 2084TIP3    H127667   5.071   1.604   3.898  0.6354 -0.3923 -3.1214
 2084TIP3    H227668   4.942   1.529   3.925  0.7751  0.7454  1.4958
 2085TIP3   OH227669   2.250   6.509  15.265 -0.2746  0.8676  0.3811
 2085TIP3    H127670   2.263   6.600  15.293 -0.4279  0.6669  1.0994
 2085TIP3    H227671   2.306   6.458  15.323 -0.7071  0.4336  0.4136
 2086TIP3   OH227672   0.168   3.659   1.312  0.2149  0.0909 -0.0511
 2086TIP3    H127673   0.147   3.729   1.249  2.9400 -0.8838 -2.2646
 2086TIP3    H227674   0.135   3.579   1.270  0.1375 -0.3543  0.8436
 2087TIP3   OH227675   4.305   6.472  12.099 -0.2584 -0.5027  0.6103
 2087TIP3    H127676   4.378   6.459  12.039 -1.2896  2.0934 -1.4172
 2087TIP3    H227677   4.280   6.384  12.127  1.9682 -1.6143 -0.6742
 2088TIP3   OH227678   5.668   3.623  12.100  0.1096  0.5274  0.1114
 2088TIP3    H127679   5.673   3.682  12.175 -0.4216 -0.5329  1.0109
 2088TIP3    H227680   5.626   3.674  12.032  0.6737  1.5358  0.5012
 2089TIP3   OH227681   2.459   0.706  16.313  0.1279 -0.5404  0.0093
 2089TIP3    H127682   2.429   0.616  16.315  1.4976 -1.0159  0.2300
 2089TIP3    H227683   2.461   0.729  16.220  1.7867 -1.4818 -0.2295
 2090TIP3   OH227684   3.194   3.552   1.622 -0.2113 -0.0702  0.6260
 2090TIP3    H127685   3.256   3.576   1.553 -0.9488  0.3583  0.1089
 2090TIP3    H227686   3.242   3.488   1.675  0.3242 -0.5022 -0.3522
 2091TIP3   OH227687   3.804   2.660  16.261 -0.2870 -0.0200 -0.5165
 2091TIP3    H127688   3.858   2.658  16.183  2.6955 -0.8094  1.4242
 2091TIP3    H227689   3.785   2.568  16.280  1.4335 -0.0911  1.1545
 2092TIP3   OH227690   4.568   2.319   4.613 -0.2221  0.0625  0.6393
 2092TIP3    H127691   4.618   2.401   4.606  1.3435 -0.9110 -0.3564
 2092TIP3    H227692   4.571   2.298   4.706  1.5405 -0.0929  0.5936
 2093TIP3   OH227693   2.023   1.508   2.771 -0.4634 -0.1205  0.2325
 2093TIP3    H127694   2.058   1.579   2.717 -0.0999  0.3672  1.0744
 2093TIP3    H227695   2.063   1.429   2.735 -1.5470 -0.0328 -1.2687
 2094TIP3   OH227696   0.571   1.161  17.023 -0.5699  0.3110 -0.1610
 2094TIP3    H127697   0.617   1.099  16.967  0.6352  1.1742 -0.1644
 2094TIP3    H227698   0.499   1.194  16.969 -0.2316  0.1321 -0.7230
 2095TIP3   OH227699   0.854   2.995  15.146  0.0405 -0.1350  0.1721
 2095TIP3    H127700   0.949   3.002  15.142  0.1475 -0.4037  1.5893
 2095TIP3    H227701   0.837   2.937  15.220 -1.2357  0.7682  0.6430
 2096TIP3   OH227702   2.919   5.721  11.127  0.5741  0.0379  0.3753
 2096TIP3    H127703   2.855   5.654  11.101 -0.0134  0.4890  0.6241
 2096TIP3    H227704   2.978   5.676  11.187 -1.5041  0.3628  2.8845
 2097TIP3   OH227705   6.074   5.996  14.702  0.4243  0.1223 -0.0605
 2097TIP3    H127706   6.021   5.969  14.777  0.6723 -0.3285 -0.0488
 2097TIP3    H227707   6.142   6.052  14.740 -0.0503  0.7252 -0.0786
 2098TIP3   OH227708   5.425   5.691   4.129  0.2041  0.5001  0.2687
 2098TIP3    H127709   5.359   5.694   4.059 -0.7961  2.3473  1.2270
 2098TIP3    H227710   5.416   5.604   4.166 -2.0652  0.8433  0.6697
 2099TIP3   OH227711   0.718   3.173   5.468 -0.1649 -0.3024  0.1336
 2099TIP3    H127712   0.689   3.261   5.446 -1.5129 -1.2205 -2.1385
 2099TIP3    H227713   0.805   3.166   5.427 -0.5989 -0.4183 -0.7851
 2100TIP3   OH227714   1.389   4.475  16.086 -0.6010 -0.2837 -0.2834
 2100TIP3    H127715   1.348   4.486  16.000 -2.2327 -0.8923  0.3859
 2100TIP3    H227716   1.443   4.553  16.097 -1.4234  0.4507 -1.2912
 2101TIP3   OH227717   1.079   3.493  13.608 -0.2233  0.3232  0.2122
 2101TIP3    H127718   1.131   3.425  13.651  0.2401 -0.0797 -0.9189
 2101TIP3    H227719   0.996   3.450  13.587 -0.8504  0.8173  1.5632
 2102TIP3   OH227720   1.001   6.500   0.077 -0.3576 -0.2980 -0.2055
 2102TIP3    H127721   1.078   6.517   0.023 -0.0788 -0.6850  0.0685
 2102TIP3    H227722   0.932   6.551   0.037  0.4256  1.4061  0.5100
 2103TIP3   OH227723   4.341   2.876  16.186  0.1406  0.6257 -0.7486
 2103TIP3    H127724   4.433   2.879  16.160  0.1175  1.1086 -0.7924
 2103TIP3    H227725   4.342   2.871  16.282  0.2199 -0.5877 -0.7958
 2104TIP3   OH227726   3.408   1.053   1.726 -0.4986 -0.5271  0.6456
 2104TIP3    H127727   3.492   1.038   1.770 -1.1397  0.3924  2.2780
 2104TIP3    H227728   3.363   0.969   1.732 -0.3479 -0.5690  1.2657
 2105TIP3   OH227729   1.039   1.519   0.111 -0.4114  0.3823  0.3457
 2105TIP3    H127730   0.972   1.565   0.060  0.5165 -0.3399 -1.6479
 2105TIP3    H227731   1.116   1.575   0.104 -0.1212 -0.0007  0.4815
 2106TIP3   OH227732   2.614   5.848   4.299 -0.2756 -0.4768  0.4505
 2106TIP3    H127733   2.670   5.806   4.234  1.6105  0.9797  1.0520
 2106TIP3    H227734   2.526   5.840   4.263  0.4616 -1.5626 -1.2472
 2107TIP3   OH227735   1.959   6.006   4.989  0.5783 -0.1845  0.1595
 2107TIP3    H127736   1.994   6.008   4.899  0.8972 -2.1107  0.2052
 2107TIP3    H227737   2.028   6.046   5.042  0.9234 -0.1708 -0.2924
 2108TIP3   OH227738   3.432   4.853   3.219  0.2236  0.2958 -0.0793
 2108TIP3    H127739   3.446   4.945   3.239 -1.7054  0.2824  1.6280
 2108TIP3    H227740   3.420   4.811   3.304  1.8280 -1.7232 -0.7542
 2109TIP3   OH227741   3.532   5.914  16.321  0.7215  0.1566  0.0779
 2109TIP3    H127742   3.609   5.872  16.282  1.2175  1.0033  0.1230
 2109TIP3    H227743   3.500   5.974  16.253  1.6839  1.7626  0.9782
 2110TIP3   OH227744   2.870   0.718  12.004  0.2010  0.5338 -0.3178
 2110TIP3    H127745   2.844   0.697  12.094  1.5451  1.1210  0.2402
 2110TIP3    H227746   2.788   0.729  11.957 -0.6430  3.2897  1.5831
 2111TIP3   OH227747   6.442   3.485   2.967  0.5372 -0.0101  0.0487
 2111TIP3    H127748   6.423   3.432   2.890  0.5325 -0.6057  0.4573
 2111TIP3    H227749   6.499   3.555   2.934 -0.7685  0.6975 -0.8088
 2112TIP3   OH227750   5.374   5.061  15.897 -0.2533  0.2718  0.6998
 2112TIP3    H127751   5.438   5.032  15.833 -0.5213  0.3616  0.3906
 2112TIP3    H227752   5.397   5.153  15.914 -0.6196  0.4577  0.1981
 2113TIP3   OH227753   5.157   2.714   4.569  0.0538  0.3787  0.2074
 2113TIP3    H127754   5.188   2.656   4.639  0.8885 -0.3968 -0.7808
 2113TIP3    H227755   5.076   2.673   4.539 -0.6501  1.0560  1.1138
 2114TIP3   OH227756   5.640   1.599  14.641  0.4704  0.2120 -0.1958
 2114TIP3    H127757   5.551   1.612  14.675  0.0432 -1.0545 -0.7928
 2114TIP3    H227758   5.635   1.520  14.588  1.6372  0.9196 -1.4223
 2115TIP3   OH227759   0.840   0.119  15.953 -0.7016  0.3820  0.8696
 2115TIP3    H127760   0.892   0.132  16.032  1.4460  1.4881 -0.6060
 2115TIP3    H227761   0.821   0.026  15.951  0.5465  0.0751  1.9142
 2116TIP3   OH227762   5.780   2.560  11.999 -0.1233 -0.3271 -0.1863
 2116TIP3    H127763   5.730   2.549  11.918  0.0834  0.8310 -0.4867
 2116TIP3    H227764   5.872   2.557  11.971 -0.0446 -0.5715  0.0974
 2117TIP3   OH227765   3.462   1.269   2.133 -0.0425 -0.1375 -0.0780
 2117TIP3    H127766   3.547   1.301   2.163 -0.3541  0.2176  0.4622
 2117TIP3    H227767   3.434   1.333   2.068 -1.1088  1.3333  1.7047
 2118TIP3   OH227768   2.272   2.321  16.748 -0.0118  0.3937  0.9375
 2118TIP3    H127769   2.272   2.229  16.774  0.6954  0.2811  0.5513
 2118TIP3    H227770   2.179   2.341  16.735 -0.1230 -0.5063  0.1972
 2119TIP3   OH227771   1.705   5.053   1.393 -0.3037  0.4411 -0.1573
 2119TIP3    H127772   1.722   5.124   1.330 -0.8879  1.1962  0.5271
 2119TIP3    H227773   1.619   5.073   1.429 -0.9778 -1.2157 -0.7322
 2120TIP3   OH227774   6.390   4.146  10.619  0.2324 -0.1302  0.0039
 2120TIP3    H127775   6.311   4.094  10.633 -0.0144  0.3556  0.4386
 2120TIP3    H227776   6.421   4.118  10.533 -0.1882 -0.6129 -0.0019
 2121TIP3   OH227777   2.081   5.333   4.486  0.0633 -0.3357  0.1685
 2121TIP3    H127778   2.031   5.293   4.556  0.3208  0.2825  0.7156
 2121TIP3    H227779   2.024   5.404   4.454 -0.9868 -1.9374 -1.7148
 2122TIP3   OH227780   0.909   5.297  12.656  0.1861 -0.2767 -0.1419
 2122TIP3    H127781   0.952   5.325  12.576  0.5731 -1.3860 -0.3324
 2122TIP3    H227782   0.932   5.364  12.721 -0.0956  0.5998 -0.9306
 2123TIP3   OH227783   3.312   5.963  17.268  0.2096 -0.2020  0.1934
 2123TIP3    H127784   3.367   5.946  17.192  1.4191 -0.7460  1.1616
 2123TIP3    H227785   3.333   5.893  17.330 -1.6319 -0.4705  0.5769
 2124TIP3   OH227786   2.993   0.817   2.954  0.2449 -0.2176 -0.6390
 2124TIP3    H127787   2.921   0.879   2.943  0.5171  0.6382  1.7758
 2124TIP3    H227788   2.961   0.753   3.017  1.7488  0.5815  1.0371
 2125TIP3   OH227789   6.271   3.066   2.936 -0.0449 -0.5220 -0.4305
 2125TIP3    H127790   6.202   3.028   2.882 -0.1159 -1.1354  0.0775
 2125TIP3    H227791   6.352   3.028   2.900  0.0069 -0.0470 -0.8250
 2126TIP3   OH227792   1.709   4.424  15.317  0.1799 -0.8914 -0.0496
 2126TIP3    H127793   1.782   4.471  15.356  0.7199 -1.5592 -0.2381
 2126TIP3    H227794   1.745   4.386  15.237 -0.7749  0.0283 -0.9544
 2127TIP3   OH227795   0.333   0.737   5.280  0.0414  0.1802 -0.4535
 2127TIP3    H127796   0.374   0.781   5.354 -0.3747 -0.6194  0.2778
 2127TIP3    H227797   0.250   0.703   5.315 -0.3372  0.1070 -1.3817
 2128TIP3   OH227798   3.912   2.271   2.775  0.3572 -0.0650 -0.0560
 2128TIP3    H127799   3.826   2.289   2.814  1.4517 -0.4742  2.8674
 2128TIP3    H227800   3.962   2.352   2.788  0.9365 -0.4201 -0.0232
 2129TIP3   OH227801   3.536   3.764  17.020  0.9507  0.2943 -0.2491
 2129TIP3    H127802   3.523   3.678  16.979 -1.9798 -0.2222  1.4557
 2129TIP3    H227803   3.606   3.749  17.084  0.6520 -0.7573 -0.1444
 2130TIP3   OH227804   6.189   5.634  15.163  0.2734 -0.2640  0.0035
 2130TIP3    H127805   6.186   5.646  15.068  1.0584 -2.2576 -0.3435
 2130TIP3    H227806   6.155   5.545  15.176 -1.5087  0.6189  1.7897
 2131TIP3   OH227807   3.867   4.989   1.036  0.4028  0.9037 -0.3074
 2131TIP3    H127808   3.955   5.022   1.055 -0.4584  2.2377  1.6360
 2131TIP3    H227809   3.845   5.028   0.952  1.0281  1.9610 -0.0039
 2132TIP3   OH227810   4.270   1.618   4.521 -0.1416 -0.1384 -0.0565
 2132TIP3    H127811   4.191   1.573   4.549  0.8965 -1.1744  1.3444
 2132TIP3    H227812   4.265   1.704   4.562  0.8519 -1.2674  2.6227
 2133TIP3   OH227813   0.832   3.736  11.172  0.5322  0.2740 -0.1753
 2133TIP3    H127814   0.828   3.642  11.152 -1.6790  0.3835 -0.5522
 2133TIP3    H227815   0.827   3.778  11.086  0.3960  0.7357  0.0581
 2134TIP3   OH227816   6.552   1.515   3.036 -0.2309  0.1206  0.1548
 2134TIP3    H127817   6.494   1.589   3.020 -1.6519 -1.3986 -2.3406
 2134TIP3    H227818   6.603   1.507   2.955 -0.8730 -2.2103 -0.0752
 2135TIP3   OH227819   0.262   3.242  12.431  0.5273  0.0872 -0.2826
 2135TIP3    H127820   0.310   3.176  12.481  0.6474  0.9852  0.8354
 2135TIP3    H227821   0.299   3.238  12.343 -0.2133 -2.0787 -0.5746
 2136TIP3   OH227822   1.713   2.333  14.826  0.0404 -0.0425 -0.1805
 2136TIP3    H127823   1.706   2.267  14.757  1.8538  1.3998 -1.8910
 2136TIP3    H227824   1.807   2.350  14.833 -0.3406  2.1620  0.3285
 2137TIP3   OH227825   3.030   4.815  12.785 -0.3496  0.4238 -0.2932
 2137TIP3    H127826   3.009   4.783  12.697 -0.8741  0.5126 -0.2056
 2137TIP3    H227827   3.089   4.750  12.821 -1.0668 -0.2269 -0.2787
 2138TIP3   OH227828   4.184   5.835   0.564 -0.7255 -0.8238  0.3073
 2138TIP3    H127829   4.214   5.904   0.505  0.6308 -0.8130  0.9741
 2138TIP3    H227830   4.120   5.877   0.620  0.4996  0.0700  1.0849
 2139TIP3   OH227831   1.174   2.561  14.911 -0.4456  0.3212 -0.0608
 2139TIP3    H127832   1.185   2.631  14.847  2.3808 -1.2354 -1.4749
 2139TIP3    H227833   1.212   2.484  14.869 -0.5793 -1.3387  2.6312
 2140TIP3   OH227834   0.711   4.708  15.818 -0.0650 -0.4676  0.2200
 2140TIP3    H127835   0.692   4.649  15.890  1.7616 -1.1385  0.2234
 2140TIP3    H227836   0.788   4.757  15.847 -1.0652  1.3808 -0.1054
 2141TIP3   OH227837   1.877   1.796   4.625 -0.1280  0.0340  0.0592
 2141TIP3    H127838   1.922   1.861   4.680  1.2887  1.2472 -2.3822
 2141TIP3    H227839   1.882   1.715   4.676  0.8347  1.1355  1.8404
 2142TIP3   OH227840   2.032   0.752  11.378  0.1083  0.1131  0.2635
 2142TIP3    H127841   2.101   0.697  11.341 -1.4357 -0.7439 -1.4606
 2142TIP3    H227842   2.078   0.809  11.440  2.4197 -0.1277 -1.1270
 2143TIP3   OH227843   5.383   1.678  14.723  0.1159  0.3884  0.2727
 2143TIP3    H127844   5.372   1.597  14.773 -1.9101  0.1000 -0.5214
 2143TIP3    H227845   5.372   1.748  14.788  1.3282  0.0421  0.8663
 2144TIP3   OH227846   4.484   5.518   4.157 -0.0332  0.7415 -0.2821
 2144TIP3    H127847   4.484   5.527   4.252  0.4206 -0.4738 -0.1529
 2144TIP3    H227848   4.406   5.465   4.138  1.2898 -1.2928 -0.3157
 2145TIP3   OH227849   5.702   2.548  16.503  0.5410  0.6639 -0.1305
 2145TIP3    H127850   5.669   2.472  16.551  1.5726  0.5740  0.4480
 2145TIP3    H227851   5.629   2.610  16.503 -1.1880 -1.1384 -2.5833
 2146TIP3   OH227852   2.639   0.294   0.658 -0.5519 -0.2578  0.4701
 2146TIP3    H127853   2.622   0.304   0.752  1.7236  1.8976  0.7346
 2146TIP3    H227854   2.614   0.378   0.620  2.3959  0.4384 -0.1424
 2147TIP3   OH227855   3.657   2.641  11.729 -0.0208  0.7611  0.4359
 2147TIP3    H127856   3.713   2.705  11.685  1.4887 -1.2368 -0.7423
 2147TIP3    H227857   3.600   2.693  11.785  4.1697  2.9223  3.1550
 2148TIP3   OH227858   6.022   0.458   4.682  0.0848 -0.6980 -0.3186
 2148TIP3    H127859   5.979   0.397   4.622 -0.2920 -1.2315  0.4842
 2148TIP3    H227860   6.054   0.528   4.625 -0.1429 -1.2588 -1.1626
 2149TIP3   OH227861   3.857   3.708  16.066 -0.3175 -0.0738 -0.1179
 2149TIP3    H127862   3.796   3.776  16.035 -0.3441  0.0595  0.2267
 2149TIP3    H227863   3.813   3.626  16.045  0.0256 -0.0095 -1.1902
 2150TIP3   OH227864   5.221   0.779  10.859 -0.1145 -0.2939 -0.3516
 2150TIP3    H127865   5.300   0.791  10.911 -0.4680 -0.9648  0.3670
 2150TIP3    H227866   5.150   0.809  10.915 -0.5447 -1.4188 -0.2612
 2151TIP3   OH227867   6.114   5.042   2.896 -0.2764 -0.1774  0.4606
 2151TIP3    H127868   6.184   5.097   2.932 -0.0136 -0.0829 -0.1710
 2151TIP3    H227869   6.034   5.090   2.913 -0.2037 -0.3376  1.2951
 2152TIP3   OH227870   1.858   6.572   0.288  0.8593  0.2654 -0.1438
 2152TIP3    H127871   1.877   6.478   0.287  0.4216  0.0979  1.9780
 2152TIP3    H227872   1.908   6.606   0.363 -0.5873  1.3103  0.4033
 2153TIP3   OH227873   4.448   2.003  15.168  0.2038  0.2519  0.5205
 2153TIP3    H127874   4.471   1.978  15.258 -2.7565 -0.4989  1.1765
 2153TIP3    H227875   4.453   2.099  15.168  1.0415  0.2214  1.2422
 2154TIP3   OH227876   1.669   2.419   2.152  0.2427  0.1815 -0.2579
 2154TIP3    H127877   1.596   2.461   2.106 -0.3613 -0.3512  0.2089
 2154TIP3    H227878   1.733   2.489   2.163 -0.1616  0.6377 -0.7373
 2155TIP3   OH227879   5.417   0.560   5.023 -0.2781  0.0419 -0.1436
 2155TIP3    H127880   5.374   0.645   5.030  0.6834  0.8228 -2.6326
 2155TIP3    H227881   5.496   0.569   5.077 -1.3158 -0.1339  1.4717
 2156TIP3   OH227882   5.998   3.020   0.708 -0.0387 -0.4662  0.6994
 2156TIP3    H127883   6.011   3.070   0.789 -0.2243 -0.7047  0.8784
 2156TIP3    H227884   6.073   3.044   0.653 -0.8916  1.1740  0.1740
 2157TIP3   OH227885   2.130   6.370  16.093  0.3499  0.6229 -0.3030
 2157TIP3    H127886   2.103   6.460  16.110  0.6514  0.3591  1.8585
 2157TIP3    H227887   2.101   6.321  16.170  0.4302 -1.0840 -1.3134
 2158TIP3   OH227888   1.375   5.140   3.978  0.4703  0.0775  0.5828
 2158TIP3    H127889   1.418   5.100   4.054  0.3205  1.2872  1.3198
 2158TIP3    H227890   1.416   5.226   3.969  0.9759 -0.3043 -1.1518
 2159TIP3   OH227891   2.255   5.852  17.590 -0.5218 -0.0259  0.2684
 2159TIP3    H127892   2.348   5.831  17.588 -0.4561  0.0961  1.3002
 2159TIP3    H227893   2.214   5.778  17.635 -1.1121 -0.6454 -1.2003
 2160TIP3   OH227894   5.448   4.388  15.002 -0.4342 -0.1741 -0.6048
 2160TIP3    H127895   5.457   4.370  14.908 -1.3667 -0.5857 -0.6291
 2160TIP3    H227896   5.467   4.482  15.010  0.4446 -0.3047 -1.0829
 2161TIP3   OH227897   6.248   3.296  12.461 -0.6538  0.4797  0.2231
 2161TIP3    H127898   6.203   3.215  12.438  0.0422  0.4563 -1.1544
 2161TIP3    H227899   6.178   3.353  12.494 -1.0255 -0.9356  2.0626
 2162TIP3   OH227900   1.925   5.794  11.715 -0.4614 -0.1313  0.3371
 2162TIP3    H127901   1.853   5.840  11.671 -0.2180  2.3789  2.3540
 2162TIP3    H227902   1.884   5.752  11.791 -0.2190 -1.0008 -0.0018
 2163TIP3   OH227903   0.454   6.592   0.606  0.6304 -0.5962 -0.7147
 2163TIP3    H127904   0.396   6.608   0.531  2.7114 -0.5374 -2.4238
 2163TIP3    H227905   0.527   6.653   0.592  0.8551 -0.2537  1.6611
 2164TIP3   OH227906   5.054   4.077   0.400  0.0753 -0.2632 -0.0154
 2164TIP3    H127907   4.966   4.055   0.371  0.0531  1.3392 -1.3212
 2164TIP3    H227908   5.109   4.059   0.323  0.7152 -0.1509  0.4093
 2165TIP3   OH227909   2.389   0.641   0.120  0.2225 -0.5206  0.4878
 2165TIP3    H127910   2.460   0.700   0.095  0.0664 -0.0190  1.2188
 2165TIP3    H227911   2.370   0.592   0.040  2.1802 -1.5041  0.5653
 2166TIP3   OH227912   2.182   5.745   1.365 -0.3723  0.7361  0.5934
 2166TIP3    H127913   2.138   5.698   1.435  1.0563 -0.5408  0.6824
 2166TIP3    H227914   2.274   5.721   1.374  0.0747  1.8003 -0.7617
 2167TIP3   OH227915   5.657   6.503  13.535 -0.4967  0.0635 -0.5793
 2167TIP3    H127916   5.744   6.463  13.528  0.3268  1.8226 -1.0615
 2167TIP3    H227917   5.600   6.432  13.566  0.9012 -1.3944 -1.1759
 2168TIP3   OH227918   2.206   2.595   2.100  0.0863 -0.0212  0.1269
 2168TIP3    H127919   2.219   2.501   2.094  2.3146  0.1561  1.3332
 2168TIP3    H227920   2.237   2.629   2.016  0.5707 -0.2433  0.2158
 2169TIP3   OH227921   5.296   4.436  10.788  0.2011 -0.2588  0.0236
 2169TIP3    H127922   5.282   4.520  10.743  0.6316  0.4841  1.2211
 2169TIP3    H227923   5.213   4.389  10.776  0.0023  0.2586 -0.7912
 2170TIP3   OH227924   3.003   5.685  15.420 -0.4013 -0.6575  0.5090
 2170TIP3    H127925   3.029   5.679  15.512 -0.3520 -1.2404  0.4589
 2170TIP3    H227926   2.908   5.692  15.422 -0.4002 -0.6676  0.5990
 2171TIP3   OH227927   0.609   5.756   3.547  0.3254  0.1694  0.2224
 2171TIP3    H127928   0.675   5.773   3.480  1.2625 -1.6588  0.6248
 2171TIP3    H227929   0.541   5.707   3.501  1.0741 -1.2853  0.5928
 2172TIP3   OH227930   6.440   5.023   1.926  0.0177  0.6090  0.2403
 2172TIP3    H127931   6.464   4.932   1.909  2.2615  1.1495  0.2265
 2172TIP3    H227932   6.357   5.018   1.973 -0.8880 -1.3440 -1.4635
 2173TIP3   OH227933   3.632   0.525   0.842  0.3482 -0.4632 -0.2436
 2173TIP3    H127934   3.551   0.561   0.879  1.9243  0.6855  2.3574
 2173TIP3    H227935   3.640   0.439   0.883  1.2694  0.1380  0.8910
 2174TIP3   OH227936   0.397   1.647  17.486 -0.1159 -0.4274  0.3960
 2174TIP3    H127937   0.450   1.695  17.422  1.1791 -2.3929 -0.0658
 2174TIP3    H227938   0.442   1.662  17.569 -1.0095  0.9654  0.6702
 2175TIP3   OH227939   0.849   2.264  16.444 -0.8602 -0.4876  0.3943
 2175TIP3    H127940   0.876   2.289  16.532  0.1556  0.6146 -0.2004
 2175TIP3    H227941   0.753   2.265  16.447 -0.8431 -1.1108  1.6398
 2176TIP3   OH227942   6.706   3.254  17.434 -0.5330 -0.7914 -0.1606
 2176TIP3    H127943   6.764   3.327  17.416  0.3982 -1.6098 -0.5534
 2176TIP3    H227944   6.624   3.276  17.389 -1.4245  1.4743  2.3084
 2177TIP3   OH227945   3.479   3.855  14.571 -0.1187 -0.2443 -0.0831
 2177TIP3    H127946   3.476   3.760  14.580  0.4859 -0.3326 -0.6745
 2177TIP3    H227947   3.559   3.871  14.520 -1.2863  0.4398 -1.7913
 2178TIP3   OH227948   5.726   4.981  11.624 -0.2353  0.1982 -0.2729
 2178TIP3    H127949   5.802   5.018  11.579  0.1690 -0.3446 -0.0474
 2178TIP3    H227950   5.695   4.912  11.565  0.2978 -0.5179  0.2718
 2179TIP3   OH227951   0.127   6.267  12.873 -0.0004 -0.1959  0.0037
 2179TIP3    H127952   0.082   6.213  12.808 -0.7394  0.4504 -0.0329
 2179TIP3    H227953   0.124   6.356  12.837  2.1024 -0.2391 -0.4416
 2180TIP3   OH227954   4.828   4.900  14.288 -0.4291 -0.3455  0.3486
 2180TIP3    H127955   4.869   4.928  14.370 -1.8477  0.2747  0.8854
 2180TIP3    H227956   4.900   4.868  14.235  0.6642  0.1852  1.4556
 2181TIP3   OH227957   3.333   4.836  14.274  0.3141 -0.4949  0.1822
 2181TIP3    H127958   3.327   4.865  14.365  0.8446  0.2602 -0.0139
 2181TIP3    H227959   3.299   4.747  14.275  1.0623 -0.7885  1.2711
 2182TIP3   OH227960   6.389   4.037   2.194 -0.1428 -0.2570  0.2150
 2182TIP3    H127961   6.329   4.106   2.165 -0.3019 -0.7294 -0.6285
 2182TIP3    H227962   6.385   3.971   2.124  0.4514 -0.8475  0.7231
 2183TIP3   OH227963   6.459   2.559  15.204 -0.0604 -0.0818  0.1724
 2183TIP3    H127964   6.384   2.591  15.255  0.7842  2.8198 -0.2439
 2183TIP3    H227965   6.426   2.482  15.159 -2.6759  0.8395  0.3523
 2184TIP3   OH227966   6.614   3.878  12.480  0.6968  0.0675 -0.5819
 2184TIP3    H127967   6.674   3.819  12.435 -0.0052 -1.3961  0.3025
 2184TIP3    H227968   6.531   3.866  12.434  0.4012 -0.1282 -0.0134
 2185TIP3   OH227969   4.680   5.936  12.873  0.0788  0.3431  0.3614
 2185TIP3    H127970   4.691   5.932  12.968  3.7980  2.1163  0.1904
 2185TIP3    H227971   4.762   5.903  12.838 -0.5354  1.3117 -2.1875
 2186TIP3   OH227972   6.043   1.615  11.254  0.1197 -0.1579 -0.0243
 2186TIP3    H127973   5.993   1.697  11.252  1.8190  0.9642  0.3047
 2186TIP3    H227974   6.074   1.604  11.164  0.2379 -0.1936  0.0198
 2187TIP3   OH227975   2.956   6.659   5.736  0.0141 -0.4464  0.1318
 2187TIP3    H127976   2.922   6.589   5.680 -0.5084 -0.7473  0.8086
 2187TIP3    H227977   2.890   6.669   5.805  0.4587  0.1792  0.4803
 2188TIP3   OH227978   4.177   0.972  14.440 -0.0651 -0.4956 -0.5762
 2188TIP3    H127979   4.214   1.018  14.515  1.7840  0.0581 -1.7640
 2188TIP3    H227980   4.152   0.887  14.474 -0.7124  0.2867  0.9960
 2189TIP3   OH227981   0.650   4.412   4.622  0.2335 -0.3836 -0.1158
 2189TIP3    H127982   0.673   4.424   4.714 -1.4328  0.8640  0.1781
 2189TIP3    H227983   0.731   4.428   4.574  0.4826  1.8598  0.9699
 2190TIP3   OH227984   3.732   0.746   5.690  0.0311  1.1914  0.0078
 2190TIP3    H127985   3.687   0.662   5.683 -0.4501  1.2573  1.8430
 2190TIP3    H227986   3.818   0.731   5.651 -0.1534 -0.0791  0.0664
 2191TIP3   OH227987   4.492   4.168  13.072 -0.2055  0.3251  0.0489
 2191TIP3    H127988   4.497   4.187  12.978  2.7061  2.2136  0.4328
 2191TIP3    H227989   4.575   4.125  13.092 -1.0747 -0.6879  1.6598
 2192TIP3   OH227990   2.259   0.238  14.064 -0.1048 -0.2708 -0.0230
 2192TIP3    H127991   2.187   0.256  14.124 -0.7167  1.0829 -1.1017
 2192TIP3    H227992   2.338   0.261  14.114 -0.5745  0.4567  0.4081
 2193TIP3   OH227993   0.116   1.100  12.666 -0.5686 -0.4061  0.1819
 2193TIP3    H127994   0.080   1.187  12.683 -1.5777 -0.1471 -2.7320
 2193TIP3    H227995   0.040   1.047  12.642  0.2309 -1.6535  0.3200
 2194TIP3   OH227996   2.359   2.946  16.144  0.3292 -0.0955  0.3614
 2194TIP3    H127997   2.336   3.020  16.200  2.4345  0.0390  1.1351
 2194TIP3    H227998   2.352   2.869  16.200 -2.2243 -0.6233 -0.5380
 2195TIP3   OH227999   2.137   6.274  16.947  0.2913  0.2489 -0.1088
 2195TIP3    H128000   2.190   6.269  16.867  1.6619 -0.1448  0.7827
 2195TIP3    H228001   2.085   6.353  16.936  2.3661  1.6682 -0.3031
 2196TIP3   OH228002   3.771   1.950   5.865 -0.1554 -0.3451 -0.2596
 2196TIP3    H128003   3.745   1.930   5.775  0.9405 -0.6606 -0.5282
 2196TIP3    H228004   3.802   2.040   5.862 -0.0444 -0.3815 -0.2138
 2197TIP3   OH228005   2.008   2.775  14.811  0.8388 -0.4700  0.4215
 2197TIP3    H128006   1.913   2.785  14.816  0.9953  0.7677  1.4294
 2197TIP3    H228007   2.026   2.760  14.719 -0.4570 -2.2780  0.4229
 2198TIP3   OH228008   3.309   1.787  15.756  0.2756 -0.0791  0.4750
 2198TIP3    H128009   3.379   1.723  15.764  2.6116  2.4782  1.9713
 2198TIP3    H228010   3.278   1.801  15.845 -0.1949  0.8587  0.1827
 2199TIP3   OH228011   5.114   3.657   4.233 -0.8080  0.0481  0.2381
 2199TIP3    H128012   5.122   3.583   4.293 -0.1203  0.6891  0.9538
 2199TIP3    H228013   5.040   3.708   4.266  0.2007  0.9542  1.1895
 2200TIP3   OH228014   4.180   3.591   2.012  0.1014 -0.0669  0.7330
 2200TIP3    H128015   4.256   3.644   1.988  0.4935 -0.4678  1.0758
 2200TIP3    H228016   4.184   3.585   2.108 -0.9332  0.7551  0.8464
 2201TIP3   OH228017   0.630   0.756  13.981 -0.0820  0.2840 -0.2435
 2201TIP3    H128018   0.641   0.662  13.990 -1.4819  0.0474 -0.8148
 2201TIP3    H228019   0.616   0.770  13.887  0.6474  1.1299 -0.2429
 2202TIP3   OH228020   0.630   2.735  14.272  0.7105  0.3552 -0.0997
 2202TIP3    H128021   0.576   2.795  14.219  2.0001 -0.0001 -1.9057
 2202TIP3    H228022   0.693   2.792  14.316  2.0368  0.3779 -1.9396
 2203TIP3   OH228023   1.243   6.353   2.965 -0.4420  0.1371 -0.2940
 2203TIP3    H128024   1.284   6.297   2.899  2.9399  1.1790  0.6913
 2203TIP3    H228025   1.272   6.318   3.048  1.2515  2.7853  0.3740
 2204TIP3   OH228026   2.638   5.699   0.481  0.0378  0.2013 -0.0005
 2204TIP3    H128027   2.702   5.657   0.538 -1.7394 -1.4620  0.8883
 2204TIP3    H228028   2.673   5.687   0.392  0.6474 -1.2772  0.4095
 2205TIP3   OH228029   3.869   4.422  11.298 -0.3387  0.0380  0.4517
 2205TIP3    H128030   3.775   4.435  11.292 -0.2490 -0.0036 -2.3924
 2205TIP3    H228031   3.899   4.423  11.207  2.3659 -0.2920  1.2582
 2206TIP3   OH228032   6.187   5.400   1.418  0.3674 -0.6744 -0.3146
 2206TIP3    H128033   6.283   5.409   1.417  0.4781 -1.7758 -1.3975
 2206TIP3    H228034   6.170   5.332   1.483  0.3166 -0.6173 -0.2667
 2207TIP3   OH228035   5.224   0.815   4.474 -0.1650 -0.7729 -0.0548
 2207TIP3    H128036   5.184   0.832   4.389  2.1218 -0.2213 -1.1114
 2207TIP3    H228037   5.203   0.892   4.527 -1.1288 -0.8582 -0.3040
 2208TIP3   OH228038   6.462   3.693   1.464  0.0649 -0.1014 -0.6027
 2208TIP3    H128039   6.517   3.769   1.483  1.2733 -1.1696  0.3744
 2208TIP3    H228040   6.514   3.618   1.493 -1.8735 -1.1872  0.2866
 2209TIP3   OH228041   0.084   3.497  14.285  0.7319  0.5768  0.1838
 2209TIP3    H128042   0.100   3.402  14.284 -2.9254 -0.1862  1.2057
 2209TIP3    H228043   0.118   3.526  14.370 -0.2561 -0.3062  0.9034
 2210TIP3   OH228044   4.684   5.693   5.109  0.1568  0.2007 -0.4218
 2210TIP3    H128045   4.711   5.744   5.032  0.2267  0.1380 -0.4387
 2210TIP3    H228046   4.599   5.730   5.133  1.1011  1.6866  0.7854
 2211TIP3   OH228047   6.192   3.621   2.804  0.6266 -0.6619 -0.4112
 2211TIP3    H128048   6.172   3.547   2.862  0.2742  1.3959  2.2793
 2211TIP3    H228049   6.279   3.650   2.832 -0.8919  2.4233  1.5356
 2212TIP3   OH228050   5.134   1.990  13.723 -0.3075  0.0006 -0.0678
 2212TIP3    H128051   5.115   2.067  13.776 -1.0985  0.0053 -0.3486
 2212TIP3    H228052   5.228   1.975  13.734  0.1033  1.7294 -0.9843
 2213TIP3   OH228053   3.425   1.130   1.360 -0.4440 -0.8039  0.4684
 2213TIP3    H128054   3.492   1.187   1.398 -1.9092  0.0648  1.8734
 2213TIP3    H228055   3.398   1.175   1.280 -1.5082  0.4855  1.5072
 2214TIP3   OH228056   5.854   2.379   5.743  0.5495  0.1050  0.4798
 2214TIP3    H128057   5.857   2.454   5.802  0.8991  1.0764 -0.7449
 2214TIP3    H228058   5.762   2.371   5.718  0.5802  0.3697  0.2905
 2215TIP3   OH228059   1.397   0.436   4.644 -0.0241  0.2095 -0.3281
 2215TIP3    H128060   1.478   0.391   4.666  0.5736  1.1662 -0.5000
 2215TIP3    H228061   1.402   0.451   4.550 -1.4782 -1.7424 -0.7858
 2216TIP3   OH228062   3.275   3.621  11.592  0.0144  0.0161  0.0597
 2216TIP3    H128063   3.357   3.669  11.596 -0.2048  0.4721 -0.6829
 2216TIP3    H228064   3.218   3.664  11.656  0.0055  0.3920 -0.1969
 2217TIP3   OH228065   3.124   1.667  15.561  0.0758 -0.2967 -0.2953
 2217TIP3    H128066   3.164   1.720  15.630  0.8445  0.2495 -1.1337
 2217TIP3    H228067   3.148   1.577  15.584 -1.4961 -0.3650  1.2996
 2218TIP3   OH228068   0.308   6.102   0.775 -0.3442  0.0023 -0.2129
 2218TIP3    H128069   0.296   6.079   0.867 -0.9449  1.0710 -0.0022
 2218TIP3    H228070   0.387   6.156   0.775  0.5270 -1.2296 -0.5646
 2219TIP3   OH228071   0.578   0.305  12.966 -0.7395 -0.0131  0.3338
 2219TIP3    H128072   0.582   0.385  12.913  3.3652  1.1821  2.0465
 2219TIP3    H228073   0.536   0.333  13.047 -1.5345 -0.2899  0.0287
 2220TIP3   OH228074   4.476   4.463   5.641  0.3389  0.1228 -0.1494
 2220TIP3    H128075   4.387   4.497   5.647  0.3801  0.3555 -0.8151
 2220TIP3    H228076   4.481   4.422   5.555  0.1553 -1.9744  0.7815
 2221TIP3   OH228077   4.285   1.814   2.393  0.7916  0.1603  0.0168
 2221TIP3    H128078   4.340   1.887   2.363  0.1649  0.9155  0.6441
 2221TIP3    H228079   4.258   1.840   2.482 -0.5983 -0.1680 -0.2870
 2222TIP3   OH228080   1.040   5.388   4.624  0.0162  0.1665  0.2413
 2222TIP3    H128081   1.066   5.368   4.714 -1.2034  1.0661  0.8285
 2222TIP3    H228082   1.075   5.476   4.607  0.6635 -0.1960 -0.3472
 2223TIP3   OH228083   5.377   2.231   3.185 -0.1141 -0.4680  0.0828
 2223TIP3    H128084   5.388   2.137   3.199 -1.0906 -0.9352 -1.8713
 2223TIP3    H228085   5.423   2.248   3.103  0.1405  0.7895  0.4798
 2224TIP3   OH228086   3.684   3.582   0.013  0.1771  0.6537 -0.2595
 2224TIP3    H128087   3.627   3.616   0.081  0.8171  0.2481  0.4979
 2224TIP3    H228088   3.640   3.605  -0.069 -0.8507  0.7183  0.2919
 2225TIP3   OH228089   3.086   6.042   2.557 -0.7522 -0.4384 -0.0031
 2225TIP3    H128090   2.997   6.062   2.588 -1.3439 -0.9335 -1.3082
 2225TIP3    H228091   3.141   6.053   2.634 -2.0615 -0.9421  1.0524
 2226TIP3   OH228092   1.043   3.172  14.408  0.2824 -0.2045 -0.5864
 2226TIP3    H128093   0.982   3.203  14.341  0.8476  1.8641 -0.2128
 2226TIP3    H228094   1.119   3.140  14.359 -0.0829 -0.5045 -0.9680
 2227TIP3   OH228095   5.104   0.616   2.217  0.2661 -0.6825  0.2071
 2227TIP3    H128096   5.161   0.646   2.289  2.0516  1.1794 -1.8248
 2227TIP3    H228097   5.015   0.625   2.251  0.9920  1.5259  1.7430
 2228TIP3   OH228098   4.506   1.842  14.622  0.3590 -0.0818  0.1005
 2228TIP3    H128099   4.590   1.878  14.651 -0.1494  0.7749  0.5670
 2228TIP3    H228100   4.442   1.882  14.680 -0.4611 -0.0769 -0.7857
 2229TIP3   OH228101   6.403   2.675  13.186 -0.1676 -0.1394  0.0851
 2229TIP3    H128102   6.499   2.680  13.183 -0.2233  1.5864  0.2335
 2229TIP3    H228103   6.379   2.634  13.103  0.6358  0.9319 -0.7094
 2230TIP3   OH228104   0.560   3.327   2.739  0.0312  0.0514 -0.4996
 2230TIP3    H128105   0.503   3.366   2.805  3.0354 -0.1287  2.4471
 2230TIP3    H228106   0.641   3.378   2.744  1.5592 -2.0879 -1.6646
 2231TIP3   OH228107   0.308   5.668   0.678 -0.3302  0.1762 -0.2498
 2231TIP3    H128108   0.361   5.639   0.604 -0.4566  0.5593 -0.4954
 2231TIP3    H228109   0.287   5.588   0.726  0.9514  0.0764  0.1729
 2232TIP3   OH228110   1.885   3.084   2.548 -0.6465  0.4386  0.1362
 2232TIP3    H128111   1.824   3.031   2.601  0.4476 -1.4427 -0.3813
 2232TIP3    H228112   1.945   3.121   2.612 -0.6776  0.0147  0.4219
 2233TIP3   OH228113   6.566   0.396  11.918 -0.2547  0.5135 -0.0086
 2233TIP3    H128114   6.593   0.397  12.010  0.7904  0.5980 -0.3032
 2233TIP3    H228115   6.623   0.331  11.877 -3.9771 -3.4152  0.3094
 2234TIP3   OH228116   3.260   5.288   5.057 -0.2597 -0.3648  0.2382
 2234TIP3    H128117   3.340   5.242   5.034 -0.5806 -0.9623  0.2943
 2234TIP3    H228118   3.269   5.305   5.151  0.3864  0.7530 -0.0118
 2235TIP3   OH228119   1.583   0.798  12.783 -0.3260  0.3183 -0.0017
 2235TIP3    H128120   1.547   0.751  12.708 -0.2170  0.0503  0.1114
 2235TIP3    H228121   1.603   0.729  12.847 -3.2713  0.7212  1.5222
 2236TIP3   OH228122   0.177   6.219  16.497  0.2498  0.1672  0.1444
 2236TIP3    H128123   0.220   6.269  16.427 -0.1786 -0.8280 -0.8636
 2236TIP3    H228124   0.249   6.192  16.554  1.1188 -1.9453 -1.8125
 2237TIP3   OH228125   3.587   0.018   4.293 -0.6385 -0.5129 -0.4970
 2237TIP3    H128126   3.531   0.083   4.335 -0.4348  0.3691 -1.5436
 2237TIP3    H228127   3.529  -0.057   4.278 -0.9749 -0.4419  0.3582
 2238TIP3   OH228128   0.456   2.885  14.159  0.2323  0.1095 -0.1825
 2238TIP3    H128129   0.422   2.874  14.071  1.9266  0.7080 -0.9548
 2238TIP3    H228130   0.428   2.973  14.185 -1.6965 -0.6839  0.5851
 2239TIP3   OH228131   2.287   1.001  17.484 -0.1056  0.2585 -0.3277
 2239TIP3    H128132   2.342   1.079  17.493 -1.5340  1.4432 -1.2689
 2239TIP3    H228133   2.335   0.943  17.425  0.2492  1.1574 -0.9383
 2240TIP3   OH228134   3.579   0.768   6.352  0.2092 -0.0535  0.3827
 2240TIP3    H128135   3.575   0.829   6.426  0.4292 -0.7194  0.9541
 2240TIP3    H228136   3.553   0.821   6.277 -0.8865  0.4218  1.0623
 2241TIP3   OH228137   0.742   3.282   0.731 -0.3376 -0.0982  0.1171
 2241TIP3    H128138   0.778   3.363   0.767 -0.6081  0.4954 -0.8917
 2241TIP3    H228139   0.654   3.276   0.768 -0.3177  0.0733  0.1914
 2242TIP3   OH228140   2.546   3.031   6.457  0.2708  0.5444  0.0375
 2242TIP3    H128141   2.500   2.950   6.436 -0.9425  1.6542 -1.7624
 2242TIP3    H228142   2.502   3.064   6.536  0.5902 -0.3672  0.6140
 2243TIP3   OH228143   5.098   1.996   4.941 -0.4172  0.0683  0.0149
 2243TIP3    H128144   5.125   1.904   4.947  0.1899  0.2007 -0.5951
 2243TIP3    H228145   5.075   2.019   5.031 -0.7438 -0.7285  0.1459
 2244TIP3   OH228146   5.113   1.908   0.121  0.0523  0.3209 -0.0573
 2244TIP3    H128147   5.025   1.919   0.083 -0.6780 -0.1693  1.4032
 2244TIP3    H228148   5.126   1.987   0.173 -0.3502 -0.4469  1.2480
 2245TIP3   OH228149   5.288   4.186   1.851 -0.0418 -0.4251  0.1855
 2245TIP3    H128150   5.265   4.214   1.763 -1.7383 -2.4679 -0.0970
 2245TIP3    H228151   5.210   4.142   1.884  1.0133 -0.9510  2.1933
 2246TIP3   OH228152   4.378   1.410  16.057 -0.0105  0.4747 -0.3012
 2246TIP3    H128153   4.317   1.422  16.130 -1.3007 -0.0654 -1.2540
 2246TIP3    H228154   4.447   1.475  16.072  1.0811 -1.1966  2.6705
 2247TIP3   OH228155   2.521   2.394   2.081  0.6832 -0.1317 -0.5796
 2247TIP3    H128156   2.457   2.395   2.010  0.0939  0.2111 -0.0509
 2247TIP3    H228157   2.605   2.379   2.037  0.1354 -1.6540 -1.1935
 2248TIP3   OH228158   3.256   4.886   5.751 -0.0832 -0.2617 -0.3908
 2248TIP3    H128159   3.213   4.946   5.812  1.7297  0.6948  0.0222
 2248TIP3    H228160   3.348   4.913   5.751  0.3898 -1.6753 -1.8629
 2249TIP3   OH228161   4.446   3.749  11.932  0.0496 -0.5449 -0.6102
 2249TIP3    H128162   4.412   3.696  11.860  0.6090 -0.8762 -0.6394
 2249TIP3    H228163   4.407   3.836  11.919 -1.5519 -1.1534 -0.0775
 2250TIP3   OH228164   5.026   0.210  17.099  0.1138  0.1539 -0.0677
 2250TIP3    H128165   5.031   0.179  17.189  1.0825 -2.6210 -0.9947
 2250TIP3    H228166   5.117   0.219  17.071 -0.1715  0.3807 -0.9648
 2251TIP3   OH228167   1.731   6.347   0.551 -0.0800 -0.1193 -0.2341
 2251TIP3    H128168   1.695   6.418   0.497  1.4482  0.0621 -1.0648
 2251TIP3    H228169   1.763   6.391   0.629 -0.8884 -0.1694  0.1315
 2252TIP3   OH228170   2.586   1.421   0.691 -0.3757 -0.9050 -0.2800
 2252TIP3    H128171   2.522   1.415   0.761  0.1871  1.4208  0.5097
 2252TIP3    H228172   2.549   1.485   0.630 -0.7044 -2.6460 -2.0081
 2253TIP3   OH228173   2.324   0.668  14.055 -0.0172  0.0364  1.0841
 2253TIP3    H128174   2.337   0.594  14.114  0.0603 -0.1470  0.8437
 2253TIP3    H228175   2.229   0.671  14.040  0.1618 -1.8211 -1.1283
 2254TIP3   OH228176   2.629   0.951  13.306 -0.1520  0.0491  0.3101
 2254TIP3    H128177   2.583   0.872  13.331 -1.0771 -0.0246 -1.4331
 2254TIP3    H228178   2.712   0.920  13.269 -0.2783 -0.0865  0.1366
 2255TIP3   OH228179   4.277   2.073  12.009  0.3442 -0.0077 -0.1878
 2255TIP3    H128180   4.342   2.071  12.080  0.8686 -0.7377 -0.6723
 2255TIP3    H228181   4.226   2.152  12.025  1.1293  0.3907  0.4037
 2256TIP3   OH228182   6.139   5.381  15.246  0.4637 -0.2399  0.0438
 2256TIP3    H128183   6.220   5.342  15.280 -0.0820 -0.1265  1.5057
 2256TIP3    H228184   6.074   5.312  15.254 -0.0858  0.3664  0.9432
 2257TIP3   OH228185   1.651   0.433   0.920  0.4830 -0.0575  0.0617
 2257TIP3    H128186   1.662   0.353   0.868  1.9627  0.8287 -1.0935
 2257TIP3    H228187   1.678   0.408   1.008 -0.2260 -1.1186 -0.0023
 2258TIP3   OH228188   4.201   6.655  12.856  0.1647 -0.5130 -0.4214
 2258TIP3    H128189   4.158   6.741  12.850  0.6599 -0.0298  1.9702
 2258TIP3    H228190   4.293   6.675  12.876  0.6770 -1.5920 -1.5774
 2259TIP3   OH228191   1.396   5.106  17.271 -0.6228  0.3961  0.5957
 2259TIP3    H128192   1.361   5.135  17.187 -2.4502  0.9068  1.4834
 2259TIP3    H228193   1.335   5.038  17.300  0.2805 -0.1452  1.2673
 2260TIP3   OH228194   2.258   2.326   3.330  0.2107 -0.5222  0.7010
 2260TIP3    H128195   2.315   2.390   3.288  1.1734 -2.2197 -0.7227
 2260TIP3    H228196   2.295   2.241   3.304 -1.0143 -1.6651  2.4932
 2261TIP3   OH228197   5.645   5.992  14.818  0.1982  0.5394 -0.0535
 2261TIP3    H128198   5.715   6.000  14.753  0.1816 -1.1399 -0.3127
 2261TIP3    H228199   5.585   6.064  14.798  1.0343  1.0280 -0.8458
 2262TIP3   OH228200   6.655   0.089   6.495 -0.6826 -0.1643  0.1446
 2262TIP3    H128201   6.592   0.040   6.548 -0.6786 -1.4734 -1.0114
 2262TIP3    H228202   6.729   0.029   6.484 -0.7899 -0.0389 -1.5292
 2263TIP3   OH228203   2.034   4.196   6.295 -0.0249 -0.5314  0.1338
 2263TIP3    H128204   2.079   4.268   6.251 -0.5959  0.1135  0.5746
 2263TIP3    H228205   1.943   4.205   6.267 -0.0978 -1.0864  0.1923
 2264TIP3   OH228206   1.590   4.207  11.210 -0.1419  0.0594  0.0166
 2264TIP3    H128207   1.529   4.153  11.160  1.2092 -1.0852 -0.4555
 2264TIP3    H228208   1.639   4.145  11.265  1.9515  0.6280 -1.0768
 2265TIP3   OH228209   1.769   0.340  13.895  0.9585  0.7057  0.0585
 2265TIP3    H128210   1.707   0.408  13.867  2.7420  2.5766  0.4387
 2265TIP3    H228211   1.823   0.382  13.962  2.4008 -0.9724  0.0347
 2266TIP3   OH228212   5.700   5.754  13.164  0.3131  0.4867 -0.0177
 2266TIP3    H128213   5.767   5.763  13.231  1.7246  0.7115 -1.4246
 2266TIP3    H228214   5.671   5.663  13.171  1.6177  0.0485 -0.1635
 2267TIP3   OH228215   2.725   2.761   5.669 -0.1316  0.4614 -0.3055
 2267TIP3    H128216   2.664   2.691   5.645 -2.1901  2.3000 -0.7088
 2267TIP3    H228217   2.754   2.798   5.586 -1.5393  2.0737 -0.1320
 2268TIP3   OH228218   0.062   3.144   0.244 -0.7550  0.0553  0.1307
 2268TIP3    H128219   0.038   3.053   0.227 -1.1058  0.2772 -0.6323
 2268TIP3    H228220   0.079   3.148   0.338  0.0285 -0.9636  0.0429
 2269TIP3   OH228221   3.524   0.649  14.301  0.1033 -0.7642  0.0589
 2269TIP3    H128222   3.554   0.739  14.313  3.6560 -1.8891  0.7498
 2269TIP3    H228223   3.501   0.620  14.390  0.3967 -0.9636  0.0721
 2270TIP3   OH228224   3.676   4.585   2.400  0.3156  0.3268 -0.1115
 2270TIP3    H128225   3.676   4.505   2.347 -0.4946  1.5067 -1.9954
 2270TIP3    H228226   3.654   4.655   2.338  1.3508  2.0803  1.3997
 2271TIP3   OH228227   6.255   3.656   0.727 -0.1656  0.0976  0.6847
 2271TIP3    H128228   6.246   3.605   0.807  1.3228 -0.7431  0.3452
 2271TIP3    H228229   6.224   3.598   0.658  2.5310 -0.8734  0.1589
 2272TIP3   OH228230   0.822   5.435  12.250  0.2669 -0.0798  0.3185
 2272TIP3    H128231   0.844   5.456  12.159 -0.3219  1.9540  0.5927
 2272TIP3    H228232   0.735   5.395  12.245 -0.6500  1.8105  0.0818
 2273TIP3   OH228233   6.427   3.393  16.301 -0.5401 -0.2387  0.1437
 2273TIP3    H128234   6.417   3.418  16.393 -0.8130 -1.6434  0.5200
 2273TIP3    H228235   6.346   3.423  16.259 -0.5776  0.0860  0.4474
 2274TIP3   OH228236   4.183   5.848   1.722 -0.1646  0.7410  0.6449
 2274TIP3    H128237   4.244   5.870   1.653 -0.7141  0.2958  0.0014
 2274TIP3    H228238   4.235   5.801   1.787  0.6247  2.2681  1.1609
 2275TIP3   OH228239   5.172   0.958  11.882  0.2762  0.4979  0.0297
 2275TIP3    H128240   5.121   0.893  11.833 -0.1975  0.4029  0.6323
 2275TIP3    H228241   5.256   0.961  11.838  0.4597 -0.8603  0.2427
 2276TIP3   OH228242   1.842   4.512   2.255  0.6638 -0.1374  0.0440
 2276TIP3    H128243   1.925   4.558   2.273  0.1173  1.0384 -0.3327
 2276TIP3    H228244   1.863   4.420   2.269  1.6831  0.2421  1.3010
 2277TIP3   OH228245   0.092   4.813  12.146  0.9564 -0.4550 -0.0469
 2277TIP3    H128246   0.135   4.749  12.202  0.4052  0.6431  1.6863
 2277TIP3    H228247   0.065   4.884  12.205 -1.9093 -0.3985 -1.2458
 2278TIP3   OH228248   3.898   4.034   2.485  0.0515  0.1684 -0.0229
 2278TIP3    H128249   3.806   4.047   2.509  0.5547  1.1918  1.4835
 2278TIP3    H228250   3.922   3.951   2.527 -0.3486 -0.4541 -0.9924
 2279TIP3   OH228251   4.169   0.980   0.919 -0.1634 -0.0280  0.0231
 2279TIP3    H128252   4.180   0.979   1.014  0.3055  0.4838 -0.0201
 2279TIP3    H228253   4.185   1.071   0.894 -0.5231 -0.1132 -0.5201
 2280TIP3   OH228254   4.687   4.155  14.913 -0.0969  0.2129 -0.2982
 2280TIP3    H128255   4.730   4.226  14.962  1.3573  0.4633 -1.8601
 2280TIP3    H228256   4.707   4.077  14.965  0.9233  0.5476 -0.1422
 2281TIP3   OH228257   6.328   0.495   1.519  0.5252  0.3063  0.7150
 2281TIP3    H128258   6.376   0.433   1.574  0.3664  0.9464  1.5961
 2281TIP3    H228259   6.396   0.555   1.487  1.2277 -2.0635 -2.7095
 2282TIP3   OH228260   5.305   4.184   1.061 -0.1671 -0.1661  0.4792
 2282TIP3    H128261   5.248   4.258   1.078  0.1110 -0.2036  1.6889
 2282TIP3    H228262   5.369   4.216   0.997  0.0805  0.7112  1.1518
 2283TIP3   OH228263   2.646   2.866   4.197 -0.1535  0.0679  0.5054
 2283TIP3    H128264   2.728   2.859   4.245 -0.0557 -0.5208  0.2664
 2283TIP3    H228265   2.633   2.779   4.160 -1.2962 -0.0788  1.2054
 2284TIP3   OH228266   5.048   3.708  17.090 -0.2583 -0.0361  0.8524
 2284TIP3    H128267   5.011   3.711  17.178 -0.5895  1.4429  0.6897
 2284TIP3    H228268   4.971   3.710  17.032 -0.0066  0.1958  0.5255
 2285TIP3   OH228269   5.024   5.143  11.758  0.1123 -0.4270 -0.6859
 2285TIP3    H128270   5.000   5.128  11.666  0.4710 -0.4502 -0.7810
 2285TIP3    H228271   5.074   5.066  11.782 -0.7478 -0.8348 -0.1852
 2286TIP3   OH228272   0.809   6.697   3.486 -0.4863 -0.0810 -0.5534
 2286TIP3    H128273   0.811   6.747   3.567  0.6992  0.6935 -1.0337
 2286TIP3    H228274   0.768   6.614   3.510  0.9975 -0.3887  1.1661
 2287TIP3   OH228275   0.762   3.822   3.070 -0.5643  0.2956 -0.1237
 2287TIP3    H128276   0.812   3.758   3.020 -1.6543  0.1738 -1.0690
 2287TIP3    H228277   0.792   3.810   3.161  0.5054 -0.3328 -0.5459
 2288TIP3   OH228278   3.513   1.903   1.427 -0.3882 -0.3383 -0.1708
 2288TIP3    H128279   3.513   1.900   1.523  0.0952  2.3513 -0.0189
 2288TIP3    H228280   3.599   1.869   1.402 -0.4778 -0.9581  0.3426
 2289TIP3   OH228281   6.416   1.267  15.503 -0.2338 -0.1853  0.0764
 2289TIP3    H128282   6.398   1.173  15.510  0.3612 -0.2405  0.9299
 2289TIP3    H228283   6.350   1.308  15.559 -1.5349  0.0410 -1.5495
 2290TIP3   OH228284   5.615   5.929  13.536  0.3964 -0.2069 -0.0925
 2290TIP3    H128285   5.604   5.952  13.443  0.1385 -0.1321 -0.0457
 2290TIP3    H228286   5.709   5.940  13.552  0.2872  0.8400 -0.0702
 2291TIP3   OH228287   3.885   1.867  15.909  0.2854  0.6393  0.0095
 2291TIP3    H128288   3.801   1.911  15.900 -0.2390 -0.0037  1.4314
 2291TIP3    H228289   3.927   1.909  15.984  0.8758  0.4167 -0.1874
 2292TIP3   OH228290   0.601   3.957  13.786 -0.9483 -0.1494 -0.0945
 2292TIP3    H128291   0.559   3.968  13.871  1.6567  0.2413  1.2351
 2292TIP3    H228292   0.593   3.863  13.767 -1.5216 -0.2459  0.5967
 2293TIP3   OH228293   4.755   2.552   0.219 -0.0959 -0.0805 -0.0649
 2293TIP3    H128294   4.777   2.464   0.189  1.8584  0.2803  0.1723
 2293TIP3    H228295   4.730   2.600   0.140  2.5431  0.1622 -0.8302
 2294TIP3   OH228296   4.409   3.913   2.641  0.0924 -0.3181  0.5651
 2294TIP3    H128297   4.494   3.944   2.611  0.2784 -0.1083  1.2991
 2294TIP3    H228298   4.351   3.988   2.633  0.2079 -0.1827  0.9923
 2295TIP3   OH228299   2.498   4.910  15.896 -0.1413 -0.3055  0.5618
 2295TIP3    H128300   2.542   4.959  15.966  0.4026 -1.7110  1.2541
 2295TIP3    H228301   2.560   4.909  15.824  0.0676 -0.4212  0.7410
 2296TIP3   OH228302   0.203   3.313  12.926 -0.3490  0.3138 -0.0446
 2296TIP3    H128303   0.115   3.278  12.940 -1.1828  2.0117 -0.6982
 2296TIP3    H228304   0.243   3.254  12.862 -0.5469 -1.1682  1.1717
 2297TIP3   OH228305   1.387   0.670   1.196  0.4578  0.6198  0.0663
 2297TIP3    H128306   1.389   0.762   1.225 -1.1287  0.4291  0.8985
 2297TIP3    H228307   1.448   0.625   1.254  2.1814  1.3098 -1.1254
 2298TIP3   OH228308   3.349   5.788  17.471 -0.2128 -0.3028  0.1739
 2298TIP3    H128309   3.382   5.713  17.423 -0.6717 -0.7975  0.6077
 2298TIP3    H228310   3.370   5.769  17.562 -0.0368  0.2525  0.2476
 2299TIP3   OH228311   0.725   6.265  11.250  0.7665 -0.4014  0.1396
 2299TIP3    H128312   0.816   6.244  11.227  0.7863 -3.1526  2.2539
 2299TIP3    H228313   0.726   6.272  11.346 -1.0484  0.9478  0.1217
 2300TIP3   OH228314   1.558   6.280  10.923 -0.5530  0.0588 -0.5933
 2300TIP3    H128315   1.511   6.199  10.904 -0.4046 -0.6194  1.5451
 2300TIP3    H228316   1.568   6.324  10.839  0.1203 -2.5605 -1.9686
 2301TIP3   OH228317   2.590   6.135  16.932 -0.1031  0.6108 -0.1625
 2301TIP3    H128318   2.608   6.048  16.896 -1.9073 -0.2427  0.8053
 2301TIP3    H228319   2.579   6.191  16.855  1.1842  0.0257 -0.8042
 2302TIP3   OH228320   0.304   3.423   1.157 -0.1694 -0.1374  0.1029
 2302TIP3    H128321   0.324   3.432   1.250  0.1922 -0.8312  0.0975
 2302TIP3    H228322   0.371   3.474   1.113 -0.2286  0.0363  0.2133
 2303TIP3   OH228323   4.368   5.393  15.892  0.2853  0.1994 -0.1396
 2303TIP3    H128324   4.375   5.415  15.985 -0.0403  0.4324 -0.1684
 2303TIP3    H228325   4.456   5.362  15.868  0.3047 -0.0959  0.3019
 2304TIP3   OH228326   2.189   2.914   3.133  0.4057  0.1506 -0.1800
 2304TIP3    H128327   2.181   2.821   3.110 -0.4839  0.0890  0.3275
 2304TIP3    H228328   2.262   2.918   3.193  0.8471 -0.1268 -0.6890
 2305TIP3   OH228329   1.153   0.292  17.423 -0.5538 -0.0141  0.5475
 2305TIP3    H128330   1.173   0.199  17.413  2.3148  0.5987 -0.2501
 2305TIP3    H228331   1.129   0.321  17.335  0.9057  0.4479  0.2809
 2306TIP3   OH228332   4.526   4.718  15.251 -0.4579  0.5041 -0.1928
 2306TIP3    H128333   4.518   4.655  15.179 -0.1764  1.0385 -0.6923
 2306TIP3    H228334   4.459   4.689  15.314 -0.6450 -0.0230 -0.6171
 2307TIP3   OH228335   3.492   0.821  15.598 -0.0932  0.1212 -0.0940
 2307TIP3    H128336   3.554   0.894  15.608  1.0969 -0.8408 -0.2601
 2307TIP3    H228337   3.517   0.780  15.515 -1.2925  0.0120 -0.4185
 2308TIP3   OH228338   0.067   3.632   5.079  0.4000  0.2638 -0.2321
 2308TIP3    H128339   0.152   3.659   5.044 -0.5150  2.0630 -1.1848
 2308TIP3    H228340   0.022   3.591   5.005 -0.3040  1.1473 -0.3175
 2309TIP3   OH228341   3.900   6.606  14.619 -0.3764  0.2836  0.4267
 2309TIP3    H128342   3.968   6.644  14.563 -1.4541  0.9031 -0.5015
 2309TIP3    H228343   3.915   6.511  14.614  0.4798  0.4166  0.3261
 2310TIP3   OH228344   5.884   5.235  14.045 -0.1967  0.1028 -0.3094
 2310TIP3    H128345   5.823   5.284  13.988  0.3716  0.8112 -0.3262
 2310TIP3    H228346   5.899   5.294  14.119 -0.5261 -0.6045  0.3364
 2311TIP3   OH228347   0.601   6.321  16.684  0.7074 -0.3973  0.0917
 2311TIP3    H128348   0.674   6.261  16.700  2.7306  1.5702 -1.1652
 2311TIP3    H228349   0.627   6.370  16.606 -0.7131  2.2561  1.1721
 2312TIP3   OH228350   3.758   0.121  13.611  0.0233 -0.2636 -0.0281
 2312TIP3    H128351   3.746   0.031  13.640  0.3509 -0.4126 -0.3500
 2312TIP3    H228352   3.703   0.173  13.669  0.1306 -0.6339  0.4054
 2313TIP3   OH228353   4.630   5.031  11.536 -0.2700  0.7374 -0.3232
 2313TIP3    H128354   4.586   5.109  11.504  2.0532  2.1830 -0.2063
 2313TIP3    H228355   4.613   5.030  11.630 -3.4367 -1.1007 -0.7629
 2314TIP3   OH228356   0.313   6.705  10.853  0.0392  0.0630  0.0865
 2314TIP3    H128357   0.245   6.692  10.787  0.9033 -0.3424 -0.7507
 2314TIP3    H228358   0.372   6.769  10.813  0.5787 -0.2049  0.4557
 2315TIP3   OH228359   2.876   5.309   5.642 -0.3332  0.1536 -1.0614
 2315TIP3    H128360   2.832   5.391   5.665  1.5225  0.4245  2.0419
 2315TIP3    H228361   2.957   5.337   5.599  1.2977  0.2183  1.7836
 2316TIP3   OH228362   3.973   0.322   0.084  0.2610 -0.4626 -0.1298
 2316TIP3    H128363   4.037   0.378   0.130 -0.8883  0.0820  0.8772
 2316TIP3    H228364   3.976   0.352  -0.007  1.8484 -0.8542 -0.2392
 2317TIP3   OH228365   6.246   1.600   5.928 -0.1317 -0.0203  0.3348
 2317TIP3    H128366   6.322   1.548   5.903  0.7229  2.5324 -3.3174
 2317TIP3    H228367   6.179   1.576   5.864  0.5534  3.5408 -2.0313
 2318TIP3   OH228368   5.343   0.746   3.941 -0.7959 -0.3597 -0.3672
 2318TIP3    H128369   5.377   0.795   4.016 -2.1204  1.9058 -1.1495
 2318TIP3    H228370   5.267   0.699   3.977 -2.0887  1.5695 -0.4274
 2319TIP3   OH228371   3.250   0.609  11.484 -0.0494  0.6810 -0.2997
 2319TIP3    H128372   3.260   0.651  11.399 -1.8938 -0.9255 -1.3955
 2319TIP3    H228373   3.174   0.551  11.474 -0.6018  0.7401  2.5661
 2320TIP3   OH228374   0.993   0.762  16.954 -0.0466  0.0109  0.2086
 2320TIP3    H128375   1.006   0.700  16.882  0.7113 -0.7900  1.0139
 2320TIP3    H228376   1.079   0.801  16.968 -0.3886  0.8275  0.1118
 2321TIP3   OH228377   5.451   6.419   3.161 -0.0621 -0.6938  0.0780
 2321TIP3    H128378   5.377   6.387   3.212 -1.2765  0.3343 -0.9551
 2321TIP3    H228379   5.443   6.374   3.077  1.4257 -1.7387  0.4544
 2322TIP3   OH228380   0.825   3.072  13.457  0.3375  0.1747  0.1109
 2322TIP3    H128381   0.916   3.097  13.441  0.2272  0.1990 -0.4829
 2322TIP3    H228382   0.781   3.083  13.373 -0.1535 -0.1108  0.3230
 2323TIP3   OH228383   4.578   2.029   5.787  0.1585 -0.6388  0.5467
 2323TIP3    H128384   4.576   2.116   5.827 -0.2753 -0.5673  0.3756
 2323TIP3    H228385   4.579   2.046   5.693  0.2954 -0.8162  0.5164
 2324TIP3   OH228386   6.643   3.045  15.416  0.1435 -0.4868  0.1947
 2324TIP3    H128387   6.724   3.039  15.366 -0.6149  1.9926 -1.4977
 2324TIP3    H228388   6.672   3.060  15.506  1.5789 -0.1282 -0.2933
 2325TIP3   OH228389   0.223   2.969  11.976  0.1837 -0.1475 -0.0064
 2325TIP3    H128390   0.314   2.941  11.990 -0.3147 -0.7543  2.7813
 2325TIP3    H228391   0.189   2.982  12.065 -2.2601  0.7579 -1.0000
 2326TIP3   OH228392   6.033   1.242   2.010  0.3439  0.1459  0.2811
 2326TIP3    H128393   6.051   1.305   1.941 -0.6277 -0.2350 -0.3256
 2326TIP3    H228394   6.114   1.191   2.017  0.6887  0.6370 -0.0882
 2327TIP3   OH228395   1.593   2.119  11.264  0.3450  0.0971 -0.3086
 2327TIP3    H128396   1.571   2.064  11.340 -0.4907  0.5982 -0.1765
 2327TIP3    H228397   1.509   2.155  11.235  0.7173  0.2817 -1.1924
 2328TIP3   OH228398   0.037   0.357   4.971  0.0574  0.9935 -0.4389
 2328TIP3    H128399  -0.058   0.343   4.973  0.0192  0.8294 -2.0335
 2328TIP3    H228400   0.056   0.407   5.050 -1.1600 -0.1363  0.6070
 2329TIP3   OH228401   0.508   6.289   2.514  0.1003  0.7525 -0.1049
 2329TIP3    H128402   0.551   6.367   2.480  2.9234  0.1195  1.6965
 2329TIP3    H228403   0.479   6.313   2.602  0.2271  0.0626  0.1369
 2330TIP3   OH228404   3.946   1.323   2.049 -0.3718  1.1572  0.3504
 2330TIP3    H128405   4.041   1.327   2.063  0.0679  2.5270 -2.2712
 2330TIP3    H228406   3.934   1.355   1.959 -3.3598  1.3516  0.7180
 2331TIP3   OH228407   0.578   6.596   5.394 -0.2939 -0.4238  0.0819
 2331TIP3    H128408   0.631   6.567   5.320  0.5623  0.3473  0.3619
 2331TIP3    H228409   0.626   6.566   5.471  0.8701  1.9826  0.3972
 2332TIP3   OH228410   0.895   5.506  11.414  0.1340 -0.3200 -0.1826
 2332TIP3    H128411   0.858   5.458  11.488  0.9680  0.2134  0.6056
 2332TIP3    H228412   0.836   5.580  11.401 -0.0485 -0.4501 -0.0908
 2333TIP3   OH228413   0.481   2.821  17.078 -0.2312  0.5809 -0.3474
 2333TIP3    H128414   0.408   2.873  17.043 -2.0114 -1.1412  0.5985
 2333TIP3    H228415   0.439   2.751  17.128  2.0547 -1.2705 -0.8234
 2334TIP3   OH228416   4.851   4.797  15.189  0.2241 -0.4533  0.2058
 2334TIP3    H128417   4.789   4.726  15.172  1.3260 -1.1110 -1.2742
 2334TIP3    H228418   4.859   4.799  15.285 -1.7452 -0.5954  0.4079
 2335TIP3   OH228419   0.553   6.495   1.594  0.1233 -0.0902 -0.3508
 2335TIP3    H128420   0.462   6.470   1.608 -1.3013  3.8129 -1.5554
 2335TIP3    H228421   0.556   6.523   1.503  2.5486 -0.0033 -0.2986
 2336TIP3   OH228422   6.212   4.530  12.881  0.6956 -0.2483  0.8931
 2336TIP3    H128423   6.247   4.446  12.910 -0.1215 -1.1282 -0.5334
 2336TIP3    H228424   6.289   4.584  12.864  1.2261 -0.6246  2.0006
 2337TIP3   OH228425   2.496   5.793   1.132 -0.1838 -0.5623  0.4805
 2337TIP3    H128426   2.458   5.879   1.113  0.2509 -0.2641  0.9318
 2337TIP3    H228427   2.474   5.740   1.055  0.5114  0.2739 -0.3177
 2338TIP3   OH228428   5.969   1.227   0.203  0.8147  0.4182 -0.4179
 2338TIP3    H128429   5.964   1.186   0.116  1.6166  0.3059 -0.4199
 2338TIP3    H228430   6.015   1.163   0.257 -1.1981 -0.2863  0.5798
 2339TIP3   OH228431   2.953   1.198  13.545 -0.0047 -0.0852  0.7791
 2339TIP3    H128432   2.957   1.104  13.531 -1.0746  0.3038 -3.5960
 2339TIP3    H228433   2.880   1.210  13.606 -3.2693 -2.0474 -2.3591
 2340TIP3   OH228434   3.975   5.864   1.386  0.1281  0.1909  0.4847
 2340TIP3    H128435   4.054   5.826   1.347  0.3827  2.0758 -1.0635
 2340TIP3    H228436   3.903   5.818   1.344  0.4321  0.4334 -0.3397
 2341TIP3   OH228437   3.433   5.882  15.505 -0.3189  0.3956  0.1728
 2341TIP3    H128438   3.434   5.790  15.478  0.7890  0.8780 -1.6108
 2341TIP3    H228439   3.448   5.880  15.599  1.7001 -1.1974 -0.1240
 2342TIP3   OH228440   2.380   1.770   4.027  0.0862 -0.3983  0.0455
 2342TIP3    H128441   2.388   1.696   4.087  0.0259 -0.1428  0.3712
 2342TIP3    H228442   2.320   1.830   4.072  0.3541 -0.0282 -0.0910
 2343TIP3   OH228443   4.872   1.490  15.181  0.5416  0.5912 -0.3362
 2343TIP3    H128444   4.866   1.582  15.204 -1.9830  0.4850 -0.3594
 2343TIP3    H228445   4.849   1.487  15.088  0.7207 -0.0716 -0.3663
 2344TIP3   OH228446   0.812   6.400   3.521 -0.2992 -0.6098  0.2275
 2344TIP3    H128447   0.888   6.345   3.535  2.8525  3.0326 -0.8159
 2344TIP3    H228448   0.787   6.429   3.609 -0.4389 -1.6993  0.5621
 2345TIP3   OH228449   1.350   5.289  14.279  0.5923 -0.5736  0.5158
 2345TIP3    H128450   1.322   5.323  14.364 -0.4279  1.4492 -0.5724
 2345TIP3    H228451   1.274   5.299  14.223  2.0337  0.6980 -1.3362
 2346TIP3   OH228452   2.444   0.161   1.220 -0.1863  1.0244 -0.3332
 2346TIP3    H128453   2.493   0.133   1.298  1.4156  2.3464 -0.8040
 2346TIP3    H228454   2.408   0.080   1.184 -0.7602  0.3409  1.6201
 2347TIP3   OH228455   2.024   2.107  12.655 -0.0590 -0.3189  0.5047
 2347TIP3    H128456   1.990   2.026  12.617 -1.8840  1.4837 -2.0067
 2347TIP3    H228457   2.117   2.090  12.668  0.0528 -2.1441 -2.0019
 2348TIP3   OH228458   3.092   1.610  15.196  0.6957  0.4083 -0.2424
 2348TIP3    H128459   3.160   1.607  15.129  2.7388  0.6733  1.6822
 2348TIP3    H228460   3.087   1.703  15.220  0.0890  0.3005  0.0632
 2349TIP3   OH228461   3.043   5.171  11.806  0.1466  0.5998 -0.4271
 2349TIP3    H128462   2.947   5.173  11.804  0.1546  1.0788 -2.1121
 2349TIP3    H228463   3.069   5.201  11.719  1.8455  1.0801  0.2064
 2350TIP3   OH228464   0.194   3.081  15.701 -0.7666  0.2811  0.2570
 2350TIP3    H128465   0.207   3.175  15.719 -0.4948  0.2780  0.0872
 2350TIP3    H228466   0.102   3.065  15.722 -1.0109  0.7486 -0.4175
 2351TIP3   OH228467   1.385   1.541  12.002 -0.2239  0.6129  0.4309
 2351TIP3    H128468   1.399   1.464  11.947 -0.0043 -0.3914  1.8437
 2351TIP3    H228469   1.403   1.616  11.944  1.1858 -0.4175 -0.5197
 2352TIP3   OH228470   1.287   2.895   0.349  0.1833  0.0621 -0.3082
 2352TIP3    H128471   1.228   2.923   0.418 -1.3209 -0.1782 -1.4497
 2352TIP3    H228472   1.275   2.800   0.344  2.2300 -0.3250  0.8041
 2353TIP3   OH228473   3.853   4.123   5.115 -0.1545  0.1262 -0.4208
 2353TIP3    H128474   3.943   4.120   5.148  0.8688  1.0625 -2.9351
 2353TIP3    H228475   3.845   4.046   5.059 -0.6974  0.4455 -0.7903
 2354TIP3   OH228476   3.492   2.336   4.294 -0.1841 -0.1772 -0.1302
 2354TIP3    H128477   3.427   2.279   4.334  0.1810  0.8078  2.0221
 2354TIP3    H228478   3.507   2.405   4.359  1.7046  0.6013 -1.2906
 2355TIP3   OH228479   3.454   6.260  13.849 -0.3764 -0.4882  0.0330
 2355TIP3    H128480   3.490   6.181  13.810 -1.5002 -1.8642  1.6540
 2355TIP3    H228481   3.410   6.304  13.776 -0.4847 -1.7884 -0.7214
 2356TIP3   OH228482   4.408   5.796  14.846  0.0794 -0.0493  0.5403
 2356TIP3    H128483   4.346   5.853  14.800 -0.4240  0.0404  1.3112
 2356TIP3    H228484   4.435   5.732  14.780 -2.0700 -1.0941  0.5668
 2357TIP3   OH228485   1.309   3.566   2.002 -0.1475 -0.2502 -0.5966
 2357TIP3    H128486   1.270   3.645   2.038 -0.7129 -0.2647 -1.1558
 2357TIP3    H228487   1.363   3.531   2.073 -0.2365  0.3967 -0.2015
 2358TIP3   OH228488   5.561   5.985  13.226 -0.2477  0.3764  0.3479
 2358TIP3    H128489   5.630   6.051  13.239 -0.4354  0.8994 -1.1709
 2358TIP3    H228490   5.607   5.909  13.192 -0.3409  0.5532 -0.1839
 2359TIP3   OH228491   0.854   4.893  16.313  0.2118 -0.1037 -0.2557
 2359TIP3    H128492   0.926   4.934  16.265 -1.2938  1.1845 -1.5527
 2359TIP3    H228493   0.802   4.967  16.346 -0.4989 -0.9918  0.6700
 2360TIP3   OH228494   1.491   5.931  16.201 -0.3183 -0.6284  0.0228
 2360TIP3    H128495   1.420   5.941  16.264 -0.5966  1.1620 -0.5284
 2360TIP3    H228496   1.479   6.004  16.139  1.2488 -1.0334 -0.8048
 2361TIP3   OH228497   5.279   1.120  13.857  0.1611  0.2987  0.5663
 2361TIP3    H128498   5.189   1.094  13.874 -0.1008  0.6648 -0.2295
 2361TIP3    H228499   5.297   1.189  13.921 -1.2773  2.6560 -1.3820
 2362TIP3   OH228500   4.796   2.777   6.805  0.1097 -0.0600  0.4288
 2362TIP3    H128501   4.783   2.872   6.795 -1.5667 -0.0166  2.4065
 2362TIP3    H228502   4.815   2.746   6.717 -2.5554  1.6681 -0.8861
 2363TIP3   OH228503   0.605   4.141  14.903  0.2744  0.1774  0.1976
 2363TIP3    H128504   0.700   4.134  14.889  0.3588  1.2112  0.1799
 2363TIP3    H228505   0.596   4.164  14.996  0.0959  0.9987 -0.0146
 2364TIP3   OH228506   0.295   3.890  12.413  0.4462 -0.0365 -0.0208
 2364TIP3    H128507   0.225   3.938  12.368 -0.0918 -1.0166 -0.2774
 2364TIP3    H228508   0.272   3.895  12.506 -0.5570 -1.1965 -0.1730
 2365TIP3   OH228509   6.378   3.552  12.993 -1.0552 -0.2418  0.2618
 2365TIP3    H128510   6.472   3.561  12.984 -1.3202  3.0879 -0.2579
 2365TIP3    H228511   6.356   3.475  12.939  1.1470  0.0661 -1.1830
 2366TIP3   OH228512   5.008   0.215   2.939 -0.4881  0.4353  0.4257
 2366TIP3    H128513   5.078   0.246   2.881 -1.5897 -0.3820 -1.4465
 2366TIP3    H228514   4.989   0.290   2.996  0.1666  1.5549 -0.7616
 2367TIP3   OH228515   3.089   6.089   4.755  0.6335  0.4035  0.0970
 2367TIP3    H128516   3.008   6.118   4.795 -0.1148  0.0154 -1.0883
 2367TIP3    H228517   3.085   6.121   4.665  1.6662  0.1425 -0.0654
 2368TIP3   OH228518   5.706   5.789  16.996 -0.6398  0.0941 -0.1512
 2368TIP3    H128519   5.629   5.811  16.944 -0.0813  0.5901 -0.7900
 2368TIP3    H228520   5.723   5.697  16.976 -0.0107  0.4712 -1.4200
 2369TIP3   OH228521   5.256   0.866  14.520  0.3887 -0.3298 -0.0189
 2369TIP3    H128522   5.207   0.793  14.483 -1.9923  0.3187  1.6020
 2369TIP3    H228523   5.228   0.942  14.470  3.9743 -0.5286 -2.7050
 2370TIP3   OH228524   0.213   4.892  16.069 -0.2785 -0.6920  0.9960
 2370TIP3    H128525   0.241   4.862  16.155 -1.7690  0.8735  2.0956
 2370TIP3    H228526   0.271   4.966  16.050 -0.4679 -0.5307  1.0391
 2371TIP3   OH228527   0.868   1.208  13.484  0.5740 -0.2946  0.0006
 2371TIP3    H128528   0.793   1.267  13.473 -0.2368 -1.3013  0.0793
 2371TIP3    H228529   0.886   1.175  13.397 -0.6907 -1.9896  0.3440
 2372TIP3   OH228530   5.630   6.256   5.899  0.0196  0.2863 -0.3603
 2372TIP3    H128531   5.648   6.198   5.972  2.4678 -1.4220 -2.1339
 2372TIP3    H228532   5.591   6.200   5.832  1.1876  0.8986 -1.6291
 2373TIP3   OH228533   1.010   0.669  11.573  0.3965  0.0584  0.1467
 2373TIP3    H128534   1.017   0.578  11.545  2.6804 -0.0845  0.9614
 2373TIP3    H228535   1.021   0.666  11.668  0.1281  1.1502  0.2329
 2374TIP3   OH228536   5.045   2.020   5.702  0.2170 -0.6835 -0.4599
 2374TIP3    H128537   5.083   1.934   5.681 -0.1094 -1.0473  0.3753
 2374TIP3    H228538   4.976   2.000   5.766  0.9567  0.3155  0.6878
 2375TIP3   OH228539   1.185   6.266  14.974 -0.1013 -0.1620 -0.4215
 2375TIP3    H128540   1.120   6.334  14.954 -1.3653 -1.4651 -0.9607
 2375TIP3    H228541   1.135   6.184  14.969  2.0137 -1.4479 -3.0206
 2376TIP3   OH228542   6.354   1.436  15.272 -0.1623 -0.0727 -0.5196
 2376TIP3    H128543   6.275   1.469  15.229 -1.0186 -0.3545  0.7616
 2376TIP3    H228544   6.321   1.381  15.343  1.2160 -1.3428 -0.8264
 2377TIP3   OH228545   3.009   2.154  16.754 -0.3880 -0.0391 -0.6118
 2377TIP3    H128546   2.940   2.204  16.798 -1.1111 -0.4780 -1.2382
 2377TIP3    H228547   3.089   2.180  16.799 -1.0748 -0.2901  0.8039
 2378TIP3   OH228548   4.112   3.193   0.159  0.2585 -0.1992  0.3456
 2378TIP3    H128549   4.127   3.285   0.137  0.0421  0.3474  2.3235
 2378TIP3    H228550   4.019   3.179   0.144  0.0008  0.3212  1.3850
 2379TIP3   OH228551   0.959   3.776  13.665 -0.3453 -0.7763  0.0477
 2379TIP3    H128552   1.021   3.704  13.680 -1.4274 -1.8912 -0.6892
 2379TIP3    H228553   0.924   3.759  13.578 -0.2172  0.9821 -0.3759
 2380TIP3   OH228554   4.288   4.818   3.203 -0.3606  0.0253 -0.3190
 2380TIP3    H128555   4.250   4.831   3.116 -0.6596 -1.9480 -0.5298
 2380TIP3    H228556   4.245   4.739   3.236  2.2186 -1.2729  0.1831
 2381TIP3   OH228557   0.395   2.373  11.395  0.3858 -0.7485  0.2949
 2381TIP3    H128558   0.444   2.317  11.335  0.9995  1.5405 -1.4497
 2381TIP3    H228559   0.342   2.429  11.339  0.4258  0.9924  1.8809
 2382TIP3   OH228560   1.841   0.410   1.752 -0.4978  0.7133 -0.4316
 2382TIP3    H128561   1.900   0.361   1.810 -1.0944  0.3274 -0.1441
 2382TIP3    H228562   1.848   0.366   1.667 -1.4338 -0.2107 -0.0410
 2383TIP3   OH228563   4.532   1.366   0.442 -0.0064  0.1548  0.5775
 2383TIP3    H128564   4.607   1.347   0.386 -1.5243  1.8186 -2.2615
 2383TIP3    H228565   4.472   1.292   0.428  0.0472  0.0505  0.8833
 2384TIP3   OH228566   5.124   2.550  15.312 -0.1593  0.1335 -0.1282
 2384TIP3    H128567   5.186   2.594  15.253  0.7621 -0.5175  0.3261
 2384TIP3    H228568   5.073   2.621  15.351  0.4216  0.6968 -0.3870
 2385TIP3   OH228569   3.487   6.412  17.487 -0.0812 -0.0871  0.0873
 2385TIP3    H128570   3.575   6.392  17.455  0.1216  0.8948 -0.0094
 2385TIP3    H228571   3.498   6.494  17.536 -0.7270 -0.6020  1.1010
 2386TIP3   OH228572   0.806   1.570  17.246  0.0769 -0.0513  0.2983
 2386TIP3    H128573   0.758   1.490  17.226  2.0004 -1.0753 -0.3831
 2386TIP3    H228574   0.852   1.592  17.165 -1.2770  2.4499  0.0675
 2387TIP3   OH228575   0.631   6.130   2.832  0.5267  0.3638 -0.4110
 2387TIP3    H128576   0.567   6.197   2.856 -0.1306 -0.2699 -0.3751
 2387TIP3    H228577   0.673   6.107   2.914  0.3676  0.3310 -0.3394
 2388TIP3   OH228578   6.129   4.652   1.657 -0.1207 -0.1910  0.5952
 2388TIP3    H128579   6.205   4.602   1.626  0.1842  0.9459 -0.5717
 2388TIP3    H228580   6.054   4.594   1.641  0.2628 -0.4295 -0.4454
 2389TIP3   OH228581   0.642   0.467  16.514  0.0365 -0.8716  0.0359
 2389TIP3    H128582   0.704   0.404  16.475 -0.8208 -1.2292 -0.8078
 2389TIP3    H228583   0.562   0.416  16.526 -0.4027 -0.1557  0.1601
 2390TIP3   OH228584   0.577   0.005   4.786 -0.3335  0.7244  0.3612
 2390TIP3    H128585   0.576   0.079   4.847 -2.4525  1.0161  0.0633
 2390TIP3    H228586   0.485  -0.022   4.781  0.2875 -1.4856 -0.0945
 2391TIP3   OH228587   3.671   1.066   4.353 -0.8157 -0.3614 -0.3114
 2391TIP3    H128588   3.753   1.064   4.304 -0.4654  3.0879 -0.1458
 2391TIP3    H228589   3.678   0.994   4.416  1.4206 -1.0355 -1.2617
 2392TIP3   OH228590   4.109   3.660   4.762  0.5506  0.3523  0.5684
 2392TIP3    H128591   4.174   3.590   4.768 -0.4483 -1.0260 -2.7304
 2392TIP3    H228592   4.053   3.648   4.839  0.6863 -2.2219  0.3477
 2393TIP3   OH228593   6.678   2.208  15.157  0.1741 -0.1568 -0.0204
 2393TIP3    H128594   6.668   2.246  15.069  0.2861  0.6200  0.2948
 2393TIP3    H228595   6.722   2.124  15.142 -3.5278 -2.1043 -1.1322
 2394TIP3   OH228596   0.809   4.759   4.078  0.1357 -0.1776 -0.2210
 2394TIP3    H128597   0.871   4.818   4.120  2.2790 -2.4634  0.1253
 2394TIP3    H228598   0.842   4.671   4.099 -3.6231 -1.6056  0.4949
 2395TIP3   OH228599   3.240   1.085  11.957  0.2137  0.0740  0.2307
 2395TIP3    H128600   3.184   1.015  11.990  1.1412 -0.3415  0.9816
 2395TIP3    H228601   3.268   1.132  12.036  1.8132 -0.4194 -0.0061
 2396TIP3   OH228602   5.965   5.112  14.607 -0.2024  0.3480  0.5733
 2396TIP3    H128603   5.928   5.027  14.632  1.0316 -0.5910 -0.6472
 2396TIP3    H228604   5.889   5.165  14.583 -0.8789 -1.9099 -3.1014
 2397TIP3   OH228605   4.404   4.491  10.552  0.1861 -0.0655  0.7859
 2397TIP3    H128606   4.415   4.493  10.647 -1.8409 -0.7411  1.0761
 2397TIP3    H228607   4.321   4.536  10.536  1.1104  1.1914 -0.8170
 2398TIP3   OH228608   5.268   1.892  14.325 -0.3546  0.0618  0.0246
 2398TIP3    H128609   5.362   1.904  14.316 -0.1158 -0.3037  1.6737
 2398TIP3    H228610   5.230   1.970  14.283  0.6461  0.0678 -0.9225
 2399TIP3   OH228611   4.220   4.168   5.068  0.5710  0.6006  0.0772
 2399TIP3    H128612   4.188   4.232   5.131  1.2228  1.0497 -0.0322
 2399TIP3    H228613   4.314   4.163   5.086  0.6344  0.1756 -0.3648
 2400TIP3   OH228614   1.574   2.282   0.353  0.1978 -0.3607 -0.3696
 2400TIP3    H128615   1.663   2.297   0.320  0.3516  1.0914  0.6065
 2400TIP3    H228616   1.517   2.312   0.283  0.4720 -0.7095 -0.7503
 2401TIP3   OH228617   0.814   3.847   3.363  0.2255 -0.3715  0.6915
 2401TIP3    H128618   0.859   3.864   3.445  0.5932 -1.3912  0.7055
 2401TIP3    H228619   0.799   3.934   3.326 -0.1628  0.1180  1.9421
 2402TIP3   OH228620   0.947   5.681   6.220  0.0296  0.1974  0.1467
 2402TIP3    H128621   0.987   5.628   6.151  2.2779  0.5374  1.0837
 2402TIP3    H228622   0.976   5.639   6.301  0.8413  2.0871  0.8945
 2403TIP3   OH228623   5.495   1.694   1.061 -0.0226  0.4043 -0.2532
 2403TIP3    H128624   5.503   1.628   0.992 -0.8747  0.1088 -0.0754
 2403TIP3    H228625   5.516   1.777   1.017 -1.8634  0.4073 -1.2234
 2404TIP3   OH228626   5.034   2.695  14.399  0.4022 -0.1440  0.3379
 2404TIP3    H128627   5.066   2.634  14.333  1.3057 -0.6015  1.1622
 2404TIP3    H228628   5.096   2.768  14.396  0.0131  0.1814  0.1712
 2405TIP3   OH228629   6.369   5.024   2.632  0.3930  0.0806 -0.1978
 2405TIP3    H128630   6.326   5.109   2.638  2.4543  1.2536 -1.3227
 2405TIP3    H228631   6.423   5.019   2.711  1.2289  0.3712 -0.7500
 2406TIP3   OH228632   2.451   4.535   3.650 -0.5230  0.3998  0.1609
 2406TIP3    H128633   2.541   4.535   3.683 -0.3037  0.4519 -0.4272
 2406TIP3    H228634   2.448   4.608   3.589 -0.3680 -0.8504 -1.4075
 2407TIP3   OH228635   3.406   4.075  11.642 -0.3177  0.5279 -0.0159
 2407TIP3    H128636   3.459   4.015  11.695  0.5952 -0.3448 -1.8079
 2407TIP3    H228637   3.316   4.045  11.654 -0.0169 -0.2985  0.2547
 2408TIP3   OH228638   1.538   5.471   5.265 -0.2374 -0.0305  0.6006
 2408TIP3    H128639   1.568   5.416   5.337 -1.1259 -0.7526  0.4429
 2408TIP3    H228640   1.615   5.484   5.210  0.3273  0.1180  1.4164
 2409TIP3   OH228641   3.433   2.278  12.360  0.4746  0.4105 -0.0802
 2409TIP3    H128642   3.445   2.363  12.402 -0.8523  0.6171 -0.0880
 2409TIP3    H228643   3.495   2.278  12.287 -1.3477  2.5157 -1.7860
 2410TIP3   OH228644   6.680   2.970   5.002  0.4350 -0.5657 -0.5461
 2410TIP3    H128645   6.598   2.926   4.977  0.4406 -0.0047 -1.6230
 2410TIP3    H228646   6.720   2.911   5.066 -1.1877 -0.4716  0.6389
 2411TIP3   OH228647   0.044   4.214  13.936  0.0793  0.0799 -0.5682
 2411TIP3    H128648  -0.020   4.146  13.917  0.0858 -0.1315  0.1218
 2411TIP3    H228649   0.129   4.171  13.922  0.0889 -0.1475  0.1070
 2412TIP3   OH228650   5.170   5.604  12.478  0.2641  0.1804  0.0271
 2412TIP3    H128651   5.234   5.550  12.432 -0.6065 -0.3010 -0.6646
 2412TIP3    H228652   5.183   5.692  12.442 -0.4210 -0.1938 -1.2134
 2413TIP3   OH228653   0.219   1.276   1.005  0.3846 -0.0538 -0.1448
 2413TIP3    H128654   0.137   1.284   0.955 -0.0800 -1.3120  0.3783
 2413TIP3    H228655   0.197   1.306   1.093  0.7401  0.5056 -0.2457
 2414TIP3   OH228656   2.953   4.926  14.440 -0.0398 -0.4286 -0.1212
 2414TIP3    H128657   2.892   4.894  14.374  0.0176 -1.9218  0.5108
 2414TIP3    H228658   2.913   4.903  14.524  1.1090 -0.9499  0.3091
 2415TIP3   OH228659   3.124   6.250  14.734 -0.2179 -0.1811 -0.4981
 2415TIP3    H128660   3.136   6.174  14.678 -0.8411 -1.9111  1.5767
 2415TIP3    H228661   3.029   6.262  14.740 -0.2882 -1.2889  1.6612
 2416TIP3   OH228662   4.509   6.679   3.841  0.4475  0.1172  0.3831
 2416TIP3    H128663   4.507   6.709   3.751 -0.9391  2.1402  1.0237
 2416TIP3    H228664   4.466   6.593   3.839 -1.0584  0.8575 -0.6476
 2417TIP3   OH228665   6.686   2.855  14.920 -0.3253  0.1974  0.5382
 2417TIP3    H128666   6.738   2.777  14.902 -0.7415  0.1855 -0.6860
 2417TIP3    H228667   6.725   2.924  14.867  0.3286  0.9672  1.9660
 2418TIP3   OH228668   0.718   5.666  13.443  0.1565  0.2254 -0.3486
 2418TIP3    H128669   0.668   5.746  13.453 -0.5147 -0.2753  0.4859
 2418TIP3    H228670   0.770   5.679  13.363  1.4054  2.1815  0.6944
 2419TIP3   OH228671   0.663   5.206   6.321  0.5618  0.0966  0.1672
 2419TIP3    H128672   0.660   5.269   6.393  1.8491 -1.5585  1.7871
 2419TIP3    H228673   0.601   5.138   6.347  0.3244 -0.0627 -0.7796
 2420TIP3   OH228674   0.071   6.411   4.672  0.4728 -0.1188  0.5080
 2420TIP3    H128675   0.108   6.468   4.605  0.7363  0.6542  1.2920
 2420TIP3    H228676  -0.018   6.393   4.641  0.1888  1.1762  0.4934
 2421TIP3   OH228677   4.462   1.143  16.327 -0.1713  0.4760 -0.4923
 2421TIP3    H128678   4.549   1.103  16.333 -0.4446  0.0659  1.5256
 2421TIP3    H228679   4.478   1.233  16.301  0.7338 -0.0002 -1.6261
 2422TIP3   OH228680   4.577   2.412  12.721 -0.0700  0.0562  0.4690
 2422TIP3    H128681   4.573   2.483  12.657  0.3678 -0.9930 -0.7818
 2422TIP3    H228682   4.575   2.456  12.806  1.8812  1.7001 -0.2298
 2423TIP3   OH228683   2.053   6.523   1.446 -0.3204 -0.5736 -0.3624
 2423TIP3    H128684   2.097   6.536   1.530  1.4224 -2.8974 -0.8530
 2423TIP3    H228685   2.083   6.596   1.391  2.5367 -1.7323 -0.4801
 2424TIP3   OH228686   1.926   1.846  13.649  0.1101 -0.8667 -0.2929
 2424TIP3    H128687   1.987   1.880  13.583 -1.5080  0.1566 -1.3333
 2424TIP3    H228688   1.950   1.892  13.729 -0.2774  0.7240 -1.0575
 2425TIP3   OH228689   3.478   2.564  14.326  0.2333 -0.7529 -0.4032
 2425TIP3    H128690   3.469   2.520  14.411  0.6249 -0.5433 -0.2509
 2425TIP3    H228691   3.512   2.496  14.267 -0.1126 -0.9195 -0.4127
 2426TIP3   OH228692   0.276   3.864  11.107 -0.0608  0.0517 -0.1174
 2426TIP3    H128693   0.183   3.860  11.082 -0.1140  0.5576 -0.0122
 2426TIP3    H228694   0.319   3.907  11.033  0.8468 -3.9552 -2.1604
 2427TIP3   OH228695   3.812   3.259   5.199  0.4487 -0.3699 -0.7234
 2427TIP3    H128696   3.764   3.190   5.154  1.0087 -0.9332 -0.4790
 2427TIP3    H228697   3.791   3.248   5.292 -0.4992  0.6261 -0.7964
 2428TIP3   OH228698   4.188   5.593   5.051  0.0818  0.6289 -0.1808
 2428TIP3    H128699   4.160   5.637   5.131 -0.9575  0.1651 -0.2661
 2428TIP3    H228700   4.110   5.593   4.996  0.3387 -0.4218 -0.5695
 2429TIP3   OH228701   2.087   2.917  10.958  0.2730 -0.2582  0.2981
 2429TIP3    H128702   2.090   2.829  10.921 -0.2599  0.8420 -2.5958
 2429TIP3    H228703   1.995   2.942  10.952  0.8591  1.7137 -2.2697
 2430TIP3   OH228704   0.727   1.646   2.092  0.1583  0.1457 -0.1592
 2430TIP3    H128705   0.793   1.715   2.095  0.5346 -0.1217 -1.3595
 2430TIP3    H228706   0.746   1.591   2.167  0.1196  1.0988  0.5728
 2431TIP3   OH228707   2.292   3.712   4.017 -0.3143  0.3750  0.1447
 2431TIP3    H128708   2.385   3.700   4.037  0.0294  0.8330 -1.0869
 2431TIP3    H228709   2.273   3.802   4.046  0.2056  1.0703 -1.5546
 2432TIP3   OH228710   2.821   1.708  11.471 -0.1217  0.6235  1.0315
 2432TIP3    H128711   2.729   1.720  11.448 -0.2519 -1.7807  0.0661
 2432TIP3    H228712   2.866   1.701  11.387  0.5661 -0.6219  1.4849
 2433TIP3   OH228713   2.315   1.658  13.225  0.4387  1.0355  0.1301
 2433TIP3    H128714   2.316   1.620  13.137  0.4114  0.4236  0.3873
 2433TIP3    H228715   2.226   1.642  13.257  0.8145  0.0924  0.7534
 2434TIP3   OH228716   6.612   5.110   0.878 -0.2206 -0.5735 -0.5567
 2434TIP3    H128717   6.517   5.104   0.893 -0.3298  0.9429 -0.4686
 2434TIP3    H228718   6.625   5.071   0.791 -0.4463 -3.6455  0.6582
 2435TIP3   OH228719   1.219   5.968   2.663  0.5693  0.7753  0.3407
 2435TIP3    H128720   1.249   5.904   2.728  1.4023  1.6089  0.7825
 2435TIP3    H228721   1.124   5.971   2.676  0.2920 -1.4175 -0.6562
 2436TIP3   OH228722   6.116   2.484  11.131 -0.2232  0.2673  0.2321
 2436TIP3    H128723   6.116   2.526  11.045  0.4960  2.6372  1.3144
 2436TIP3    H228724   6.192   2.426  11.129  0.0747  0.6680 -0.5521
 2437TIP3   OH228725   3.360   5.641  13.516  0.4305  0.1425 -0.1739
 2437TIP3    H128726   3.276   5.633  13.473  1.1015 -1.1145 -1.3213
 2437TIP3    H228727   3.363   5.567  13.578 -0.5649  1.9744  2.2332
 2438TIP3   OH228728   4.761   6.684   4.180  0.2716 -0.1726  0.9037
 2438TIP3    H128729   4.712   6.610   4.145  0.0760  0.9183 -1.2794
 2438TIP3    H228730   4.701   6.725   4.242 -0.5907 -0.3734  0.2265
 2439TIP3   OH228731   2.866   4.088   5.895 -0.0300 -0.1628 -0.0569
 2439TIP3    H128732   2.944   4.056   5.940  2.1506  2.2989 -1.8051
 2439TIP3    H228733   2.835   4.160   5.950  0.5271  0.5442 -0.6471
 2440TIP3   OH228734   0.274   1.454  13.134  0.5144 -0.0706  0.1528
 2440TIP3    H128735   0.320   1.455  13.218 -1.3916 -0.5521  1.2668
 2440TIP3    H228736   0.216   1.530  13.138 -0.5565 -0.8458 -0.1143
 2441TIP3   OH228737   4.306   4.228  15.368  0.2209 -0.0583 -0.9683
 2441TIP3    H128738   4.281   4.169  15.297  0.1034  1.2323 -2.0472
 2441TIP3    H228739   4.278   4.183  15.447 -0.7772 -1.0025 -1.8133
 2442TIP3   OH228740   2.893   5.450  10.504  0.1565  0.2302 -0.4544
 2442TIP3    H128741   2.900   5.516  10.573  0.7038 -0.5705  0.2793
 2442TIP3    H228742   2.956   5.477  10.437  0.2239  0.5603 -0.2577
 2443TIP3   OH228743   2.382   2.002   4.370  0.0497  0.1513  0.1293
 2443TIP3    H128744   2.444   2.039   4.307  0.7481  0.7358  1.1294
 2443TIP3    H228745   2.395   1.907   4.364  1.9108  0.2973  1.1357
 2444TIP3   OH228746   5.847   0.566  17.060  0.4424 -0.3345  0.3817
 2444TIP3    H128747   5.755   0.539  17.053  0.7804 -1.0608 -1.9196
 2444TIP3    H228748   5.892   0.487  17.091  0.7714 -1.1575 -2.0168
 2445TIP3   OH228749   4.757   6.346  14.721 -0.9255  0.2574 -0.0593
 2445TIP3    H128750   4.693   6.416  14.704  0.3380  1.6549  0.7320
 2445TIP3    H228751   4.752   6.331  14.815 -1.1484 -0.7036 -0.2173
 2446TIP3   OH228752   5.391   3.044  12.751  0.2104  0.0485  0.0371
 2446TIP3    H128753   5.336   3.070  12.677  0.1715  0.6586  0.2714
 2446TIP3    H228754   5.480   3.051  12.719  0.2587  1.6032  0.4187
 2447TIP3   OH228755   6.366   2.191   5.957  0.2843  0.2141  0.3283
 2447TIP3    H128756   6.401   2.227   6.038 -1.0427 -0.2453  1.1288
 2447TIP3    H228757   6.340   2.101   5.979 -1.4580  0.5504 -0.1698
 2448TIP3   OH228758   2.554   0.136  15.323  0.0124  0.3504  0.2099
 2448TIP3    H128759   2.489   0.076  15.358 -1.2866  1.4426 -0.2318
 2448TIP3    H228760   2.530   0.221  15.360  0.2838  1.0363 -1.1447
 2449TIP3   OH228761   2.181   0.597   3.416  0.3668 -0.3268  0.0091
 2449TIP3    H128762   2.151   0.687   3.407 -0.0737 -0.4197  0.4948
 2449TIP3    H228763   2.101   0.546   3.431  0.5065 -0.9394 -1.2368
 2450TIP3   OH228764   1.168   2.687   4.679  0.0985 -0.3023  1.1160
 2450TIP3    H128765   1.260   2.681   4.655  0.8970  1.2335  3.4925
 2450TIP3    H228766   1.141   2.774   4.651 -1.5640 -1.6882 -2.1516
 2451TIP3   OH228767   2.170   5.507   2.227  0.0603 -0.1856  0.0556
 2451TIP3    H128768   2.169   5.594   2.268 -0.9380 -0.4618  0.6693
 2451TIP3    H228769   2.228   5.455   2.283  3.6134  0.9207 -2.2890
 2452TIP3   OH228770   3.047   0.057  11.420 -0.3225  0.5485  0.0407
 2452TIP3    H128771   3.084   0.067  11.508  0.8305  1.7326 -0.5418
 2452TIP3    H228772   3.069  -0.032  11.394  0.0141  0.4534  0.6453
 2453TIP3   OH228773   1.254   0.645  12.469  0.0387  0.5731 -0.6589
 2453TIP3    H128774   1.262   0.740  12.479 -1.3153  0.8164 -1.6080
 2453TIP3    H228775   1.161   0.627  12.482  0.3183 -0.6804 -0.2023
 2454TIP3   OH228776   3.371   4.926  11.337  0.6901 -0.3784 -0.1547
 2454TIP3    H128777   3.435   4.953  11.271  0.9163 -2.5252 -0.9161
 2454TIP3    H228778   3.296   4.984  11.323  0.5419 -1.0293 -2.6661
 2455TIP3   OH228779   5.137   4.180  16.794 -0.2083  0.2274 -0.8053
 2455TIP3    H128780   5.180   4.253  16.838  2.2194 -1.5985  0.0623
 2455TIP3    H228781   5.126   4.114  16.863 -0.9900 -0.7891 -1.8651
 2456TIP3   OH228782   6.611   5.337   4.277 -0.6984 -0.6400  0.4627
 2456TIP3    H128783   6.580   5.400   4.213 -0.6122  0.4335  1.4387
 2456TIP3    H228784   6.633   5.390   4.354 -4.8420 -2.1320  3.0499
 2457TIP3   OH228785   6.423   0.977   0.684  0.3814 -0.5733  0.7110
 2457TIP3    H128786   6.380   0.999   0.601  0.9691 -0.6562  0.3816
 2457TIP3    H228787   6.510   1.014   0.676  0.7141 -1.2924  0.9679
 2458TIP3   OH228788   0.791   1.731   1.391  0.0973  0.3910  0.3322
 2458TIP3    H128789   0.707   1.773   1.406  0.4132  0.9620  0.5426
 2458TIP3    H228790   0.853   1.780   1.446  0.3695 -0.7401  1.0628
 2459TIP3   OH228791   1.728   2.954  14.090 -0.0850 -0.0443  0.4195
 2459TIP3    H128792   1.670   2.968  14.165  0.1284 -0.3003  0.6357
 2459TIP3    H228793   1.719   2.861  14.070 -2.9153  0.6035 -2.1732
 2460TIP3   OH228794   3.753   1.097   0.271 -0.3193  0.0917 -0.4106
 2460TIP3    H128795   3.815   1.025   0.281 -0.7791 -0.1810  0.6040
 2460TIP3    H228796   3.807   1.176   0.268  0.2314 -0.3096 -2.1421
 2461TIP3   OH228797   4.166   5.011   3.862 -0.4511 -0.4150 -0.3028
 2461TIP3    H128798   4.234   4.973   3.806  1.7329  0.3781  1.6514
 2461TIP3    H228799   4.147   5.096   3.823  0.9622  0.0766  0.0063
 2462TIP3   OH228800   2.215   1.238  15.253  0.1563  0.1440 -0.1201
 2462TIP3    H128801   2.127   1.260  15.282  1.1234  0.5115  2.9193
 2462TIP3    H228802   2.258   1.323  15.242  0.9575 -0.0284  1.4465
 2463TIP3   OH228803   0.055   3.172   5.443 -0.1392  0.5425 -0.3347
 2463TIP3    H128804  -0.016   3.136   5.391  1.1368 -1.6187 -0.6640
 2463TIP3    H228805   0.091   3.243   5.390  0.0656 -0.5350 -1.6873
 2464TIP3   OH228806   4.459   0.330  16.437  0.2429 -0.1388  0.8500
 2464TIP3    H128807   4.371   0.313  16.471  0.6159 -1.2205  1.3029
 2464TIP3    H228808   4.497   0.243  16.425  1.1743  0.3177  0.4560
 2465TIP3   OH228809   0.132   2.695  11.021 -0.2235 -0.4921  0.1120
 2465TIP3    H128810   0.134   2.742  10.938  0.7052 -1.9644 -0.7524
 2465TIP3    H228811   0.045   2.712  11.056 -1.9612 -2.4825 -2.7878
 2466TIP3   OH228812   5.408   0.999  11.111 -0.0032  0.2268  0.4271
 2466TIP3    H128813   5.416   1.058  11.035  3.0146  0.6281  0.9211
 2466TIP3    H228814   5.454   0.919  11.084 -1.9012 -0.9979  0.6637
 2467TIP3   OH228815   5.537   3.154   0.391 -0.0656  0.1955 -0.1992
 2467TIP3    H128816   5.570   3.108   0.315 -2.3027  0.6800 -1.5539
 2467TIP3    H228817   5.448   3.181   0.367 -0.6501  0.8809  2.3636
 2468TIP3   OH228818   1.597   6.702   1.864 -0.7780 -0.3395  0.3789
 2468TIP3    H128819   1.575   6.743   1.948  0.5543 -0.2934  0.7363
 2468TIP3    H228820   1.686   6.734   1.845 -1.3604  0.3244 -1.4741
 2469TIP3   OH228821   6.413   1.546  17.160 -0.3336  0.0979  0.0659
 2469TIP3    H128822   6.354   1.497  17.102 -0.1408 -0.7498  0.5673
 2469TIP3    H228823   6.374   1.633  17.166 -0.6995  0.0112 -0.8316
 2470TIP3   OH228824   3.270   1.438   1.923  0.1108  0.3248 -0.1784
 2470TIP3    H128825   3.175   1.429   1.912 -0.0543 -0.9679  1.7484
 2470TIP3    H228826   3.280   1.518   1.974 -0.1897 -0.7757  1.7016
 2471TIP3   OH228827   4.043   6.197  12.051  0.4074 -0.2508  0.1101
 2471TIP3    H128828   4.013   6.116  12.091  0.8707  0.1555  1.3197
 2471TIP3    H228829   3.971   6.258  12.063 -0.3955 -0.7473 -1.7828
 2472TIP3   OH228830   5.650   0.874   4.834 -0.0941  0.3126  0.6253
 2472TIP3    H128831   5.671   0.932   4.907  0.7715  1.3327 -0.4088
 2472TIP3    H228832   5.714   0.802   4.842  1.0585  1.2360 -0.0352
 2473TIP3   OH228833   5.290   3.966   4.169  0.0163  0.0466  0.2436
 2473TIP3    H128834   5.317   3.875   4.179 -0.0322 -0.1278 -1.1170
 2473TIP3    H228835   5.306   4.005   4.255 -0.9110 -1.4780  1.1609
 2474TIP3   OH228836   1.879   0.780  13.116  0.2119 -0.1408  0.0064
 2474TIP3    H128837   1.791   0.742  13.119 -0.1065  0.4752 -1.0828
 2474TIP3    H228838   1.935   0.715  13.159 -0.8370 -0.3267  1.1385
 2475TIP3   OH228839   3.581   1.585   5.024 -0.4022  0.3035  0.1839
 2475TIP3    H128840   3.584   1.490   5.037  0.8353  0.3755  0.5919
 2475TIP3    H228841   3.516   1.598   4.955  2.1339 -1.2018 -2.7226
 2476TIP3   OH228842   6.598   5.539  14.257  0.9766  0.1050  0.5704
 2476TIP3    H128843   6.657   5.575  14.191 -0.3756 -0.1631 -0.8454
 2476TIP3    H228844   6.531   5.606  14.270  0.9305 -0.0687  1.2802
 2477TIP3   OH228845   0.132   1.528   0.813 -0.6259  0.2543 -0.3260
 2477TIP3    H128846   0.089   1.445   0.791 -1.8222  0.5242  0.7908
 2477TIP3    H228847   0.179   1.509   0.894 -0.7399  0.5959 -0.1759
 2478TIP3   OH228848   4.882   0.586   2.564  0.0196  0.2762  0.2654
 2478TIP3    H128849   4.845   0.605   2.478  0.6299  1.9107  0.3373
 2478TIP3    H228850   4.808   0.557   2.617 -0.5673  0.3921 -0.4817
 2479TIP3   OH228851   2.536   1.538  16.008  0.0731 -0.5968  0.1521
 2479TIP3    H128852   2.460   1.569  15.960  0.7763 -0.7003 -1.0524
 2479TIP3    H228853   2.590   1.494  15.943  1.7440  0.5056  0.7401
 2480TIP3   OH228854   2.332   1.907  15.975  0.0696  0.3080  0.0220
 2480TIP3    H128855   2.282   1.857  16.040 -2.0013  1.4110 -0.6408
 2480TIP3    H228856   2.291   1.884  15.891  1.6524  0.1530 -0.7456
 2481TIP3   OH228857   3.835   6.396  15.177 -0.1385  0.2218 -0.5625
 2481TIP3    H128858   3.770   6.381  15.109 -1.4266 -0.1026  0.6825
 2481TIP3    H228859   3.905   6.444  15.133 -1.1917  0.5446 -1.9708
 2482TIP3   OH228860   1.929   0.644   5.364  0.6111 -0.4399 -0.0554
 2482TIP3    H128861   1.848   0.618   5.321  1.5509 -1.8209 -1.0518
 2482TIP3    H228862   1.952   0.570   5.420  1.8572 -0.6342 -0.7912
 2483TIP3   OH228863   1.081   5.123  17.526 -0.2991  0.0480 -0.2530
 2483TIP3    H128864   1.108   5.213  17.544  1.9993 -0.5776 -0.2847
 2483TIP3    H228865   1.003   5.110  17.581 -0.3350  1.8535  0.1784
 2484TIP3   OH228866   1.191   1.906   3.512 -0.2103  0.0332 -0.3788
 2484TIP3    H128867   1.137   1.940   3.583 -1.1781 -1.7781 -0.1850
 2484TIP3    H228868   1.272   1.957   3.516 -1.1757  1.5638  0.4979
 2485TIP3   OH228869   0.292   2.560   5.423  0.3909 -0.0548 -0.0233
 2485TIP3    H128870   0.328   2.648   5.409  0.9635 -0.0549  1.4041
 2485TIP3    H228871   0.201   2.576   5.449  0.6790  0.1443  0.8651
 2486TIP3   OH228872   1.375   1.816  16.430 -0.1470  0.1102  0.1227
 2486TIP3    H128873   1.283   1.812  16.454 -0.1461 -0.1150  0.0886
 2486TIP3    H228874   1.391   1.735  16.381  0.3277 -0.3875  1.0608
 2487TIP3   OH228875   4.294   0.735  17.341  0.4606 -0.2616 -0.3237
 2487TIP3    H128876   4.228   0.749  17.409  0.5921 -1.3304  0.0331
 2487TIP3    H228877   4.355   0.672  17.380  1.6980  0.7013 -0.6393
 2488TIP3   OH228878   5.051   4.284   5.440  0.1105 -0.1676 -0.0924
 2488TIP3    H128879   5.022   4.294   5.350  1.8612 -1.3223 -0.8470
 2488TIP3    H228880   5.072   4.373   5.469  0.4393  0.1162 -1.1728
 2489TIP3   OH228881   2.418   3.411   5.064 -0.8042 -0.4403 -0.4072
 2489TIP3    H128882   2.331   3.415   5.105 -0.2052 -0.3175  0.8946
 2489TIP3    H228883   2.409   3.463   4.984 -1.8606 -0.2048 -0.1519
 2490TIP3   OH228884   1.205   5.162  15.867  0.2337  0.8128 -0.1263
 2490TIP3    H128885   1.116   5.132  15.882  1.1088 -2.2455 -0.4225
 2490TIP3    H228886   1.204   5.199  15.779 -0.5362 -0.1605 -0.5387
 2491TIP3   OH228887   2.869   2.372  11.318 -0.1807 -0.1047  0.3101
 2491TIP3    H128888   2.950   2.329  11.291  0.7249  0.8717  1.4155
 2491TIP3    H228889   2.886   2.403  11.406 -1.6275  0.4898  0.4087
 2492TIP3   OH228890   3.337   6.190  14.119  0.5412 -0.2877 -0.1421
 2492TIP3    H128891   3.381   6.206  14.036 -0.3155  1.3600 -0.3175
 2492TIP3    H228892   3.392   6.234  14.184 -1.0236  2.2720 -0.4311
 2493TIP3   OH228893   1.948   0.223   1.513 -0.2371 -0.1810 -0.5997
 2493TIP3    H128894   1.899   0.207   1.433 -1.1789 -0.3905 -0.0053
 2493TIP3    H228895   2.037   0.193   1.494 -0.5718 -0.6838 -1.4020
 2494TIP3   OH228896   6.227   2.745   0.100 -0.6227 -0.5440 -0.2835
 2494TIP3    H128897   6.187   2.822   0.059 -0.4335  0.1418  0.7857
 2494TIP3    H228898   6.251   2.689   0.026 -2.9487 -0.6907 -1.0044
 2495TIP3   OH228899   0.546   6.540  17.071 -0.5479  0.4400  0.1897
 2495TIP3    H128900   0.533   6.521  17.164 -0.1290  1.4165  0.4585
 2495TIP3    H228901   0.573   6.632  17.068  0.5637  0.1159 -0.7961
 2496TIP3   OH228902   6.047   0.168   0.156 -0.1860  0.2191 -0.8476
 2496TIP3    H128903   5.988   0.224   0.207 -0.4699 -1.8555  1.3232
 2496TIP3    H228904   6.024   0.184   0.065 -2.1053  1.6106 -0.1773
 2497TIP3   OH228905   1.520   0.583   1.898  0.2033  0.3166 -0.4023
 2497TIP3    H128906   1.579   0.508   1.910  2.2683  1.5568 -2.0728
 2497TIP3    H228907   1.507   0.588   1.803 -1.3877  1.0145 -0.1770
 2498TIP3   OH228908   2.588   1.940  12.429  0.3736 -0.3416 -0.3396
 2498TIP3    H128909   2.626   1.987  12.503  0.4931 -2.3879  0.9800
 2498TIP3    H228910   2.647   1.958  12.356  0.1274  1.9074 -0.0446
 2499TIP3   OH228911   6.291   3.003   6.146 -0.7223 -0.0200  0.2691
 2499TIP3    H128912   6.293   3.098   6.163  3.3843  0.6304 -2.1959
 2499TIP3    H228913   6.330   2.964   6.224 -0.2198  0.6273  0.3556
 2500TIP3   OH228914   4.181   2.117   4.769 -0.1273  0.4837  0.0312
 2500TIP3    H128915   4.088   2.112   4.747  0.5068 -1.3203 -2.8167
 2500TIP3    H228916   4.213   2.193   4.721  0.2191 -0.1823 -0.8339
 2501TIP3   OH228917   5.611   2.307   0.708  0.0724  0.3809  0.0317
 2501TIP3    H128918   5.612   2.396   0.744 -0.8613  0.4132 -0.0086
 2501TIP3    H228919   5.547   2.260   0.762  2.2872 -0.9657  1.6621
 2502TIP3   OH228920   3.835   2.003   4.065 -0.4256  0.1766 -0.1373
 2502TIP3    H128921   3.893   1.967   4.133  0.9100  0.4507 -1.1089
 2502TIP3    H228922   3.815   1.927   4.010 -0.1170  0.2951 -0.4139
 2503TIP3   OH228923   5.016   1.665   5.580  0.3497  0.7759  0.5073
 2503TIP3    H128924   5.017   1.586   5.633  0.1954  0.1263 -0.4267
 2503TIP3    H228925   4.927   1.699   5.589  0.0353  0.1425 -0.0666
 2504TIP3   OH228926   2.879   1.921   3.347  0.1364  0.4285  0.2772
 2504TIP3    H128927   2.903   1.947   3.258 -0.3489  0.5474  0.1788
 2504TIP3    H228928   2.960   1.931   3.398 -0.0374  2.1955  0.2698
 2505TIP3   OH228929   1.878   5.416  16.454  1.2353  0.4531 -0.5134
 2505TIP3    H128930   1.963   5.456  16.436  0.1044  2.9050 -0.7673
 2505TIP3    H228931   1.818   5.490  16.464 -1.0475 -1.1886 -1.1846
 2506TIP3   OH228932   3.632   5.592  13.510  0.4138  0.1524  0.1824
 2506TIP3    H128933   3.618   5.545  13.592  2.0296 -1.9501 -0.6387
 2506TIP3    H228934   3.546   5.629  13.489  0.0191  0.9968  2.8924
 2507TIP3   OH228935   2.872   1.125  13.117 -0.0250  0.0342  0.4062
 2507TIP3    H128936   2.781   1.102  13.097  0.3986  0.6190 -2.7743
 2507TIP3    H228937   2.877   1.219  13.102  0.9779  0.1040  1.1003
 2508TIP3   OH228938   5.400   1.375  13.656 -0.6044  0.0950 -0.0210
 2508TIP3    H128939   5.394   1.379  13.752 -0.0027 -0.8717  0.0712
 2508TIP3    H228940   5.474   1.431  13.635  0.5001 -1.2174  0.2605
 2509TIP3   OH228941   5.661   2.791   5.479 -0.0163 -0.2961 -0.4198
 2509TIP3    H128942   5.659   2.698   5.458 -0.5161 -0.4932  0.4488
 2509TIP3    H228943   5.574   2.810   5.515  0.2186  0.4124 -0.2068
 2510TIP3   OH228944   4.898   5.110   0.968 -0.0672 -0.0834  0.2603
 2510TIP3    H128945   4.867   5.104   1.059  2.5576  0.5920  1.2915
 2510TIP3    H228946   4.824   5.147   0.920 -2.1392 -2.0314  1.7277
 2511TIP3   OH228947   3.389   5.762  15.822 -0.1470  0.5739 -0.1885
 2511TIP3    H128948   3.439   5.685  15.792 -1.5498  1.1621 -4.9805
 2511TIP3    H228949   3.456   5.826  15.846  1.2085 -0.5730 -0.7808
 2512TIP3   OH228950   1.919   5.418   0.954  0.0080  0.2437 -0.8848
 2512TIP3    H128951   1.838   5.416   0.903 -1.5868  1.0680  1.4159
 2512TIP3    H228952   1.986   5.383   0.895 -2.2601 -1.8780 -2.4138
 2513TIP3   OH228953   6.649   5.976  13.778  0.2607  0.2400 -0.4134
 2513TIP3    H128954   6.718   5.993  13.842 -0.7632  0.2359  0.7313
 2513TIP3    H228955   6.581   6.040  13.799 -1.6070 -2.0320  0.8480
 2514TIP3   OH228956   1.069   5.603  16.953 -0.0277  0.1206 -0.3248
 2514TIP3    H128957   0.973   5.599  16.948 -0.3232  1.3703  2.5966
 2514TIP3    H228958   1.095   5.518  16.988  0.2172 -1.0252 -3.0543
 2515TIP3   OH228959   6.318   5.443  11.651 -0.4899 -0.2264  0.3638
 2515TIP3    H128960   6.344   5.492  11.729  1.0565 -1.3916  0.6377
 2515TIP3    H228961   6.394   5.450  11.592 -0.2354 -2.1716  0.3903
 2516TIP3   OH228962   4.016   1.583   4.640  0.1080 -0.4567  0.2702
 2516TIP3    H128963   3.937   1.567   4.692  0.1189 -1.3466  0.0409
 2516TIP3    H228964   4.088   1.554   4.697  0.3225  0.7888  0.6622
 2517TIP3   OH228965   6.444   2.351  17.504  0.5068 -0.5622  0.4875
 2517TIP3    H128966   6.539   2.364  17.502  0.5557 -0.7312 -2.2558
 2517TIP3    H228967   6.433   2.257  17.514  0.5523 -0.4123  2.2203
 2518TIP3   OH228968   3.598   1.453  14.809 -0.8946  0.4577 -0.0941
 2518TIP3    H128969   3.524   1.479  14.753  0.4103  3.5164 -0.5927
 2518TIP3    H228970   3.603   1.522  14.875  1.3507  0.2326  0.0427
 2519TIP3   OH228971   4.898   1.202   6.038 -0.3898  0.0729  0.1979
 2519TIP3    H128972   4.807   1.183   6.012 -0.2808 -1.6601  1.0172
 2519TIP3    H228973   4.892   1.227   6.130 -0.0779  0.3607  0.1414
 2520TIP3   OH228974   5.441   1.411   4.711 -0.3831 -0.1705  0.0185
 2520TIP3    H128975   5.362   1.365   4.686 -1.2031  1.1173  0.1378
 2520TIP3    H228976   5.445   1.403   4.807 -0.4149 -0.1571  0.0207
 2521TIP3   OH228977   1.262   5.778  13.441  0.4825  0.2672  0.5973
 2521TIP3    H128978   1.324   5.769  13.369 -0.0596  0.7647  0.0542
 2521TIP3    H228979   1.218   5.693  13.445  0.4416  0.2716  0.2671
 2522TIP3   OH228980   2.950   1.426   5.923 -0.0391 -0.2188 -0.1865
 2522TIP3    H128981   2.867   1.380   5.909 -0.3033  0.6913 -1.9337
 2522TIP3    H228982   3.010   1.387   5.860 -0.0199  1.1672 -1.0639
 2523TIP3   OH228983   1.431   3.135   2.386  0.1308  0.0187  0.2898
 2523TIP3    H128984   1.493   3.205   2.405  0.7888 -0.6771  0.7322
 2523TIP3    H228985   1.450   3.109   2.296 -0.3104  0.5971  0.0231
 2524TIP3   OH228986   5.606   1.236   3.722 -0.4857 -0.3625  0.3375
 2524TIP3    H128987   5.636   1.169   3.784  0.6090  1.6607  2.1068
 2524TIP3    H228988   5.514   1.250   3.746 -0.9582 -1.6956 -0.5493
 2525TIP3   OH228989   2.181   4.605  15.449  0.0084 -0.7339  0.1001
 2525TIP3    H128990   2.272   4.576  15.457 -0.2339 -1.3468  0.8728
 2525TIP3    H228991   2.149   4.564  15.369  1.0594  1.3868 -1.5084
 2526TIP3   OH228992   2.332   6.322  11.114  0.3732  0.4111  0.1197
 2526TIP3    H128993   2.391   6.372  11.169 -0.0256 -0.5401  1.4720
 2526TIP3    H228994   2.380   6.310  11.031  1.9017  0.0366  1.0197
 2527TIP3   OH228995   1.691   3.916   2.116  0.0795  0.3471  0.0469
 2527TIP3    H128996   1.676   3.832   2.073 -1.5510  0.6393 -0.0191
 2527TIP3    H228997   1.628   3.975   2.075 -0.4044  1.0268  1.7034
 2528TIP3   OH228998   6.650   2.235   4.351 -0.3317  0.1205  0.2804
 2528TIP3    H128999   6.591   2.162   4.334  0.2084  0.1675 -2.1238
 2528TIP3    H229000   6.593   2.312   4.352 -0.5663 -0.0460 -0.0151
 2529TIP3   OH229001   0.896   3.181  13.822 -0.4431 -0.2235 -0.6004
 2529TIP3    H129002   0.968   3.193  13.884  1.1033  1.2927 -2.5427
 2529TIP3    H229003   0.899   3.088  13.798  0.6656 -0.2504 -0.3955
 2530TIP3   OH229004   5.527   3.481  14.932 -0.2695 -0.1818 -0.2696
 2530TIP3    H129005   5.552   3.401  14.885  0.6842  0.7447 -1.3660
 2530TIP3    H229006   5.538   3.458  15.024  1.5544 -0.8266 -0.6107
 2531TIP3   OH229007   6.660   2.450   4.895 -0.2420  0.4379 -0.1169
 2531TIP3    H129008   6.626   2.532   4.861  0.0331  0.6598  0.1361
 2531TIP3    H229009   6.754   2.453   4.876 -0.1590  0.3713  0.2682
 2532TIP3   OH229010   0.225   2.104  13.534 -0.2299  0.1117 -0.1683
 2532TIP3    H129011   0.291   2.056  13.584 -0.3773 -0.0073 -0.0859
 2532TIP3    H229012   0.264   2.190  13.518  1.2073 -0.8742 -2.6665
 2533TIP3   OH229013   3.741   4.705  15.865 -0.5763 -0.6184 -0.7024
 2533TIP3    H129014   3.722   4.611  15.860  0.8128 -0.9813  0.2547
 2533TIP3    H229015   3.836   4.710  15.865 -0.6323  0.8411 -1.1873
 2534TIP3   OH229016   2.128   0.728   0.205 -0.3444 -0.4455 -1.1097
 2534TIP3    H129017   2.156   0.710   0.295 -0.7952  2.7641 -0.1812
 2534TIP3    H229018   2.205   0.711   0.151  0.1580 -1.7321 -0.0432
 2535TIP3   OH229019   3.938   1.669   0.706  0.1422 -0.2026 -0.0707
 2535TIP3    H129020   3.872   1.603   0.727 -0.2344  0.0224 -0.5396
 2535TIP3    H229021   3.927   1.736   0.773  1.7023 -1.4107  1.5065
 2536TIP3   OH229022   3.975   5.002  16.770  0.7340 -0.1215 -0.3534
 2536TIP3    H129023   3.925   4.921  16.759 -1.2397  1.0485 -0.4552
 2536TIP3    H229024   3.934   5.064  16.710  1.8511  1.1179  0.1195
 2537TIP3   OH229025   4.383   2.545   6.338 -0.2665  0.4446  0.2756
 2537TIP3    H129026   4.297   2.503   6.326 -0.0505  0.2139 -0.4758
 2537TIP3    H229027   4.441   2.474   6.363 -0.1036  0.4613 -0.0621
 2538TIP3   OH229028   2.999   6.089  13.860  0.0866  0.2132  0.0556
 2538TIP3    H129029   2.945   6.076  13.937 -2.2068  2.4494 -1.0215
 2538TIP3    H229030   3.031   6.178  13.868 -0.8118  0.7607 -1.8516
 2539TIP3   OH229031   4.925   1.746   2.758  0.4593  0.2913 -0.2994
 2539TIP3    H129032   5.007   1.776   2.718  0.7474  0.8369  0.6634
 2539TIP3    H229033   4.918   1.654   2.733  1.5105  0.1646 -0.1866
 2540TIP3   OH229034   4.724   3.367  11.671 -0.3898  0.5879 -0.0066
 2540TIP3    H129035   4.712   3.456  11.703  1.7487  0.5964  0.9225
 2540TIP3    H229036   4.670   3.312  11.728  1.2337  0.9129  1.9266
 2541TIP3   OH229037   0.866   6.265  12.791  0.2617 -0.3556  0.3591
 2541TIP3    H129038   0.961   6.274  12.796  0.1265  1.7910  0.0154
 2541TIP3    H229039   0.837   6.261  12.882  0.5458  1.4422  0.5736
 2542TIP3   OH229040   1.555   6.144  11.514  0.0797 -0.7043 -0.3935
 2542TIP3    H129041   1.488   6.137  11.445 -1.2265  0.5914  0.6755
 2542TIP3    H229042   1.615   6.212  11.483 -1.1878  0.7539  0.2307
 2543TIP3   OH229043   2.585   4.599  14.079 -0.7228 -0.2205  0.6155
 2543TIP3    H129044   2.651   4.559  14.135  1.0611  0.0976 -1.1569
 2543TIP3    H229045   2.531   4.652  14.139  1.2995  0.4036  1.9749
 2544TIP3   OH229046   5.300   5.431  16.545 -0.2456 -0.3565 -0.0856
 2544TIP3    H129047   5.314   5.511  16.596 -0.0845 -1.0766  1.0410
 2544TIP3    H229048   5.359   5.367  16.584 -2.2440 -1.7849  0.8316
 2545TIP3   OH229049   6.325   3.496   3.704 -0.3938  0.5008 -0.4716
 2545TIP3    H129050   6.258   3.520   3.768 -0.7300 -0.6748 -0.3566
 2545TIP3    H229051   6.289   3.419   3.660  1.2353 -0.6808  0.1594
 2546TIP3   OH229052   0.357   0.480  14.560  0.2912  0.0416  0.4738
 2546TIP3    H129053   0.270   0.443  14.549 -0.3681  1.5903  0.1742
 2546TIP3    H229054   0.368   0.539  14.486  2.0136 -0.8478 -0.0297
 2547TIP3   OH229055   1.170   3.222  15.939 -0.0157  0.4404 -0.0873
 2547TIP3    H129056   1.142   3.239  15.849 -0.0058  0.9670  0.0044
 2547TIP3    H229057   1.192   3.129  15.940  0.1944  0.4764 -0.6854
 2548TIP3   OH229058   6.070   4.276  13.724  0.2244 -0.3070 -0.3196
 2548TIP3    H129059   6.149   4.305  13.678  0.0611 -0.3392 -0.6271
 2548TIP3    H229060   6.071   4.324  13.807  0.6699 -0.4570 -0.2376
 2549TIP3   OH229061   5.051   0.459  14.937 -0.0671 -0.2043 -0.4214
 2549TIP3    H129062   5.014   0.376  14.907 -2.2685 -0.3636  2.3078
 2549TIP3    H229063   5.056   0.450  15.032  1.2741  2.1955 -0.1827
 2550TIP3   OH229064   0.452   5.323  15.803 -0.3588 -0.5758 -0.1480
 2550TIP3    H129065   0.369   5.286  15.772 -0.5840 -0.2510  0.0689
 2550TIP3    H229066   0.456   5.300  15.896  0.8881 -2.6168 -0.6372
 2551TIP3   OH229067   4.258   4.483  13.648 -0.9958 -0.1008  0.2098
 2551TIP3    H129068   4.221   4.476  13.736 -0.7229 -3.0604  0.2014
 2551TIP3    H229069   4.185   4.512  13.594 -1.7282 -0.2365  1.0955
 2552TIP3   OH229070   1.393   5.165  15.065  0.8353  0.1311 -0.0628
 2552TIP3    H129071   1.331   5.213  15.010  1.5846 -0.6242 -1.6212
 2552TIP3    H229072   1.479   5.186  15.028  1.4379  0.1880  1.3009
 2553TIP3   OH229073   0.662   6.227  10.890 -0.4675 -0.0085 -0.0953
 2553TIP3    H129074   0.645   6.139  10.925  1.3184 -0.0251  0.8748
 2553TIP3    H229075   0.608   6.285  10.944  0.4823 -0.2733  1.1833
 2554TIP3   OH229076   3.911   2.512  15.789  0.1940  0.1161 -0.3001
 2554TIP3    H129077   3.847   2.534  15.721  1.0527 -0.6645 -1.3988
 2554TIP3    H229078   3.945   2.426  15.763 -0.1119 -0.6403  1.6369
 2555TIP3   OH229079   1.954   4.056  11.269 -0.0437  0.3053  0.0109
 2555TIP3    H129080   1.891   4.102  11.325 -0.0265  0.1835  0.1309
 2555TIP3    H229081   2.032   4.048  11.324 -0.4846 -1.0530  0.4799
 2556TIP3   OH229082   6.219   1.765   5.017 -0.0909  0.4394  0.1682
 2556TIP3    H129083   6.253   1.676   5.025 -0.5180  0.4121  2.1315
 2556TIP3    H229084   6.289   1.814   4.974  0.2667 -0.7639 -0.6681
 2557TIP3   OH229085   5.581   3.980   3.171 -0.2850  0.0949 -0.0438
 2557TIP3    H129086   5.524   4.006   3.244 -1.0184  0.4836 -0.7322
 2557TIP3    H229087   5.573   4.051   3.108 -0.1581 -0.5257 -0.7791
 2558TIP3   OH229088   3.134   0.144  17.342 -0.2007  0.1115 -0.5821
 2558TIP3    H129089   3.139   0.187  17.256  1.7394  0.5297 -0.2975
 2558TIP3    H229090   3.216   0.096  17.349 -0.6759 -0.5320  0.7394
 2559TIP3   OH229091   3.227   2.991  16.798  0.4412 -0.1028  0.5414
 2559TIP3    H129092   3.311   2.992  16.752  0.0681  1.3764 -0.1843
 2559TIP3    H229093   3.178   3.062  16.758 -1.2155 -1.0165  0.8857
 2560TIP3   OH229094   3.930   3.930   0.035  0.4302 -0.0878 -0.4947
 2560TIP3    H129095   3.942   3.846  -0.009 -0.4656 -0.8004  0.5569
 2560TIP3    H229096   3.856   3.915   0.095  0.6454  1.2725  0.1461
 2561TIP3   OH229097   0.829   4.922  16.893 -0.1295 -0.3764 -0.5884
 2561TIP3    H129098   0.923   4.932  16.910  0.3191 -1.5385 -2.1079
 2561TIP3    H229099   0.807   4.838  16.934 -0.7222  0.3016  0.5111
 2562TIP3   OH229100   1.832   2.510  15.498  0.3428 -0.1207  0.3743
 2562TIP3    H129101   1.842   2.425  15.540 -4.3248 -0.4573  1.3353
 2562TIP3    H229102   1.815   2.571  15.569 -2.4318  0.3136 -0.5267
 2563TIP3   OH229103   0.971   1.001  12.130 -0.0781  0.3303  0.3210
 2563TIP3    H129104   1.036   0.972  12.194 -0.6221  0.7398  1.0826
 2563TIP3    H229105   1.004   1.085  12.098  0.9285 -0.5506 -1.0437
 2564TIP3   OH229106   0.489   1.846  14.625  0.0894 -0.0241  0.3777
 2564TIP3    H129107   0.420   1.901  14.589 -1.2175 -1.2951  0.8618
 2564TIP3    H229108   0.512   1.888  14.708 -1.6895 -0.7713  1.2918
 2565TIP3   OH229109   2.407   5.057  13.577  0.2139 -0.1999 -0.5523
 2565TIP3    H129110   2.416   5.148  13.549  0.1103 -0.2505 -0.7528
 2565TIP3    H229111   2.319   5.053  13.615  0.8811  0.2260  1.1468
 2566TIP3   OH229112   1.671   5.271  11.251  0.0023  0.3417  0.8602
 2566TIP3    H129113   1.748   5.327  11.263  0.2624 -0.3469  2.6947
 2566TIP3    H229114   1.598   5.321  11.289  0.1495 -0.3036  2.0531
 2567TIP3   OH229115   0.468   5.891  16.866  0.3422 -0.0803 -0.9357
 2567TIP3    H129116   0.383   5.883  16.910  0.7451 -0.1176 -0.1482
 2567TIP3    H229117   0.473   5.815  16.809  0.7593 -1.2544  0.6123
 2568TIP3   OH229118   1.297   0.518   5.655  0.0548 -0.0762  0.0582
 2568TIP3    H129119   1.384   0.480   5.668 -0.6571 -1.4898  0.9390
 2568TIP3    H229120   1.288   0.581   5.726  0.5457  0.4613 -0.3437
 2569TIP3   OH229121   3.905   4.247  12.708 -0.0296 -0.5313  0.3767
 2569TIP3    H129122   3.852   4.319  12.674 -0.2515  0.4512  2.5836
 2569TIP3    H229123   3.987   4.289  12.736 -0.0701 -1.1478  1.4848
 2570TIP3   OH229124   6.067   6.569   1.011 -0.6772 -0.0921  0.1341
 2570TIP3    H129125   6.080   6.553   0.918  0.2813 -2.1651  0.5717
 2570TIP3    H229126   5.983   6.615   1.016 -0.1527  1.1884 -1.8128
 2571TIP3   OH229127   3.312   2.202   4.873 -0.1735 -0.2495  0.5221
 2571TIP3    H129128   3.320   2.107   4.866  0.3921 -0.2035  0.5377
 2571TIP3    H229129   3.324   2.233   4.783  0.6925 -0.1180  0.6818
 2572TIP3   OH229130   2.364   1.465  12.158  0.3116  0.0262 -0.1791
 2572TIP3    H129131   2.345   1.502  12.072 -0.9019  1.8561  0.7878
 2572TIP3    H229132   2.359   1.540  12.217 -1.1093 -1.5196  1.7851
 2573TIP3   OH229133   2.141   5.308   3.903  0.1166  0.1480 -0.0656
 2573TIP3    H129134   2.203   5.278   3.836 -0.6521 -1.5493 -0.0569
 2573TIP3    H229135   2.179   5.280   3.986 -0.5280 -0.7311 -0.0474
 2574TIP3   OH229136   2.785   3.233   1.145  0.9036 -0.1329 -0.1282
 2574TIP3    H129137   2.714   3.225   1.081 -0.5252 -0.6121  1.4636
 2574TIP3    H229138   2.753   3.188   1.223  2.7373  0.1413  0.8355
 2575TIP3   OH229139   3.453   1.056  15.319  0.1460 -0.1328  0.0884
 2575TIP3    H129140   3.524   1.034  15.259  0.5397 -1.0553  0.8711
 2575TIP3    H229141   3.377   1.011  15.284 -0.5877  2.3404 -1.8235
 2576TIP3   OH229142   2.296   2.749   3.949 -0.2508 -0.2558 -0.3742
 2576TIP3    H129143   2.299   2.764   3.855 -1.1498  1.6343 -0.1473
 2576TIP3    H229144   2.203   2.748   3.971 -0.0420  0.7806  0.6805
 2577TIP3   OH229145   0.364   2.849   3.591 -0.5340 -0.6944 -0.4518
 2577TIP3    H129146   0.436   2.799   3.629 -0.3898  0.3417  0.6978
 2577TIP3    H229147   0.353   2.813   3.503  1.0460 -1.2166 -0.4548
 2578TIP3   OH229148   3.310   0.327   6.215 -0.4714 -0.2583 -0.1481
 2578TIP3    H129149   3.341   0.403   6.264  0.0862 -1.0427  0.7687
 2578TIP3    H229150   3.378   0.261   6.229 -0.8295 -0.8450 -1.1211
 2579TIP3   OH229151   3.954   0.529   4.807  1.0570 -0.0025 -0.0477
 2579TIP3    H129152   4.042   0.547   4.775  1.7886 -1.8057  0.8068
 2579TIP3    H229153   3.951   0.434   4.817 -1.5857 -0.1743 -1.6588
 2580TIP3   OH229154   4.652   5.049  17.563 -0.3879 -0.2956 -0.0994
 2580TIP3    H129155   4.699   5.125  17.530  2.2074 -1.9870 -0.5759
 2580TIP3    H229156   4.636   5.069  17.656 -1.4114  1.5192 -0.6180
 2581TIP3   OH229157   3.355   3.309   5.506  0.4486 -0.3583 -0.5580
 2581TIP3    H129158   3.405   3.371   5.453  0.0572 -0.0618 -0.5933
 2581TIP3    H229159   3.400   3.226   5.496  0.8727 -0.1163 -0.6660
 2582TIP3   OH229160   1.083   2.886   1.544  0.0467  0.1628 -0.7078
 2582TIP3    H129161   1.041   2.950   1.603  0.6097  0.0035 -0.1158
 2582TIP3    H229162   1.010   2.836   1.508 -0.2572 -0.5735  0.8382
 2583TIP3   OH229163   0.121   6.417   3.903 -0.1298  0.2615  0.4009
 2583TIP3    H129164   0.077   6.399   3.819 -1.6536  1.4210  0.8993
 2583TIP3    H229165   0.182   6.488   3.883 -0.5115  0.5573  0.2568
 2584TIP3   OH229166   2.578   4.219   0.848 -0.1193 -0.5516  0.1946
 2584TIP3    H129167   2.494   4.178   0.868 -0.6235  1.1702  1.9832
 2584TIP3    H229168   2.635   4.193   0.921  0.1320  0.3102  0.3165
 2585TIP3   OH229169   1.592   2.775   2.275 -0.5922 -0.1361  0.1780
 2585TIP3    H129170   1.671   2.822   2.249 -0.4243 -0.6068 -0.1713
 2585TIP3    H229171   1.624   2.690   2.305 -0.9350 -0.1928  0.3859
 2586TIP3   OH229172   6.240   6.391  13.349  0.2861 -0.0147  0.0836
 2586TIP3    H129173   6.317   6.369  13.402 -0.2265 -0.1861  0.7690
 2586TIP3    H229174   6.237   6.323  13.282  0.7906  0.0556 -0.0182
 2587TIP3   OH229175   3.478   0.307   4.627  0.1093 -0.5387 -0.2995
 2587TIP3    H129176   3.516   0.331   4.542  0.6692  1.2762  0.4126
 2587TIP3    H229177   3.485   0.212   4.631  0.5112 -0.6135 -2.0770
 2588TIP3   OH229178   5.231   2.085  11.693 -0.5506 -0.1002 -0.6337
 2588TIP3    H129179   5.160   2.080  11.629 -1.2650  0.2312  0.1159
 2588TIP3    H229180   5.227   2.175  11.726 -0.4624 -0.3798  0.1716
 2589TIP3   OH229181   2.187   5.008  13.710 -0.8794 -0.6962  0.0594
 2589TIP3    H129182   2.102   5.051  13.719 -0.8384 -0.9106  1.6946
 2589TIP3    H229183   2.170   4.916  13.727 -0.3874 -0.8162 -0.0731
 2590TIP3   OH229184   1.848   0.813   5.726  0.4125 -0.0902  0.1457
 2590TIP3    H129185   1.757   0.818   5.756  0.5393  0.4783  0.4400
 2590TIP3    H229186   1.876   0.725   5.748  0.1780 -0.0125  0.7560
 2591TIP3   OH229187   4.449   6.391   0.277  0.1837  0.1344  0.0302
 2591TIP3    H129188   4.520   6.386   0.341 -0.6004 -0.7746  0.8659
 2591TIP3    H229189   4.493   6.394   0.192  1.2237 -1.8509  0.4420
 2592TIP3   OH229190   5.835   5.502   1.336 -0.1990 -0.4336  0.5217
 2592TIP3    H129191   5.801   5.431   1.390 -2.6044 -0.0056 -0.2921
 2592TIP3    H229192   5.761   5.528   1.281  0.9780  1.8318 -0.1345
 2593TIP3   OH229193   1.902   4.800   1.176 -0.3905  0.0320 -0.2094
 2593TIP3    H129194   1.921   4.706   1.171  0.2717  0.2138 -1.5117
 2593TIP3    H229195   1.854   4.819   1.096 -0.8316  0.7541  0.2162
 2594TIP3   OH229196   0.708   5.713  11.811 -0.1698  0.1899  0.0212
 2594TIP3    H129197   0.763   5.758  11.747  1.8980 -2.2977 -0.1413
 2594TIP3    H229198   0.636   5.676  11.759  0.8146 -0.7558 -0.7385
 2595TIP3   OH229199   5.473   2.794   3.524  0.0896 -0.0404 -0.0408
 2595TIP3    H129200   5.462   2.854   3.598 -0.9008 -0.6448  0.3280
 2595TIP3    H229201   5.527   2.723   3.559 -0.2398 -0.2428  0.0679
 2596TIP3   OH229202   2.881   2.592  14.168  0.6194  0.1239 -0.7603
 2596TIP3    H129203   2.870   2.508  14.124  0.2453 -1.6625  2.4639
 2596TIP3    H229204   2.975   2.600  14.182  0.5598 -0.3086 -0.0992
 2597TIP3   OH229205   2.051   4.108   2.936  0.0058 -0.1422  0.5881
 2597TIP3    H129206   2.133   4.108   2.986 -0.6551 -1.8587  1.7787
 2597TIP3    H229207   2.058   4.031   2.879 -0.9474 -0.5914  1.0520
 2598TIP3   OH229208   2.468   6.358  12.591 -0.3854  0.4058  0.3631
 2598TIP3    H129209   2.458   6.270  12.555  2.9698  0.5782 -1.4319
 2598TIP3    H229210   2.417   6.414  12.534 -0.5834 -0.1202  0.0228
 2599TIP3   OH229211   3.816   0.084   4.144  0.0204  0.5030  0.3850
 2599TIP3    H129212   3.734   0.059   4.187  0.5162 -0.2061  0.9562
 2599TIP3    H229213   3.791   0.151   4.081 -0.9626  0.4667  0.7176
 2600TIP3   OH229214   0.336   5.370  11.739 -0.5558 -0.3598 -0.6602
 2600TIP3    H129215   0.308   5.285  11.706  2.6766 -1.5057 -0.8593
 2600TIP3    H229216   0.316   5.367  11.832 -0.1372 -1.5519 -0.5880
 2601TIP3   OH229217   6.436   1.079  13.928 -0.2433 -0.0968  0.0319
 2601TIP3    H129218   6.476   0.993  13.941  0.5969  0.0833 -1.1829
 2601TIP3    H229219   6.343   1.062  13.916 -0.2196 -0.7401  0.7151
 2602TIP3   OH229220   2.660   2.147   3.068  0.3972  0.4858 -0.3177
 2602TIP3    H129221   2.737   2.118   3.019  1.4892  1.8907  0.4918
 2602TIP3    H229222   2.601   2.182   3.001  0.4379 -0.5959 -0.9432
 2603TIP3   OH229223   1.680   1.737  15.824  0.7107 -0.3798 -0.3076
 2603TIP3    H129224   1.713   1.729  15.735 -0.0663  1.9735 -0.8679
 2603TIP3    H229225   1.599   1.686  15.824  1.5429 -1.7507 -0.4344
 2604TIP3   OH229226   0.711   1.880  17.520  0.7153  0.1757  0.5351
 2604TIP3    H129227   0.791   1.931  17.539  0.2206  1.2253 -0.1188
 2604TIP3    H229228   0.661   1.884  17.602  0.9373  0.2541  0.6698
 2605TIP3   OH229229   4.566   1.924   4.777  0.2492  0.6465  0.1329
 2605TIP3    H129230   4.519   1.957   4.854  1.5418 -0.3591  1.4035
 2605TIP3    H229231   4.654   1.961   4.784  1.3145 -1.7995  0.8495
 2606TIP3   OH229232   3.379   3.214  11.814 -0.2097 -0.5153 -0.1572
 2606TIP3    H129233   3.404   3.303  11.792  4.1073 -1.7655 -1.2726
 2606TIP3    H229234   3.295   3.223  11.858 -0.3098  3.9769 -0.8013
 2607TIP3   OH229235   2.012   4.780   2.305 -0.1633 -0.3765  0.4208
 2607TIP3    H129236   2.060   4.727   2.241 -1.7591 -0.0526 -1.1317
 2607TIP3    H229237   2.080   4.820   2.359  1.4708  1.2011 -2.5630
 2608TIP3   OH229238   6.559   0.605  11.224  0.5951 -0.1698 -0.8767
 2608TIP3    H129239   6.513   0.687  11.205  0.3376  0.0290  0.5029
 2608TIP3    H229240   6.495   0.537  11.204  0.2174  0.0433 -0.4074
 2609TIP3   OH229241   0.145   1.032  13.481 -0.4910 -0.0191  0.1146
 2609TIP3    H129242   0.079   1.088  13.522 -1.7646 -0.9545 -0.5753
 2609TIP3    H229243   0.113   0.943  13.496  0.5239 -0.4865 -0.4017
 2610TIP3   OH229244   5.772   2.514  15.100  0.5462 -0.0353  0.7849
 2610TIP3    H129245   5.843   2.458  15.067  1.3835  0.8758  0.9918
 2610TIP3    H229246   5.721   2.538  15.023  1.1112  0.1824  0.4765
 2611TIP3   OH229247   0.860   4.292   2.049  0.1264  0.1978  0.1588
 2611TIP3    H129248   0.786   4.330   2.001 -0.3168  0.0776  0.7442
 2611TIP3    H229249   0.848   4.198   2.041  0.8768  0.1614 -0.7487
 2612TIP3   OH229250   5.540   3.067  13.117 -0.2217 -0.5050  0.6532
 2612TIP3    H129251   5.487   3.038  13.191  0.7921 -1.5233  1.0062
 2612TIP3    H229252   5.621   3.016  13.123  0.0358 -0.3614 -0.9560
 2613TIP3   OH229253   3.108   0.023  16.626 -0.5288 -0.0914 -0.2896
 2613TIP3    H129254   3.194  -0.017  16.641 -0.2850  0.2643 -0.7167
 2613TIP3    H229255   3.080   0.053  16.712 -1.1472 -2.0065  0.2248
 2614TIP3   OH229256   2.910   4.889  16.532 -0.3260 -0.5835 -0.6498
 2614TIP3    H129257   2.867   4.948  16.594 -1.0517 -2.9457  1.2210
 2614TIP3    H229258   2.989   4.936  16.505  1.1144 -0.1687  3.6113
 2615TIP3   OH229259   2.385   4.841   0.411 -0.6427  0.5553  0.4905
 2615TIP3    H129260   2.446   4.881   0.349 -1.0105 -1.0919 -1.0358
 2615TIP3    H229261   2.437   4.772   0.453 -0.9535  0.3528  0.5389
 2616TIP3   OH229262   0.879   5.532  13.686  0.1006 -0.2899  0.1774
 2616TIP3    H129263   0.820   5.485  13.745 -1.0757  1.4705  0.4952
 2616TIP3    H229264   0.829   5.541  13.605 -0.0479  1.1035  0.4040
 2617TIP3   OH229265   6.078   1.653  15.124  0.1708  0.5794  0.3193
 2617TIP3    H129266   6.162   1.697  15.114  1.1939 -1.6767 -2.4387
 2617TIP3    H229267   6.057   1.620  15.036 -2.7150 -0.4940  1.2810
 2618TIP3   OH229268   4.982   2.582   3.850 -0.4577 -0.0295  0.5308
 2618TIP3    H129269   4.973   2.653   3.914 -0.4007  0.0898  0.4050
 2618TIP3    H229270   4.966   2.502   3.901 -0.1561  0.0502  0.7467
 2619TIP3   OH229271   4.122   4.405   3.742 -0.2363  0.2544 -0.2015
 2619TIP3    H129272   4.189   4.428   3.677 -0.2669  0.5159 -0.1432
 2619TIP3    H229273   4.124   4.310   3.747  1.1926  0.3242  0.9318
 2620TIP3   OH229274   2.884   3.515  15.400  0.3502 -0.4458  0.0844
 2620TIP3    H129275   2.847   3.427  15.396 -1.6820  0.3463  0.2167
 2620TIP3    H229276   2.855   3.557  15.319  2.7153 -0.3555 -0.8050
 2621TIP3   OH229277   3.973   6.116  14.422  0.1858 -0.0364  0.1448
 2621TIP3    H129278   3.967   6.183  14.490 -0.7542 -1.3966  1.4756
 2621TIP3    H229279   4.056   6.071  14.440  2.2855  2.4292 -2.4690
 2622TIP3   OH229280   6.118   0.280  16.004  0.1248  0.5729 -0.7771
 2622TIP3    H129281   6.056   0.322  16.065  0.5162  0.8355 -0.5540
 2622TIP3    H229282   6.081   0.193  15.988  0.0648  0.4685 -0.0881
 2623TIP3   OH229283   0.721   3.719   4.143  0.7578  0.1361  0.1593
 2623TIP3    H129284   0.754   3.721   4.053  0.0611 -0.2365 -0.1109
 2623TIP3    H229285   0.793   3.680   4.193  0.9656 -0.1080 -0.3152
 2624TIP3   OH229286   1.717   5.815  15.887  0.1859  0.1103  0.4266
 2624TIP3    H129287   1.756   5.811  15.799  1.9222  3.2421  0.9003
 2624TIP3    H229288   1.772   5.758  15.940  0.2945 -0.3192 -0.1358
 2625TIP3   OH229289   6.233   1.016  11.338 -0.4248 -0.2151  0.0040
 2625TIP3    H129290   6.208   1.098  11.295  1.0521 -0.1052 -0.7034
 2625TIP3    H229291   6.255   1.042  11.428  0.9144  0.3271 -0.4697
 2626TIP3   OH229292   1.706   2.106   4.564  0.7167 -0.6918  0.0829
 2626TIP3    H129293   1.688   2.199   4.557 -3.7097 -1.3913 -0.6685
 2626TIP3    H229294   1.692   2.086   4.657  1.6475 -0.6829  0.2403
 2627TIP3   OH229295   4.966   2.341  16.901  0.1551  0.1740 -0.3716
 2627TIP3    H129296   5.058   2.356  16.883  0.6462 -0.5102  1.3124
 2627TIP3    H229297   4.952   2.379  16.988 -1.2743  0.6705 -0.7786
 2628TIP3   OH229298   3.434   6.592  16.107  0.4699  0.1927  0.0435
 2628TIP3    H129299   3.501   6.524  16.118 -1.7895 -2.3164 -0.5641
 2628TIP3    H229300   3.385   6.592  16.189 -0.5885 -0.1648 -0.5643
 2629TIP3   OH229301   5.984   0.998  15.116  0.7152 -0.6507  0.4463
 2629TIP3    H129302   6.031   0.984  15.198  0.7674  0.5363  0.6297
 2629TIP3    H229303   6.053   1.005  15.050  0.7515  0.0306  0.5538
 2630TIP3   OH229304   6.451   6.057   0.210  0.1678  0.0499  0.4142
 2630TIP3    H129305   6.468   6.056   0.304  0.0001 -0.1262  0.4437
 2630TIP3    H229306   6.537   6.053   0.170  0.2050 -0.7879  0.5583
 2631TIP3   OH229307   5.020   5.403  17.593  0.8283 -0.5948  0.3449
 2631TIP3    H129308   5.065   5.428  17.512  0.8365  0.0037  0.5266
 2631TIP3    H229309   5.030   5.308  17.597  2.3568 -0.4550  0.5360
 2632TIP3   OH229310   0.932   4.815  14.184 -0.5695  0.0329  0.4451
 2632TIP3    H129311   0.987   4.855  14.252 -2.0402  0.8006  1.2270
 2632TIP3    H229312   0.919   4.884  14.120 -2.2987  0.5709  1.3091
 2633TIP3   OH229313   3.565   5.524  14.526  0.1986  0.1355 -0.3533
 2633TIP3    H129314   3.652   5.556  14.502  0.0194  0.1800 -0.9647
 2633TIP3    H229315   3.579   5.472  14.605  1.0080 -0.9903 -1.2084
 2634TIP3   OH229316   1.896   0.940  15.511 -0.2767  0.2390 -0.1290
 2634TIP3    H129317   1.952   0.920  15.436  1.5265  0.1088  1.1830
 2634TIP3    H229318   1.944   0.907  15.587 -3.2719 -2.1959  0.9289
 2635TIP3   OH229319   6.660   2.986  12.298 -0.3293 -0.7787  0.0318
 2635TIP3    H129320   6.663   2.928  12.222 -0.2395  0.0913 -0.6469
 2635TIP3    H229321   6.575   3.029  12.292 -0.0333 -0.1905  0.0265
 2636TIP3   OH229322   4.853   2.657  14.810  0.1230 -0.2362  0.0499
 2636TIP3    H129323   4.774   2.608  14.785  0.4665 -1.1512  0.7118
 2636TIP3    H229324   4.908   2.592  14.854  1.2810  0.3796 -0.4693
 2637TIP3   OH229325   4.905   1.827  13.748 -0.4755  0.4950 -0.2383
 2637TIP3    H129326   4.846   1.848  13.821 -1.0805  1.5239 -0.9835
 2637TIP3    H229327   4.987   1.871  13.770 -0.7677  1.1002 -0.3328
 2638TIP3   OH229328   5.632   5.564   1.177  0.2306 -0.1484 -0.1047
 2638TIP3    H129329   5.538   5.576   1.187  0.1369  1.5000 -2.1855
 2638TIP3    H229330   5.646   5.565   1.082  2.3447 -0.4035  0.1499
 2639TIP3   OH229331   2.351   0.983   3.228  0.1181 -0.2251  0.3997
 2639TIP3    H129332   2.388   0.927   3.160 -1.6783  0.7062 -1.4394
 2639TIP3    H229333   2.427   1.022   3.271  1.3120 -0.5311 -1.3401
 2640TIP3   OH229334   4.138   2.889   5.038  0.1150 -0.1705 -0.1382
 2640TIP3    H129335   4.070   2.941   4.996  1.5794  3.0586  1.1665
 2640TIP3    H229336   4.207   2.882   4.972 -0.0188 -0.3214 -0.2629
 2641TIP3   OH229337   3.682   5.566   5.817  0.0237 -0.6180 -0.6363
 2641TIP3    H129338   3.709   5.582   5.907 -0.0159  2.6489 -1.0947
 2641TIP3    H229339   3.598   5.519   5.825 -1.2013  1.6555  1.1576
 2642TIP3   OH229340   1.501   1.853   5.661  0.7607  0.5271  0.5011
 2642TIP3    H129341   1.566   1.891   5.719 -0.5706  0.7081  1.9177
 2642TIP3    H229342   1.460   1.783   5.712 -3.5467  3.4937  1.6027
 2643TIP3   OH229343   3.699   1.511   4.482 -0.0558  0.4533 -0.0474
 2643TIP3    H129344   3.740   1.491   4.566  0.0288  0.9397  0.0280
 2643TIP3    H229345   3.744   1.455   4.419  1.1126  1.3753 -0.0616
 2644TIP3   OH229346   0.242   0.639   2.746 -0.0103  0.8675  0.4399
 2644TIP3    H129347   0.210   0.660   2.834  3.6374 -2.1013  2.8318
 2644TIP3    H229348   0.301   0.712   2.724 -0.9404  1.6268  0.4036
 2645TIP3   OH229349   0.679   4.437  13.607 -0.6176 -0.0300  0.2425
 2645TIP3    H129350   0.631   4.456  13.688 -1.6914  0.2628 -0.4554
 2645TIP3    H229351   0.671   4.343  13.597 -1.5277  0.0859 -0.1640
 2646TIP3   OH229352   3.487   5.039   0.666 -0.0325 -0.3445 -0.7329
 2646TIP3    H129353   3.430   5.081   0.602  2.2659  1.5028 -1.7099
 2646TIP3    H229354   3.548   4.987   0.614 -0.1246 -1.4539  0.2135
 2647TIP3   OH229355   6.359   5.182  11.762 -0.1686 -0.3360 -0.2378
 2647TIP3    H129356   6.359   5.278  11.772 -0.7475 -0.3530 -0.0291
 2647TIP3    H229357   6.357   5.168  11.668  3.4782 -0.1620 -0.4999
 2648TIP3   OH229358   1.797   0.000   2.339 -0.2224  0.1631  0.4986
 2648TIP3    H129359   1.832   0.075   2.290 -0.3288 -0.2413 -0.2192
 2648TIP3    H229360   1.703   0.019   2.347 -0.1347  0.4222  0.8971
 2649TIP3   OH229361   6.529   0.256   0.015  0.1542 -0.2963 -0.0877
 2649TIP3    H129362   6.533   0.164   0.041  0.6572 -0.9424 -2.2893
 2649TIP3    H229363   6.583   0.301   0.079 -0.7223 -1.3840  1.4916
 2650TIP3   OH229364   1.376   5.343  17.031 -0.5063 -0.2122  0.4109
 2650TIP3    H129365   1.299   5.302  17.070  0.1054 -0.5054  1.3179
 2650TIP3    H229366   1.437   5.354  17.103  0.1909  0.3005 -0.2444
 2651TIP3   OH229367   6.133   1.049  12.638  0.2875 -0.2048  0.0842
 2651TIP3    H129368   6.153   0.963  12.602 -1.1132 -0.8196  0.6870
 2651TIP3    H229369   6.140   1.110  12.564  1.0438 -0.8725 -0.3974
 2652TIP3   OH229370   1.918   5.400  11.301  0.2946  0.1679  0.5797
 2652TIP3    H129371   1.960   5.478  11.263  1.3667 -1.2180 -1.2800
 2652TIP3    H229372   1.986   5.333  11.301 -1.0090 -1.2314  0.6046
 2653TIP3   OH229373   0.751   2.544   4.056  0.3680  0.6513  0.2791
 2653TIP3    H129374   0.685   2.477   4.076  0.1773  0.0911 -1.8813
 2653TIP3    H229375   0.701   2.625   4.048  0.3802  0.7834  1.4474
 2654TIP3   OH229376   0.697   2.370   0.310  0.4070  0.0762  0.5357
 2654TIP3    H129377   0.646   2.424   0.250 -0.0684 -0.5297  0.3786
 2654TIP3    H229378   0.694   2.282   0.271  1.2135 -0.0568  0.7495
 2655TIP3   OH229379   1.114   6.033  16.661 -0.1587  0.7069 -0.8373
 2655TIP3    H129380   1.128   5.942  16.686 -1.4206  1.2295  2.1942
 2655TIP3    H229381   1.060   6.029  16.583  1.1174 -1.1010 -1.7000
 2656TIP3   OH229382   3.031   0.013   3.198  0.4676  0.0343  0.2779
 2656TIP3    H129383   3.043  -0.051   3.268  2.0177  1.2750  1.2141
 2656TIP3    H229384   3.112   0.008   3.147  0.4170  0.9437  0.0976
 2657TIP3   OH229385   4.694   5.372   1.686  0.7248  0.0100 -0.0045
 2657TIP3    H129386   4.727   5.387   1.774  3.0824  0.9780 -0.9516
 2657TIP3    H229387   4.652   5.454   1.662 -0.8614 -0.6088  0.5490
 2658TIP3   OH229388   6.603   3.682   2.506 -0.1323 -0.5781 -0.3069
 2658TIP3    H129389   6.555   3.764   2.492  0.2686 -0.4405 -0.9181
 2658TIP3    H229390   6.669   3.681   2.437 -0.9501 -2.0227 -1.1293
 2659TIP3   OH229391   5.203   3.413   3.529 -0.1065 -0.2326 -0.3436
 2659TIP3    H129392   5.161   3.431   3.613  0.0466  1.0999 -0.5312
 2659TIP3    H229393   5.149   3.460   3.465 -0.4427 -1.5334 -1.0657
 2660TIP3   OH229394   4.131   2.319  17.335  0.2206  0.0335  0.2454
 2660TIP3    H129395   4.073   2.351  17.403  0.0182 -2.2817  1.2464
 2660TIP3    H229396   4.211   2.293  17.381  0.7378 -0.0214 -0.6440
 2661TIP3   OH229397   6.078   3.307  11.513  0.0705  0.2329  0.5548
 2661TIP3    H129398   5.992   3.346  11.527 -0.0933  1.1944 -2.3759
 2661TIP3    H229399   6.136   3.382  11.499  0.5846 -0.4307 -1.1602
 2662TIP3   OH229400   6.379   5.601   3.179 -0.0765 -0.4302  0.0114
 2662TIP3    H129401   6.329   5.645   3.110  1.2215  0.0912 -0.6446
 2662TIP3    H229402   6.456   5.566   3.134  1.2406  0.6623  1.3313
 2663TIP3   OH229403   6.454   1.974  13.118 -0.6797  0.0039 -0.3127
 2663TIP3    H129404   6.479   2.007  13.204  1.2811 -0.3808 -0.6793
 2663TIP3    H229405   6.375   1.922  13.134 -1.1448  1.0657  0.9968
 2664TIP3   OH229406   0.883   4.301  11.631  0.2889  0.1086  0.5791
 2664TIP3    H129407   0.853   4.290  11.541 -0.0817  0.4940  0.6533
 2664TIP3    H229408   0.952   4.367  11.625 -0.3821  0.8265  0.7015
 2665TIP3   OH229409   6.707   1.023   0.991  0.5906 -0.1095 -0.0484
 2665TIP3    H129410   6.627   0.981   1.021  1.0184 -1.3124 -0.5115
 2665TIP3    H229411   6.767   0.950   0.975  0.8459  0.5574 -2.4429
 2666TIP3   OH229412   1.316   6.475  12.208 -0.1477 -0.5030 -0.3763
 2666TIP3    H129413   1.325   6.554  12.261 -1.3371 -1.4220  1.3026
 2666TIP3    H229414   1.238   6.490  12.155 -1.1502 -1.0058  0.8931
 2667TIP3   OH229415   1.846   5.936  13.246  0.1780  0.2808  0.8373
 2667TIP3    H129416   1.841   6.024  13.209 -0.4346 -0.1204 -0.0830
 2667TIP3    H229417   1.883   5.883  13.176 -2.7675 -0.8757 -0.0231
 2668TIP3   OH229418   4.984   1.238  14.008 -0.3177  0.2535  0.2561
 2668TIP3    H129419   4.963   1.284  13.927 -0.0277  0.0055  0.0315
 2668TIP3    H229420   4.900   1.208  14.042 -0.2690 -2.4842 -1.6842
 2669TIP3   OH229421   2.326   5.718   3.005 -0.4404 -0.1081 -0.4321
 2669TIP3    H129422   2.402   5.776   3.016 -0.9242  0.4337  0.1459
 2669TIP3    H229423   2.325   5.664   3.084 -0.5656 -0.2105 -0.5041
 2670TIP3   OH229424   0.029   3.440  16.382 -0.3071  0.4024 -0.3837
 2670TIP3    H129425   0.106   3.484  16.347 -0.5838 -0.4144 -2.1006
 2670TIP3    H229426   0.005   3.491  16.459  2.2616  0.3493  0.5221
 2671TIP3   OH229427   5.805   6.710  14.537  0.1941  0.0379  0.4063
 2671TIP3    H129428   5.812   6.766  14.460 -0.1704  0.0606  0.3877
 2671TIP3    H229429   5.894   6.707  14.572 -0.0282  1.8187  1.2493
 2672TIP3   OH229430   1.842   1.698   0.343  0.2978 -0.1318  0.2607
 2672TIP3    H129431   1.879   1.748   0.415  0.1826 -0.2033  0.3714
 2672TIP3    H229432   1.787   1.632   0.386  0.1807 -0.1354  0.1047
 2673TIP3   OH229433   2.586   0.898  11.925  0.1452  0.4775  0.5908
 2673TIP3    H129434   2.549   0.840  11.858 -2.5110  0.1315  2.2109
 2673TIP3    H229435   2.653   0.948  11.879 -0.5182 -0.7794 -1.9346
 2674TIP3   OH229436   5.107   0.682   5.924 -0.3221 -0.7477 -0.1569
 2674TIP3    H129437   5.181   0.741   5.938 -0.4214 -0.9352  1.3702
 2674TIP3    H229438   5.072   0.708   5.839 -1.2456  2.4437  1.0321
 2675TIP3   OH229439   4.841   4.212   1.441 -0.3300  0.1375  0.3881
 2675TIP3    H129440   4.884   4.136   1.403  0.8260 -0.7693  3.2257
 2675TIP3    H229441   4.903   4.284   1.428 -1.9758  1.1157 -3.4810
 2676TIP3   OH229442   1.485   0.861   1.433 -0.1616 -0.0606  0.2886
 2676TIP3    H129443   1.410   0.905   1.473 -0.3942 -0.4142  0.2425
 2676TIP3    H229444   1.550   0.931   1.420 -0.8389  0.4264 -0.5524
 2677TIP3   OH229445   4.863   4.510  12.803 -0.2895 -0.0365  0.3393
 2677TIP3    H129446   4.878   4.544  12.892 -1.5227  0.9264  0.2031
 2677TIP3    H229447   4.892   4.419  12.808  1.2854  0.4540  1.2563
 2678TIP3   OH229448   4.766   5.364  16.553 -0.5790  0.2221 -0.1391
 2678TIP3    H129449   4.698   5.392  16.614 -0.6907  0.0568 -0.1878
 2678TIP3    H229450   4.742   5.275  16.529  0.4056 -0.3426  0.9057
 2679TIP3   OH229451   1.330   0.544   3.025 -0.1807  0.0963  0.5905
 2679TIP3    H129452   1.328   0.639   3.016 -0.4841  0.1483  1.1572
 2679TIP3    H229453   1.358   0.512   2.939 -0.6820  0.6674  0.2054
 2680TIP3   OH229454   3.036   3.327   0.051  0.1814 -0.8373 -0.5387
 2680TIP3    H129455   2.971   3.348   0.119  1.1019 -0.3871  0.2217
 2680TIP3    H229456   2.983   3.302  -0.025 -0.8955 -0.0405 -0.0855
 2681TIP3   OH229457   2.550   6.491   2.964  0.1854  0.1753 -0.5217
 2681TIP3    H129458   2.567   6.585   2.969  0.8818  0.0406 -0.3052
 2681TIP3    H229459   2.538   6.464   3.055 -0.2146  0.0852 -0.5977
 2682TIP3   OH229460   0.433   6.469  12.859 -0.5521  0.2032  0.1875
 2682TIP3    H129461   0.450   6.563  12.865 -1.4468  0.4489 -0.8415
 2682TIP3    H229462   0.432   6.440  12.951  2.6099  0.6020  0.4314
 2683TIP3   OH229463   4.087   3.021  11.213 -0.0992 -0.6945  0.3029
 2683TIP3    H129464   4.113   3.061  11.130  0.0900  0.8781  1.0929
 2683TIP3    H229465   4.111   2.929  11.203 -1.6749 -0.9461 -2.0430
 2684TIP3   OH229466   2.367   3.559   4.840 -0.1900 -0.4829  0.3242
 2684TIP3    H129467   2.374   3.652   4.819  0.8021 -0.4265  0.8380
 2684TIP3    H229468   2.274   3.538   4.827 -0.2259  0.3159 -0.8479
 2685TIP3   OH229469   1.756   5.586  11.452 -0.3299 -0.2138 -0.0855
 2685TIP3    H129470   1.839   5.628  11.430 -0.1134 -0.9221 -0.6452
 2685TIP3    H229471   1.765   5.496  11.420 -1.1921 -0.3816  0.1251
 2686TIP3   OH229472   5.596   5.980  12.767 -0.4394 -0.8430 -0.1594
 2686TIP3    H129473   5.503   5.983  12.786 -0.7543  2.3399 -1.5654
 2686TIP3    H229474   5.618   5.887  12.765 -3.0359 -1.6348  2.4467
 2687TIP3   OH229475   6.160   6.235   3.672 -0.5516 -0.1414  0.0974
 2687TIP3    H129476   6.213   6.309   3.701 -0.8501  0.6737 -1.3654
 2687TIP3    H229477   6.169   6.171   3.743  2.4578 -0.0897 -0.1022
 2688TIP3   OH229478   4.129   3.245  13.021 -0.2523  0.1790  0.5254
 2688TIP3    H129479   4.200   3.256  13.084  1.4178 -1.6346 -0.9232
 2688TIP3    H229480   4.103   3.153  13.030  0.4618 -0.3019 -1.7923
 2689TIP3   OH229481   0.303   1.925  15.365 -0.1339 -0.0166  0.2873
 2689TIP3    H129482   0.265   2.013  15.355  2.5490  1.7153  3.3734
 2689TIP3    H229483   0.233   1.872  15.402 -0.9961  1.7006  1.2413
 2690TIP3   OH229484   4.280   3.746  13.169  0.1421  0.3387 -0.1353
 2690TIP3    H129485   4.347   3.801  13.211 -0.4953 -0.8510  2.6655
 2690TIP3    H229486   4.327   3.703  13.098  1.9743  0.7136  0.7621
 2691TIP3   OH229487   6.180   3.471  14.272 -0.4935 -0.1883  0.2030
 2691TIP3    H129488   6.236   3.494  14.346  1.8453 -2.0118 -0.8782
 2691TIP3    H229489   6.217   3.521  14.199 -1.4482 -0.0433 -0.1891
 2692TIP3   OH229490   5.963   3.633   5.827  0.4538 -0.7401 -0.3591
 2692TIP3    H129491   5.918   3.550   5.847  0.3181 -0.4488  0.5949
 2692TIP3    H229492   5.908   3.700   5.868 -0.1865 -0.0206 -2.2719
 2693TIP3   OH229493   6.207   2.844   3.531 -0.1907  0.4247  0.0370
 2693TIP3    H129494   6.209   2.809   3.621  0.4568  0.3190 -0.0125
 2693TIP3    H229495   6.213   2.938   3.542  1.5771  0.3323  0.0592
 2694TIP3   OH229496   0.461   3.692   3.088  0.1477 -0.0404 -0.1366
 2694TIP3    H129497   0.392   3.759   3.088  0.4498  0.2694  0.0595
 2694TIP3    H229498   0.486   3.682   3.180  1.2191  0.7287 -0.3333
 2695TIP3   OH229499   3.992   4.697   5.173  0.9120 -0.2190  0.7814
 2695TIP3    H129500   3.994   4.769   5.236  1.1617 -0.0265  0.5619
 2695TIP3    H229501   4.026   4.736   5.092  0.1149 -0.3277  0.3875
 2696TIP3   OH229502   3.806   3.584  14.846  0.0880  0.0870 -0.4171
 2696TIP3    H129503   3.761   3.584  14.931 -0.2056  1.0028 -0.5662
 2696TIP3    H229504   3.833   3.493  14.834  0.2670 -0.0277  0.7305
 2697TIP3   OH229505   4.028   5.164   4.271 -0.3583  0.3111 -0.2261
 2697TIP3    H129506   4.092   5.096   4.292  0.5617  0.9819 -0.7682
 2697TIP3    H229507   4.005   5.202   4.356 -2.4938 -2.0177  0.3426
 2698TIP3   OH229508   0.220   6.079  12.507 -0.3395  0.2114  0.1599
 2698TIP3    H129509   0.213   6.023  12.584  0.6815 -0.0344  0.0855
 2698TIP3    H229510   0.313   6.077  12.484 -0.4016  1.3781 -0.2580
 2699TIP3   OH229511   6.460   0.665   1.114 -0.1489 -0.2227  0.0638
 2699TIP3    H129512   6.433   0.756   1.101  0.7243  0.1227  0.5797
 2699TIP3    H229513   6.533   0.652   1.054 -0.4034 -0.6463 -0.1548
 2700TIP3   OH229514   2.685   3.536   0.640  0.3172 -0.5166 -0.5358
 2700TIP3    H129515   2.621   3.516   0.572 -0.8178 -2.2880  0.9574
 2700TIP3    H229516   2.676   3.631   0.655 -0.1573 -0.2961 -2.0536
 2701TIP3   OH229517   3.237   4.812  16.206 -0.3404 -0.7023 -0.3218
 2701TIP3    H129518   3.178   4.778  16.138  0.6117 -0.8497 -1.0956
 2701TIP3    H229519   3.260   4.900  16.176  0.0340 -0.7417 -0.1544
 2702TIP3   OH229520   3.783   2.795   0.772  0.7665 -0.5053  0.1198
 2702TIP3    H129521   3.773   2.709   0.732  0.5058 -0.3259 -0.2041
 2702TIP3    H229522   3.869   2.792   0.814  1.1538 -0.6280 -0.6468
 2703TIP3   OH229523   3.822   3.367  12.716 -0.3484 -0.4647  0.2429
 2703TIP3    H129524   3.894   3.394  12.658 -0.3882  0.1341  0.4660
 2703TIP3    H229525   3.833   3.272  12.725 -0.3163 -0.5604 -0.7100
 2704TIP3   OH229526   3.173   5.225   0.808  0.2520 -0.1237 -0.0273
 2704TIP3    H129527   3.087   5.230   0.767  0.2941  2.5675  0.0147
 2704TIP3    H229528   3.200   5.317   0.817  1.9859 -0.7785  2.3347
 2705TIP3   OH229529   0.680   5.881   2.438  0.2839  0.1677 -0.1143
 2705TIP3    H129530   0.660   5.788   2.433 -0.7087  0.3724 -0.1894
 2705TIP3    H229531   0.738   5.897   2.363  1.2464 -0.5588  0.4527
 2706TIP3   OH229532   4.213   3.454  17.428  0.3424  0.2274 -0.7790
 2706TIP3    H129533   4.183   3.473  17.339  0.4042  0.8853 -0.6600
 2706TIP3    H229534   4.192   3.361  17.441  1.9111 -0.3576 -2.0951
 2707TIP3   OH229535   2.149   3.614   6.080  0.1832  0.1259  0.5836
 2707TIP3    H129536   2.215   3.558   6.120 -2.2448 -0.8742  3.6071
 2707TIP3    H229537   2.140   3.687   6.141 -1.3611  0.3117  0.1810
 2708TIP3   OH229538   0.341   2.532   0.848 -0.0776 -0.0216  0.0827
 2708TIP3    H129539   0.323   2.439   0.862  0.3044 -0.0749  0.2261
 2708TIP3    H229540   0.259   2.567   0.812  0.2107 -0.6759 -1.2364
 2709TIP3   OH229541   4.087   1.561  11.096  0.6995  0.3890  0.1488
 2709TIP3    H129542   4.132   1.479  11.077  0.5616  0.4074 -0.2579
 2709TIP3    H229543   4.156   1.619  11.130  0.7574  0.0389  0.6378
 2710TIP3   OH229544   5.380   6.056  15.288 -0.1773  0.2004 -0.5384
 2710TIP3    H129545   5.409   5.969  15.261 -0.5007  0.2498 -1.0519
 2710TIP3    H229546   5.392   6.110  15.211 -2.0638  0.1222 -0.9287
 2711TIP3   OH229547   4.793   0.946   2.503 -0.2154 -0.1395 -0.1114
 2711TIP3    H129548   4.880   0.952   2.464  0.3861  0.0407  1.2064
 2711TIP3    H229549   4.741   0.898   2.438  1.0796 -0.9898 -0.5618
 2712TIP3   OH229550   0.056   3.256  13.620  0.0052 -0.2173  0.1726
 2712TIP3    H129551   0.138   3.286  13.582 -0.5383 -0.1139 -0.9646
 2712TIP3    H229552  -0.000   3.237  13.544 -1.1558  0.1145  0.9253
 2713TIP3   OH229553   6.379   2.097   2.510  0.0293 -0.2416  0.5954
 2713TIP3    H129554   6.433   2.166   2.548 -0.1605 -0.4275  1.2300
 2713TIP3    H229555   6.290   2.121   2.533 -0.1988  0.2439 -0.7461
 2714TIP3   OH229556   1.223   0.668   0.221  0.1012  0.1899  0.3926
 2714TIP3    H129557   1.238   0.747   0.169 -1.3974 -0.5261 -1.2183
 2714TIP3    H229558   1.240   0.595   0.161 -1.1024 -0.6762  1.0536
 2715TIP3   OH229559   4.238   2.101   4.440 -0.3051 -0.3912  0.3235
 2715TIP3    H129560   4.308   2.041   4.466  0.4883  0.9321  1.3558
 2715TIP3    H229561   4.279   2.161   4.378 -1.3921 -1.5620 -1.6397
 2716TIP3   OH229562   5.288   0.785   1.015 -0.0363 -0.9874 -0.3744
 2716TIP3    H129563   5.290   0.753   1.106 -0.9917 -0.2398 -0.0810
 2716TIP3    H229564   5.203   0.827   1.006 -0.0021 -1.1655 -1.6727
 2717TIP3   OH229565   4.551   4.516  16.211 -0.1642 -0.1242 -0.3464
 2717TIP3    H129566   4.477   4.535  16.270  0.2897  3.1616 -0.6238
 2717TIP3    H229567   4.600   4.447  16.255 -1.0801  0.6224  2.0190
 2718TIP3   OH229568   5.053   3.417   5.374  0.3641  0.1025  0.1033
 2718TIP3    H129569   5.140   3.398   5.338  0.7021  2.5435 -0.5589
 2718TIP3    H229570   5.057   3.510   5.396 -3.2168  1.3255 -3.3625
 2719TIP3   OH229571   4.991   0.852  12.662 -0.2850 -0.0063 -0.2089
 2719TIP3    H129572   4.905   0.811  12.672  0.8730 -3.0725 -1.5321
 2719TIP3    H229573   4.976   0.926  12.602 -2.0707 -0.0630  0.1085
 2720TIP3   OH229574   1.555   6.185  16.372 -0.6688  0.0294  0.5091
 2720TIP3    H129575   1.578   6.234  16.451  2.2473 -0.2299 -0.0898
 2720TIP3    H229576   1.515   6.104  16.404 -0.5753  0.4340  1.6721
 2721TIP3   OH229577   1.387   2.612  16.506  0.1796  0.3920  0.4729
 2721TIP3    H129578   1.479   2.599  16.483 -0.3458 -0.5687 -1.2082
 2721TIP3    H229579   1.363   2.532  16.554 -0.5500 -0.8221 -1.7715
 2722TIP3   OH229580   0.709   4.316  11.830 -0.4889  0.0578  0.1843
 2722TIP3    H129581   0.634   4.276  11.786 -1.4857 -0.1836  2.0060
 2722TIP3    H229582   0.775   4.325  11.762 -1.1150 -2.4114 -0.8513
 2723TIP3   OH229583   3.339   0.273   3.507 -0.6767 -0.1166 -0.2803
 2723TIP3    H129584   3.319   0.182   3.484  0.5647 -0.6688  0.7125
 2723TIP3    H229585   3.300   0.325   3.436 -0.0454 -1.4999 -1.7023
 2724TIP3   OH229586   2.344   4.723  16.268  0.8643 -0.0509 -0.0022
 2724TIP3    H129587   2.370   4.814  16.282  1.3833 -0.1755 -0.1073
 2724TIP3    H229588   2.398   4.694  16.194 -1.6140  0.5271 -2.2055
 2725TIP3   OH229589   3.323   3.503   0.059 -0.4326 -0.1045  0.5925
 2725TIP3    H129590   3.354   3.542   0.141  4.4574  0.1648 -1.0370
 2725TIP3    H229591   3.316   3.410   0.078  0.0162  0.0391  1.5086
 2726TIP3   OH229592   3.643   5.300  16.283 -0.2220  0.3749 -0.3778
 2726TIP3    H129593   3.709   5.245  16.325  0.1382 -0.0850 -1.5018
 2726TIP3    H229594   3.690   5.341  16.210 -0.6253  1.7659  0.1185
 2727TIP3   OH229595   4.739   2.211  15.091  0.4878 -0.4385 -0.5023
 2727TIP3    H129596   4.832   2.189  15.093  0.4838 -0.4174  0.0607
 2727TIP3    H229597   4.716   2.229  15.183 -0.2924 -1.3459 -0.5070
 2728TIP3   OH229598   3.041   4.509   3.504  0.1303 -0.1754 -0.6418
 2728TIP3    H129599   2.981   4.561   3.452 -1.2164 -1.3837 -0.3691
 2728TIP3    H229600   2.985   4.457   3.562  1.4890 -0.4303  0.5190
 2729TIP3   OH229601   5.120   5.987   1.058  0.6039 -0.3691  0.4861
 2729TIP3    H129602   5.202   6.029   1.086  0.4250  0.2624  0.1012
 2729TIP3    H229603   5.148   5.908   1.011  0.9268 -1.0403  1.7698
 2730TIP3   OH229604   4.695   1.551   3.682  0.1210 -0.1860  0.1040
 2730TIP3    H129605   4.714   1.617   3.749  2.4138 -0.7662  0.1407
 2730TIP3    H229606   4.662   1.601   3.608  0.7018  0.8796  0.5357
 2731TIP3   OH229607   6.478   1.232   2.627  0.2687 -0.4900 -0.4997
 2731TIP3    H129608   6.548   1.282   2.586 -0.8429  0.1337 -1.7158
 2731TIP3    H229609   6.433   1.189   2.555 -1.1811 -0.1042  0.1292
 2732TIP3   OH229610   0.763   1.231  11.414 -0.1512 -0.0487 -0.0964
 2732TIP3    H129611   0.725   1.304  11.462  0.3377 -0.1853  0.5181
 2732TIP3    H229612   0.733   1.242  11.324  0.0854  1.0168 -0.0528
 2733TIP3   OH229613   5.881   1.147  17.561  0.1880 -0.3771 -0.2674
 2733TIP3    H129614   5.928   1.176  17.483  0.5383 -0.9603 -0.2840
 2733TIP3    H229615   5.796   1.191  17.556 -0.1753 -1.1603 -1.5029
 2734TIP3   OH229616   2.769   4.915  11.619 -0.0304  0.0812  0.0041
 2734TIP3    H129617   2.808   4.887  11.701  3.4278  2.6562 -0.5447
 2734TIP3    H229618   2.818   4.869  11.551  0.0155  1.1211 -0.6916
 2735TIP3   OH229619   0.757   2.418  12.538 -0.0027  0.4392  0.0985
 2735TIP3    H129620   0.796   2.449  12.457 -1.3365 -0.1361 -0.7878
 2735TIP3    H229621   0.683   2.477  12.554  0.8845  1.2236  1.4989
 2736TIP3   OH229622   6.419   2.417   5.815  0.1221 -0.2366 -0.2436
 2736TIP3    H129623   6.391   2.331   5.846  0.4024 -0.9022 -1.7153
 2736TIP3    H229624   6.506   2.429   5.852  0.9888 -1.5849 -1.7090
 2737TIP3   OH229625   5.392   5.674  13.916  0.5508  0.5028 -0.2340
 2737TIP3    H129626   5.471   5.659  13.968 -0.0269 -0.0035  0.5255
 2737TIP3    H229627   5.406   5.624  13.836 -0.2532 -2.2451  1.1840
 2738TIP3   OH229628   4.796   1.233   1.041 -0.2498  0.4081  0.1763
 2738TIP3    H129629   4.778   1.141   1.022 -3.0304  0.8394  0.4070
 2738TIP3    H229630   4.766   1.280   0.963  0.2372  1.2023  0.4594
 2739TIP3   OH229631   5.685   1.414   1.321  0.2817 -0.2410 -0.7350
 2739TIP3    H129632   5.727   1.358   1.386  0.8034  0.3494 -0.5502
 2739TIP3    H229633   5.731   1.394   1.240  0.7710  0.2299 -0.5807
 2740TIP3   OH229634   4.885   4.620   4.332 -0.7746  0.0323  0.1530
 2740TIP3    H129635   4.847   4.534   4.314  0.3513 -0.5974  0.7111
 2740TIP3    H229636   4.846   4.677   4.267 -1.6165 -0.8786 -0.1666
 2741TIP3   OH229637   5.978   5.455  12.240  0.2994 -0.2523  0.2218
 2741TIP3    H129638   5.893   5.479  12.277  1.7752  0.3808  3.5458
 2741TIP3    H229639   5.995   5.367  12.274  1.6157  0.2417  0.9071
 2742TIP3   OH229640   2.264   4.720   3.871 -0.1375  0.1070  0.2218
 2742TIP3    H129641   2.343   4.671   3.848  0.0059  0.1179  0.6902
 2742TIP3    H229642   2.295   4.806   3.898 -0.3101  0.1208  0.3814
 2743TIP3   OH229643   5.039   3.754   1.057 -0.1245  0.1622 -0.4788
 2743TIP3    H129644   4.949   3.768   1.028 -0.2494 -0.1309 -0.2406
 2743TIP3    H229645   5.064   3.669   1.021 -0.1542 -0.0342 -0.0511
 2744TIP3   OH229646   3.233   3.122  12.123  0.0054  0.4415  0.5991
 2744TIP3    H129647   3.175   3.066  12.174 -1.0112  1.3328  0.4553
 2744TIP3    H229648   3.186   3.136  12.040  1.9824 -1.6908 -1.0122
 2745TIP3   OH229649   5.067   2.866  13.354 -0.4613  0.2245  0.2918
 2745TIP3    H129650   5.122   2.929  13.400 -0.9944  0.4375  0.6366
 2745TIP3    H229651   5.110   2.856  13.268 -0.4272  1.1226  0.1980
 2746TIP3   OH229652   5.450   0.193  13.355  0.5748  0.3404 -0.0734
 2746TIP3    H129653   5.512   0.127  13.324 -0.3458 -1.5451  1.8074
 2746TIP3    H229654   5.369   0.143  13.371 -1.4914  2.6536 -2.3084
 2747TIP3   OH229655   5.220   2.933   1.110  0.5208 -0.2928 -0.1842
 2747TIP3    H129656   5.151   2.868   1.118  0.4083 -0.1655 -0.1090
 2747TIP3    H229657   5.268   2.908   1.031 -1.4188  1.3158 -1.9997
 2748TIP3   OH229658   3.377   3.823   1.114 -0.6115  0.0511 -0.1909
 2748TIP3    H129659   3.424   3.744   1.140  0.1953  0.3260 -0.7640
 2748TIP3    H229660   3.397   3.887   1.183  1.3716  0.7215 -1.3028
 2749TIP3   OH229661   1.674   0.595   4.199 -0.0408 -1.0996  0.0938
 2749TIP3    H129662   1.615   0.641   4.139  1.4259 -0.9746 -1.3261
 2749TIP3    H229663   1.672   0.647   4.280 -0.9127 -0.4003 -0.3616
 2750TIP3   OH229664   6.222   3.483  15.388  0.8006  0.4097 -0.7363
 2750TIP3    H129665   6.314   3.502  15.367  1.1451 -1.0249 -0.6306
 2750TIP3    H229666   6.197   3.413  15.327 -0.4604  1.2745 -1.2524
 2751TIP3   OH229667   4.819   1.424   4.409  0.3331  0.0714  0.1779
 2751TIP3    H129668   4.812   1.354   4.474 -0.5479 -0.5021 -0.5175
 2751TIP3    H229669   4.897   1.473   4.435 -0.1616  0.0450  1.8462
 2752TIP3   OH229670   5.848   6.366  16.097 -0.6131 -0.0156 -0.7026
 2752TIP3    H129671   5.854   6.343  16.190 -0.1783  0.4610 -0.6089
 2752TIP3    H229672   5.874   6.458  16.094  1.2410 -0.5269 -1.5347
 2753TIP3   OH229673   3.641   3.340   4.845 -0.4097 -0.1004  0.2670
 2753TIP3    H129674   3.636   3.429   4.880 -0.8044 -0.6145  1.6034
 2753TIP3    H229675   3.584   3.289   4.902 -2.8334 -0.6548 -2.4324
 2754TIP3   OH229676   3.178   2.841   5.261  0.1502  0.5991 -0.3867
 2754TIP3    H129677   3.103   2.842   5.202 -1.4300 -1.3916  1.4190
 2754TIP3    H229678   3.212   2.751   5.255 -0.3197  0.1921  1.9266
 2755TIP3   OH229679   0.988   6.059   3.056  0.1484  0.1972 -0.3228
 2755TIP3    H129680   1.030   6.037   3.139 -0.9611 -1.5369 -0.1656
 2755TIP3    H229681   0.969   5.974   3.016 -2.1370  0.9060 -0.8803
 2756TIP3   OH229682   4.060   2.281  15.804  0.1032  0.0375 -0.3703
 2756TIP3    H129683   4.133   2.285  15.742  0.4517 -2.6085 -0.2383
 2756TIP3    H229684   4.102   2.264  15.888 -0.5982 -1.3985 -0.2737
 2757TIP3   OH229685   4.955   1.508  13.869  0.2655 -0.3585  0.3120
 2757TIP3    H129686   5.025   1.555  13.823  0.3646 -0.4975  0.3204
 2757TIP3    H229687   4.942   1.557  13.950 -0.4262  0.3243 -0.1995
 2758TIP3   OH229688   1.726   0.458  15.895  0.0493  0.2373 -0.9369
 2758TIP3    H129689   1.731   0.529  15.831  0.6207  2.0334  0.9750
 2758TIP3    H229690   1.633   0.447  15.912 -0.0151  1.2147 -0.5834
 2759TIP3   OH229691   0.989   5.455   1.254  0.0354 -0.5400  0.1310
 2759TIP3    H129692   0.978   5.431   1.346  1.5853  0.4776  0.6249
 2759TIP3    H229693   1.014   5.373   1.211 -0.8277 -1.0531  0.5704
 2760TIP3   OH229694   3.876   5.734  11.628  0.0221  0.4802 -0.4873
 2760TIP3    H129695   3.859   5.710  11.538  0.2064 -0.2889 -0.3261
 2760TIP3    H229696   3.804   5.695  11.678  0.6203 -0.2304 -0.1579
 2761TIP3   OH229697   6.561   4.438   3.445 -0.3013 -0.0026 -0.5017
 2761TIP3    H129698   6.646   4.482   3.452  0.4114 -1.4415  0.2598
 2761TIP3    H229699   6.550   4.423   3.351  0.0862  0.5617 -0.6422
 2762TIP3   OH229700   3.283   2.060  12.408 -0.7913  0.2147 -0.8790
 2762TIP3    H129701   3.338   2.137  12.393 -1.0319  0.4119 -0.7504
 2762TIP3    H229702   3.322   2.017  12.484 -1.3246  0.8272 -0.2466
 2763TIP3   OH229703   5.062   0.163  15.785 -0.0735  0.0656 -0.1937
 2763TIP3    H129704   5.058   0.164  15.689 -1.8407  0.8988 -0.1649
 2763TIP3    H229705   4.972   0.180  15.812  0.5423  0.6751  1.6170
 2764TIP3   OH229706   0.087   1.138   1.594 -0.3412  0.3710 -0.5861
 2764TIP3    H129707   0.005   1.120   1.640  0.8119  1.7731  2.1867
 2764TIP3    H229708   0.063   1.133   1.501 -2.7910 -2.6154  0.0161
 2765TIP3   OH229709   3.205   3.033  13.879 -0.2569  0.0805 -0.2295
 2765TIP3    H129710   3.260   3.089  13.823 -0.0178 -0.1466 -0.2243
 2765TIP3    H229711   3.207   2.947  13.836 -1.2684  0.2684 -0.6728
 2766TIP3   OH229712   3.076   0.056  15.275  0.4650  0.2420 -0.1910
 2766TIP3    H129713   3.171   0.039  15.276  1.1527  2.6941  4.2421
 2766TIP3    H229714   3.037  -0.027  15.303  1.5324 -0.1578  0.1677
 2767TIP3   OH229715   5.059   4.445   2.928  0.5377  0.0468  0.5314
 2767TIP3    H129716   5.072   4.515   2.864  0.5039  0.1454  0.6310
 2767TIP3    H229717   4.981   4.473   2.977 -0.5341 -0.8912 -0.5528
 2768TIP3   OH229718   4.275   4.777   2.576  0.9275  0.1730 -0.1390
 2768TIP3    H129719   4.202   4.828   2.540  0.4391  0.2287  0.9062
 2768TIP3    H229720   4.235   4.716   2.637  1.8584  1.2907  1.7019
 2769TIP3   OH229721   0.557   3.272  15.701 -0.6691 -0.0341  0.3781
 2769TIP3    H129722   0.538   3.356  15.659 -0.9613 -0.4038 -0.2583
 2769TIP3    H229723   0.489   3.213  15.667 -0.9341 -0.3428  1.4096
 2770TIP3   OH229724   4.142   4.492  13.185  0.1644  0.3228 -0.2290
 2770TIP3    H129725   4.177   4.470  13.272  4.3370  1.7007 -1.3180
 2770TIP3    H229726   4.159   4.414  13.132 -0.2945  0.2802 -0.3117
 2771TIP3   OH229727   3.566   4.586  14.498 -0.0595 -0.2243  0.6083
 2771TIP3    H129728   3.599   4.565  14.585 -0.0193 -1.4736  0.2989
 2771TIP3    H229729   3.493   4.647  14.514  0.6609  0.4553  1.4342
 2772TIP3   OH229730   4.058   5.250   1.206 -0.1225  0.0110 -0.2845
 2772TIP3    H129731   4.123   5.245   1.137 -0.1760  0.3107 -0.3580
 2772TIP3    H229732   4.087   5.187   1.272  0.9214  1.0341  0.2600
 2773TIP3   OH229733   3.778   5.869  15.702  0.2920  0.0693 -0.2495
 2773TIP3    H129734   3.838   5.931  15.660  0.3592 -0.5043 -1.0393
 2773TIP3    H229735   3.783   5.889  15.795  0.1803  1.3563 -0.5049
 2774TIP3   OH229736   5.260   5.283   3.912  0.9398 -0.0840 -0.1401
 2774TIP3    H129737   5.294   5.343   3.846  2.6908  0.0576  0.8189
 2774TIP3    H229738   5.223   5.341   3.980 -1.0172 -0.2303 -1.0165
 2775TIP3   OH229739   2.096   2.718  17.581 -0.1043 -0.5096 -0.2081
 2775TIP3    H129740   2.133   2.770  17.653  0.7315  1.5777 -2.0550
 2775TIP3    H229741   2.088   2.779  17.508  0.3499 -2.8500 -2.3456
 2776TIP3   OH229742   3.969   0.655   1.250  0.3537 -0.1689 -0.0018
 2776TIP3    H129743   4.031   0.629   1.318 -0.4383  0.8926  1.1572
 2776TIP3    H229744   4.024   0.679   1.176  1.3141  0.1475  0.7856
 2777TIP3   OH229745   2.603   1.755  16.703 -0.4821  0.3057 -0.0827
 2777TIP3    H129746   2.513   1.739  16.732 -0.3455 -0.1099  0.1276
 2777TIP3    H229747   2.632   1.670  16.668 -0.2812  0.5240 -0.4474
 2778TIP3   OH229748   1.403   3.018  15.057  0.2336 -0.2550 -0.4830
 2778TIP3    H129749   1.466   2.966  15.106 -0.6481 -0.5649  0.3476
 2778TIP3    H229750   1.396   2.974  14.972  0.2705 -0.8879 -0.1629
 2779TIP3   OH229751   2.196   2.234  12.061 -0.4101 -0.1410  0.0372
 2779TIP3    H129752   2.237   2.320  12.058 -0.3565 -0.1900 -1.0846
 2779TIP3    H229753   2.104   2.252  12.078 -0.0501 -0.0062  2.0885
 2780TIP3   OH229754   1.899   0.094  14.341 -0.0768  0.0061  0.1088
 2780TIP3    H129755   1.885   0.089  14.435 -2.3912  0.1118 -0.1651
 2780TIP3    H229756   1.935   0.009  14.317  2.8860  0.7733  1.3369
 2781TIP3   OH229757   1.368   1.018   4.738  0.3993  0.5224  0.2522
 2781TIP3    H129758   1.309   1.016   4.662  1.0443  0.3953 -0.2525
 2781TIP3    H229759   1.387   0.926   4.755  0.2640  0.5511  0.5712
 2782TIP3   OH229760   2.259   3.905   6.649  0.2042 -0.5827 -0.2940
 2782TIP3    H129761   2.230   3.952   6.571 -0.3543 -2.2348 -1.1362
 2782TIP3    H229762   2.228   3.815   6.636 -0.9727 -0.6697  2.4041
 2783TIP3   OH229763   0.848   5.388  11.136 -0.3413 -0.6348  0.2310
 2783TIP3    H129764   0.839   5.434  11.220 -0.9569 -0.1939 -0.0691
 2783TIP3    H229765   0.798   5.307  11.149 -1.6317  0.0621 -0.1476
 2784TIP3   OH229766   0.913   1.136   0.664 -0.0389  0.0123 -0.2585
 2784TIP3    H129767   0.951   1.191   0.596  2.0791  0.4133  1.1348
 2784TIP3    H229768   0.819   1.138   0.648  0.3561  0.4334 -2.8622
 2785TIP3   OH229769   6.649   1.048   5.026 -0.2654 -0.1007  0.4581
 2785TIP3    H129770   6.717   1.107   5.058  0.0432 -1.1737  1.8733
 2785TIP3    H229771   6.674   0.962   5.058 -2.2538 -0.5418  0.9704
 2786TIP3   OH229772   5.096   4.006   1.031  0.0507  0.2355  0.1877
 2786TIP3    H129773   5.184   4.039   1.046  0.1199  0.7662 -1.2372
 2786TIP3    H229774   5.109   3.914   1.008  0.3223  0.5357 -0.8936
 2787TIP3   OH229775   6.377   3.365   2.730  0.4917  1.0682 -0.0110
 2787TIP3    H129776   6.428   3.339   2.653  1.2155 -0.1050  0.8174
 2787TIP3    H229777   6.301   3.307   2.729  0.9154  0.4877  0.5768
 2788TIP3   OH229778   6.376   1.727  14.789  0.3652  0.2003  0.1472
 2788TIP3    H129779   6.430   1.670  14.843 -0.3946 -0.1939  0.5041
 2788TIP3    H229780   6.290   1.726  14.830 -0.2925 -0.2741 -1.1742
 2789TIP3   OH229781   6.071   0.456   1.584 -0.1267 -0.6778 -0.2083
 2789TIP3    H129782   6.161   0.482   1.565 -0.7685  1.4137 -0.6689
 2789TIP3    H229783   6.065   0.458   1.680  0.1532 -0.2310 -0.1979
 2790TIP3   OH229784   6.317   4.496  12.521 -0.1988  0.2770  0.3345
 2790TIP3    H129785   6.365   4.455  12.449 -1.7994  1.1817 -1.3485
 2790TIP3    H229786   6.379   4.497  12.594  2.1013  0.8056 -1.4900
 2791TIP3   OH229787   3.635   0.058  17.010 -0.5968  0.6752 -0.3858
 2791TIP3    H129788   3.606   0.112  16.936  0.6703  0.2840 -1.1878
 2791TIP3    H229789   3.624  -0.032  16.980 -1.9599  0.4568  0.6630
 2792TIP3   OH229790   5.016   2.429   5.012 -0.4096 -0.5606 -0.2808
 2792TIP3    H129791   5.031   2.383   5.095  0.9612 -0.2600 -0.3432
 2792TIP3    H229792   5.100   2.425   4.967 -0.5418  1.1552 -0.7235
 2793TIP3   OH229793   4.883   1.098  11.736  0.2443  0.3714 -0.3293
 2793TIP3    H129794   4.824   1.072  11.665 -2.1038  0.5981  1.4373
 2793TIP3    H229795   4.868   1.032  11.804  0.3520  1.6956  1.0189
 2794TIP3   OH229796   1.156   0.507   1.460 -0.0772 -0.2298  1.1587
 2794TIP3    H129797   1.141   0.413   1.474 -0.0115 -0.3281  0.5889
 2794TIP3    H229798   1.124   0.523   1.371  1.8202 -0.1425  0.4510
 2795TIP3   OH229799   0.060   4.892   1.921 -1.1556  0.2569 -0.5785
 2795TIP3    H129800   0.097   4.839   1.992 -0.4165  0.9457 -0.4320
 2795TIP3    H229801   0.050   4.979   1.959 -0.6225  0.6653 -1.3560
 2796TIP3   OH229802   3.072   6.035  17.184 -0.0831 -0.0434 -0.0702
 2796TIP3    H129803   3.165   6.024  17.204  0.2561  1.4849 -0.6906
 2796TIP3    H229804   3.035   5.948  17.196  2.0946 -1.6265 -3.2538
 2797TIP3   OH229805   1.384   2.986  16.026 -0.3756  1.1354 -0.2143
 2797TIP3    H129806   1.465   3.005  15.980  0.5584 -0.5629  0.6004
 2797TIP3    H229807   1.376   3.055  16.091  0.9958  0.7801  0.3685
 2798TIP3   OH229808   5.163   6.331   1.253  0.0251  0.4498 -0.0896
 2798TIP3    H129809   5.237   6.273   1.269 -0.9148 -0.7270  0.2103
 2798TIP3    H229810   5.091   6.272   1.231 -0.9028  1.5285 -0.0479
 2799TIP3   OH229811   3.621   0.669   2.889  0.3078 -0.5397 -0.2266
 2799TIP3    H129812   3.656   0.628   2.967 -1.0202 -1.9335 -0.3069
 2799TIP3    H229813   3.529   0.643   2.887  0.0899  0.1989 -1.7798
 2800TIP3   OH229814   2.366   3.835  13.991 -0.0504  0.5988 -0.1220
 2800TIP3    H129815   2.377   3.774  14.063 -2.5014  1.1156  0.7913
 2800TIP3    H229816   2.381   3.782  13.912  3.3804  0.1794  0.6330
 2801TIP3   OH229817   3.036   2.039  13.509 -0.4294 -0.4188  0.1076
 2801TIP3    H129818   2.991   2.007  13.587  2.0506 -0.8619  1.4649
 2801TIP3    H229819   2.966   2.060  13.447 -2.4699 -0.5170  2.2638
 2802TIP3   OH229820   5.832   1.696   1.240  0.0670  0.0714  0.0882
 2802TIP3    H129821   5.774   1.757   1.286  0.0335  0.5247 -0.5365
 2802TIP3    H229822   5.773   1.630   1.204 -0.2210  1.0697 -1.3937
 2803TIP3   OH229823   0.509   3.165   1.182  0.5234  0.3852  0.4087
 2803TIP3    H129824   0.481   3.226   1.250  2.3894  1.7365  0.0460
 2803TIP3    H229825   0.535   3.086   1.230 -3.2588 -0.8356  0.7866
 2804TIP3   OH229826   3.631   3.836   3.440  0.3608  0.3222  0.4858
 2804TIP3    H129827   3.601   3.897   3.507  1.7673  0.1149  1.3426
 2804TIP3    H229828   3.553   3.819   3.386 -1.0966 -0.2731  2.6482
 2805TIP3   OH229829   0.547   4.899  11.238  0.2312 -0.2995 -0.1452
 2805TIP3    H129830   0.639   4.873  11.232  1.0203  2.2755 -0.8212
 2805TIP3    H229831   0.525   4.892  11.330  1.7351  0.7964  0.3358
 2806TIP3   OH229832   5.602   3.134  14.835 -0.3221 -0.6278  0.0255
 2806TIP3    H129833   5.666   3.066  14.851 -0.1801 -0.1325  1.6843
 2806TIP3    H229834   5.550   3.101  14.762  1.2498 -1.4178 -0.7849
 2807TIP3   OH229835   5.824   5.604   3.618  0.0796 -1.0054 -0.0733
 2807TIP3    H129836   5.796   5.523   3.661 -1.6250 -2.4589 -3.5180
 2807TIP3    H229837   5.743   5.649   3.596  0.9995  1.9390  2.0139
 2808TIP3   OH229838   2.911   4.240   3.452 -0.4983 -0.4433 -0.4855
 2808TIP3    H129839   2.858   4.194   3.386  0.5082 -1.4256 -0.6381
 2808TIP3    H229840   2.912   4.331   3.422 -0.7240 -0.7231 -1.3844
 2809TIP3   OH229841   3.900   4.521   4.135  0.2599  0.3987 -0.2515
 2809TIP3    H129842   3.835   4.497   4.201  1.0370  0.6384  0.6159
 2809TIP3    H229843   3.976   4.466   4.155  0.5145  0.4958 -0.9339
 2810TIP3   OH229844   2.123   2.147  15.956 -0.1285 -0.3316  0.3783
 2810TIP3    H129845   2.151   2.113  16.041 -1.2102  0.3866  1.0446
 2810TIP3    H229846   2.135   2.074  15.895  2.2050 -0.3745  0.8005
 2811TIP3   OH229847   2.759   4.584   5.542 -0.2186 -0.2254  0.2244
 2811TIP3    H129848   2.729   4.501   5.579  4.0393 -1.4528  1.5118
 2811TIP3    H229849   2.779   4.564   5.451 -1.2557  0.0389 -0.0719
 2812TIP3   OH229850   1.146   2.146  17.289  0.3180 -0.6880  0.1554
 2812TIP3    H129851   1.144   2.236  17.258 -0.8182 -0.8092 -0.1457
 2812TIP3    H229852   1.188   2.097  17.218  1.7825 -0.2827  0.6946
 2813TIP3   OH229853   4.974   4.659   2.723 -0.1046 -0.0506  0.7627
 2813TIP3    H129854   4.901   4.719   2.705 -0.0705 -0.2632 -0.1348
 2813TIP3    H229855   5.051   4.706   2.692 -0.0927 -0.5925 -0.0639
 2814TIP3   OH229856   1.571   4.847  10.919 -0.0355 -0.1878 -0.8372
 2814TIP3    H129857   1.634   4.826  10.989 -0.9660 -0.8466 -0.1710
 2814TIP3    H229858   1.532   4.930  10.947 -0.4139 -0.4556 -0.5543
 2815TIP3   OH229859   1.963   2.829   4.412 -0.4969  0.1392 -0.0598
 2815TIP3    H129860   2.016   2.755   4.442 -1.0931 -0.3977 -0.3030
 2815TIP3    H229861   2.026   2.900   4.397  0.0832 -0.3269  0.1412
 2816TIP3   OH229862   3.849   3.160   3.966 -0.5759  0.0949 -0.0613
 2816TIP3    H129863   3.787   3.232   3.958  0.6340  1.0923 -0.8750
 2816TIP3    H229864   3.923   3.185   3.910  0.6578 -0.9506  1.0165
 2817TIP3   OH229865   2.876   1.780   0.501  0.5047 -0.8277 -0.2014
 2817TIP3    H129866   2.868   1.684   0.499 -0.1355 -0.7844 -1.9357
 2817TIP3    H229867   2.905   1.802   0.412  1.0521  0.5754  0.3026
 2818TIP3   OH229868   1.979   3.008   4.986  0.0039  0.1959  0.1450
 2818TIP3    H129869   1.912   3.000   4.917 -0.8684 -2.3157  1.1576
 2818TIP3    H229870   1.954   2.943   5.051  1.5311  1.5955  2.2675
 2819TIP3   OH229871   0.820   6.607   4.711 -0.0895 -0.4986  0.0129
 2819TIP3    H129872   0.733   6.629   4.743  0.5182  0.3420  1.1291
 2819TIP3    H229873   0.870   6.688   4.718  0.5729 -0.7514 -1.4067
 2820TIP3   OH229874   4.398   2.327  14.770 -0.4299 -0.0322  0.3730
 2820TIP3    H129875   4.328   2.307  14.831  1.0283 -1.2738  1.7313
 2820TIP3    H229876   4.409   2.248  14.718  0.4025 -0.1016  0.6413
 2821TIP3   OH229877   0.333   6.332   3.162 -0.1916 -0.6194  0.1304
 2821TIP3    H129878   0.330   6.308   3.255 -0.4008 -0.0943  0.2615
 2821TIP3    H229879   0.421   6.367   3.150  0.0286 -1.2072 -0.0037
 2822TIP3   OH229880   2.010   0.865   4.271  0.2298 -0.4164 -0.1453
 2822TIP3    H129881   2.038   0.909   4.191 -1.7846  1.3366 -0.0040
 2822TIP3    H229882   2.005   0.936   4.336 -0.1831 -1.4233  0.9632
 2823TIP3   OH229883   3.988   2.178  11.078  0.2220  0.3820  0.4203
 2823TIP3    H129884   4.056   2.229  11.033 -0.1581 -0.2290 -0.9181
 2823TIP3    H229885   3.906   2.205  11.035 -0.1171 -0.4720  0.5217
 2824TIP3   OH229886   5.131   6.202   3.784  0.6604 -0.0427  0.2203
 2824TIP3    H129887   5.183   6.281   3.798  3.2550 -1.3227 -1.3761
 2824TIP3    H229888   5.124   6.163   3.871  0.0217  1.5116  0.9014
 2825TIP3   OH229889   4.815   3.541  14.611 -0.1550 -0.1953  0.4282
 2825TIP3    H129890   4.876   3.469  14.630 -0.7979 -1.2618 -1.3326
 2825TIP3    H229891   4.871   3.611  14.579  0.1746 -1.3971 -1.8121
 2826TIP3   OH229892   3.126   5.934   6.076  0.1928  0.2866 -0.2288
 2826TIP3    H129893   3.059   5.999   6.097  0.9018  0.9940 -0.0870
 2826TIP3    H229894   3.199   5.954   6.135 -0.4146 -2.1213  1.4948
 2827TIP3   OH229895   3.487   1.909   1.698 -0.0515 -0.2226  0.3028
 2827TIP3    H129896   3.418   1.972   1.680 -0.4757 -0.3450  1.4306
 2827TIP3    H229897   3.452   1.855   1.768  0.8487 -0.8515  0.2829
 2828TIP3   OH229898   3.541   0.048   3.096  0.0950 -0.1062  0.2248
 2828TIP3    H129899   3.517   0.101   3.020 -0.3781 -0.6442 -0.0161
 2828TIP3    H229900   3.531  -0.043   3.065  0.9638 -0.3382  0.5978
 2829TIP3   OH229901   2.354   5.705   0.561  0.2426  0.2949  0.0245
 2829TIP3    H129902   2.336   5.664   0.646  0.8173  1.5327  0.7772
 2829TIP3    H229903   2.446   5.683   0.543 -0.2259 -0.9871 -0.8870
 2830TIP3   OH229904   3.458   5.356   5.837 -0.5785 -0.6950 -0.1966
 2830TIP3    H129905   3.478   5.296   5.909  0.2547 -0.9684 -0.6499
 2830TIP3    H229906   3.464   5.302   5.758  0.5039  0.0462 -0.6440
 2831TIP3   OH229907   1.971   4.763  15.689  0.0754 -0.7838  0.9072
 2831TIP3    H129908   1.944   4.846  15.728 -0.8931 -1.0820  0.9027
 2831TIP3    H229909   2.066   4.770  15.680  0.0680  0.0988  1.4218
 2832TIP3   OH229910   0.958   3.236  11.835  0.3281  0.1085 -0.4587
 2832TIP3    H129911   0.917   3.219  11.750  0.7452 -1.8226 -0.3074
 2832TIP3    H229912   1.001   3.321  11.824  1.4847 -0.6810 -2.6388
 2833TIP3   OH229913   6.130   0.290   1.003  1.0946  0.3033  0.1961
 2833TIP3    H129914   6.207   0.293   0.946  0.1133 -1.0081 -1.2619
 2833TIP3    H229915   6.056   0.285   0.943 -0.1882  1.7964  1.5661
 2834TIP3   OH229916   0.793   0.733   4.131  0.0952  0.5362 -0.0422
 2834TIP3    H129917   0.829   0.770   4.212 -0.3436  1.6931 -0.3519
 2834TIP3    H229918   0.785   0.639   4.149 -1.0261  0.9097  1.6838
 2835TIP3   OH229919   1.052   1.909   3.779  0.4636  0.9423  0.4881
 2835TIP3    H129920   1.062   2.000   3.749  1.6068 -0.1382 -2.9099
 2835TIP3    H229921   0.974   1.911   3.834  0.2925  3.9410  0.3211
 2836TIP3   OH229922   5.749   0.430  14.540  0.0211  0.5311  0.0583
 2836TIP3    H129923   5.725   0.347  14.498 -0.8021  1.2331 -0.9114
 2836TIP3    H229924   5.742   0.495  14.470 -0.6305  1.6232  1.1009
 2837TIP3   OH229925   1.239   5.539   3.484  0.3188  0.2370 -0.0567
 2837TIP3    H129926   1.303   5.488   3.433 -0.1627 -0.6406  0.1947
 2837TIP3    H229927   1.206   5.477   3.549 -1.0445  0.5791 -0.3973
 2838TIP3   OH229928   1.882   1.594   4.785 -0.3760 -0.9027 -0.4097
 2838TIP3    H129929   1.809   1.533   4.782  0.0150 -1.3621 -0.7494
 2838TIP3    H229930   1.960   1.540   4.768 -0.0609 -0.2548 -1.1220
 2839TIP3   OH229931   0.089   5.211  13.991 -0.1724  0.1303 -0.0181
 2839TIP3    H129932   0.038   5.133  14.014  0.2647 -0.4951 -1.0737
 2839TIP3    H229933   0.118   5.195  13.901  0.3686  1.2844 -0.0715
 2840TIP3   OH229934   0.105   2.554   5.095  0.4318  0.3745 -0.1990
 2840TIP3    H129935   0.087   2.543   5.188  0.5273 -0.1003 -0.2303
 2840TIP3    H229936   0.020   2.538   5.053  0.2515  1.2101 -0.1557
 2841TIP3   OH229937   3.629   0.937  14.346  0.2971 -0.1795 -0.4624
 2841TIP3    H129938   3.707   0.932  14.401 -0.8970 -0.3974  1.3434
 2841TIP3    H229939   3.558   0.959  14.408 -1.2100 -0.8805 -1.8564
 2842TIP3   OH229940   1.582   3.084   2.162 -0.2911  0.2755 -0.3935
 2842TIP3    H129941   1.646   3.018   2.137  0.6985  0.7139  0.8791
 2842TIP3    H229942   1.585   3.149   2.092  0.1528 -0.0614 -0.6857
 2843TIP3   OH229943   2.871   0.188  14.378  0.3470  0.8085  0.2202
 2843TIP3    H129944   2.804   0.145  14.431  1.9588 -0.8566  1.0032
 2843TIP3    H229945   2.865   0.145  14.292  1.7804 -0.9040  0.9239
 2844TIP3   OH229946   6.100   5.506   0.635  0.5558 -0.2140  0.2134
 2844TIP3    H129947   6.016   5.462   0.647 -1.4944  3.2242 -0.1638
 2844TIP3    H229948   6.117   5.499   0.541  0.4152 -0.4572  0.2039
 2845TIP3   OH229949   5.557   6.188   2.475  0.3503 -0.4592 -0.2323
 2845TIP3    H129950   5.485   6.162   2.417  0.3074 -1.0642  0.0893
 2845TIP3    H229951   5.544   6.282   2.488  1.2595  0.0581 -2.4752
 2846TIP3   OH229952   4.553   2.920   1.775  0.0070  0.4633  0.2948
 2846TIP3    H129953   4.522   3.003   1.810  1.0766  0.9950  0.0321
 2846TIP3    H229954   4.593   2.876   1.850 -4.0933 -1.7107  1.4802
 2847TIP3   OH229955   0.353   0.865  14.679 -0.6195  0.1119  0.0706
 2847TIP3    H129956   0.433   0.843  14.632  0.2389  0.5401  1.2869
 2847TIP3    H229957   0.316   0.780  14.704  0.2607 -0.0647  0.8075
 2848TIP3   OH229958   3.678   0.290  12.861 -0.2954 -0.1680 -0.5508
 2848TIP3    H129959   3.584   0.304  12.854 -0.2884 -0.1841 -0.6886
 2848TIP3    H229960   3.714   0.377  12.881 -0.3074 -0.0912 -0.8451
 2849TIP3   OH229961   3.967   3.169  10.981 -0.5079  0.0351  0.1526
 2849TIP3    H129962   4.025   3.177  10.905 -1.7118  1.6099 -0.6746
 2849TIP3    H229963   3.956   3.075  10.993  1.3810 -0.2825 -0.2888
 2850TIP3   OH229964   0.038   0.815   5.747 -0.6022 -0.1909 -0.4920
 2850TIP3    H129965   0.004   0.883   5.689 -1.2611  0.2264  0.3417
 2850TIP3    H229966  -0.037   0.758   5.763 -0.7600  0.3534  0.8364
 2851TIP3   OH229967   2.101   4.951  10.653 -0.1048  0.6628 -0.0092
 2851TIP3    H129968   2.089   4.866  10.612 -0.4042  0.4867  0.4412
 2851TIP3    H229969   2.086   5.014  10.582  0.7701  0.3321 -0.5024
 2852TIP3   OH229970   4.594   5.628   3.839 -0.9864  0.1038 -0.0541
 2852TIP3    H129971   4.597   5.539   3.874  0.1401  0.5953  1.2037
 2852TIP3    H229972   4.509   5.634   3.795 -0.8653 -1.7410 -0.6350
 2853TIP3   OH229973   4.495   3.743  15.929  0.6031  0.2070 -0.0857
 2853TIP3    H129974   4.435   3.679  15.968 -0.6304  1.0099 -0.6051
 2853TIP3    H229975   4.478   3.737  15.835  1.2032  0.5883 -0.2186
 2854TIP3   OH229976   1.036   0.924   4.685 -1.0928  0.0370  0.4466
 2854TIP3    H129977   1.079   0.997   4.731 -0.4015 -0.0839  0.0029
 2854TIP3    H229978   0.955   0.962   4.652 -0.3162  0.8850 -0.5748
 2855TIP3   OH229979   2.858   2.869   6.305  0.2674  0.6803  0.6231
 2855TIP3    H129980   2.921   2.893   6.236 -0.2223 -2.6260 -1.2059
 2855TIP3    H229981   2.910   2.818   6.368 -0.1748 -0.5508  0.0278
 2856TIP3   OH229982   1.119   2.741  14.721  0.2421  0.2785  0.1347
 2856TIP3    H129983   1.070   2.664  14.692 -0.8376  0.2037  1.9883
 2856TIP3    H229984   1.052   2.799  14.759  1.0283  2.1412 -1.1499
 2857TIP3   OH229985   0.422   5.121   5.667 -0.3168 -0.0906 -0.0436
 2857TIP3    H129986   0.431   5.204   5.620  0.3085 -0.0153  0.1896
 2857TIP3    H229987   0.502   5.072   5.645 -1.5822 -1.4970 -1.8161
 2858TIP3   OH229988   0.400   1.885   3.686 -0.3078 -0.1913 -0.0449
 2858TIP3    H129989   0.469   1.952   3.684 -0.2206 -0.2432  1.0408
 2858TIP3    H229990   0.370   1.884   3.776 -2.8039  0.8903 -0.7840
 2859TIP3   OH229991   4.608   1.105   4.874 -0.1317 -0.1544  0.0738
 2859TIP3    H129992   4.689   1.144   4.908 -0.3996 -0.3081  0.9122
 2859TIP3    H229993   4.552   1.179   4.852 -1.4521  0.0981  3.5557
 2860TIP3   OH229994   0.658   4.569  11.917  0.6748  0.4149 -0.3521
 2860TIP3    H129995   0.690   4.480  11.906  0.6764  0.5101 -1.2212
 2860TIP3    H229996   0.629   4.595  11.829  0.4721  1.1873 -0.0672
 2861TIP3   OH229997   1.968   5.791  17.029  0.0084 -0.2252  0.3645
 2861TIP3    H129998   1.979   5.725  16.960  2.9188 -1.4608  1.8186
 2861TIP3    H229999   2.047   5.846  17.022 -0.2373  0.3671  1.9234
 2862TIP3   OH230000   3.833   2.973   3.324  0.4714  0.1564  0.2852
 2862TIP3    H130001   3.754   2.924   3.301  1.3712 -1.0211 -0.4353
 2862TIP3    H230002   3.844   2.959   3.418 -0.3274  0.5854  0.4522
 2863TIP3   OH230003   5.453   0.850  12.772 -0.2546  0.7898  0.0525
 2863TIP3    H130004   5.463   0.920  12.838  0.1025  1.0059 -0.2249
 2863TIP3    H230005   5.462   0.769  12.822  1.8263  0.9555  0.0241
 2864TIP3   OH230006   2.524   1.767   4.672  0.5059  0.6334  0.2780
 2864TIP3    H130007   2.570   1.757   4.589 -1.5137  1.1340 -0.9582
 2864TIP3    H230008   2.554   1.852   4.705  0.4171  0.9921 -0.5427
 2865TIP3   OH230009   4.583   1.600  17.324 -0.3765  0.8136  0.5598
 2865TIP3    H130010   4.609   1.659  17.253  0.2722  0.0979  0.1928
 2865TIP3    H230011   4.657   1.540  17.334 -2.2674 -2.0804 -1.3363
 2866TIP3   OH230012   2.280   3.964  14.392 -0.0644 -1.0718 -0.9748
 2866TIP3    H130013   2.349   3.898  14.386  0.8385 -0.0260 -2.7367
 2866TIP3    H230014   2.304   4.015  14.470  1.5557 -0.3396 -1.8943
 2867TIP3   OH230015   5.463   3.255   3.778 -0.0497 -0.6883  0.5110
 2867TIP3    H130016   5.425   3.331   3.821  0.2469 -0.7963  0.9720
 2867TIP3    H230017   5.510   3.291   3.703 -0.5095 -0.4924  0.3123
 2868TIP3   OH230018   3.781   2.830   5.673  0.3904 -0.1979  0.1798
 2868TIP3    H130019   3.741   2.860   5.591 -0.5337 -0.1261  0.6348
 2868TIP3    H230020   3.711   2.779   5.716  0.7250  0.0947  1.0965
 2869TIP3   OH230021   5.594   2.203   6.059 -0.3805 -0.4629 -0.1452
 2869TIP3    H130022   5.565   2.292   6.042 -0.9766 -0.9015 -1.5413
 2869TIP3    H230023   5.567   2.153   5.982  0.3999 -1.7497  0.3743
 2870TIP3   OH230024   5.368   1.253   3.852  0.0405 -0.4735 -0.8152
 2870TIP3    H130025   5.284   1.278   3.812 -0.7675  0.8356  1.4624
 2870TIP3    H230026   5.344   1.190   3.920  0.7648  0.5328  0.4141
 2871TIP3   OH230027   0.523   2.556  15.079  0.2808  0.2197  0.1073
 2871TIP3    H130028   0.558   2.480  15.033  0.3091  1.2110 -1.5854
 2871TIP3    H230029   0.592   2.622  15.074 -0.7889  1.3182 -1.0114
 2872TIP3   OH230030   6.145   2.682  15.520  0.4992 -0.3178 -0.2522
 2872TIP3    H130031   6.133   2.612  15.583 -1.1175 -1.0136 -1.2740
 2872TIP3    H230032   6.224   2.728  15.550  1.5718 -2.5006  0.4937
 2873TIP3   OH230033   0.427   4.787   4.396 -0.0026 -0.0776  0.0004
 2873TIP3    H130034   0.389   4.761   4.480 -1.4847  0.9862 -0.3081
 2873TIP3    H230035   0.522   4.781   4.411 -0.2151  0.4322  1.8693
 2874TIP3   OH230036   1.462   4.392  17.419  0.2556 -0.2981  0.2907
 2874TIP3    H130037   1.550   4.428  17.409 -0.3629  1.4949  0.8700
 2874TIP3    H230038   1.472   4.324  17.486  1.0234  0.7244  1.2702
 2875TIP3   OH230039   4.105   2.108  13.989  0.3058  0.5188 -0.0837
 2875TIP3    H130040   4.022   2.117  14.035  0.0446  1.1098 -0.6711
 2875TIP3    H230041   4.093   2.153  13.906  1.0833  0.2682 -0.3458
 2876TIP3   OH230042   2.725   5.142  14.595 -0.6350 -0.0432 -0.3585
 2876TIP3    H130043   2.723   5.074  14.527 -1.4156 -0.2691 -0.1217
 2876TIP3    H230044   2.815   5.139  14.628 -0.3136 -0.0891 -1.2180
 2877TIP3   OH230045   1.910   4.868   1.446  0.1816  0.2822  0.2457
 2877TIP3    H130046   1.920   4.837   1.356 -0.5681 -0.7881  0.5089
 2877TIP3    H230047   1.838   4.931   1.442 -0.3362 -0.3090  0.2147
 2878TIP3   OH230048   6.081   4.211   3.509  0.1222 -0.4413 -0.9619
 2878TIP3    H130049   6.062   4.295   3.551  0.1540 -1.0198  0.2432
 2878TIP3    H230050   6.163   4.227   3.462 -0.3121  0.4340 -1.4585
 2879TIP3   OH230051   0.993   1.669   5.204 -0.7155  0.1069  0.6216
 2879TIP3    H130052   1.088   1.678   5.199 -0.5655 -1.4166  0.4952
 2879TIP3    H230053   0.960   1.757   5.184  0.6249  0.3313 -0.7877
 2880TIP3   OH230054   2.569   0.862  17.558  0.0299 -0.1378 -0.6194
 2880TIP3    H130055   2.644   0.899  17.605  0.4424  0.4574 -1.7136
 2880TIP3    H230056   2.500   0.928  17.568  0.4643  0.5119 -1.7559
 2881TIP3   OH230057   5.457   6.211   1.807  0.2816  0.2536 -0.2729
 2881TIP3    H130058   5.393   6.256   1.752 -0.3010  0.4330  0.5232
 2881TIP3    H230059   5.412   6.132   1.837  0.0432  0.8696  1.0914
 2882TIP3   OH230060   6.695   2.783  12.087 -0.1755  0.2646  0.4777
 2882TIP3    H130061   6.744   2.701  12.082  0.1797  0.4563  0.7515
 2882TIP3    H230062   6.643   2.785  12.007 -0.2089 -0.2430  0.4870
 2883TIP3   OH230063   0.651   6.038   4.652  0.2380 -0.1611  0.5571
 2883TIP3    H130064   0.652   6.049   4.747  1.6590 -0.4706  0.5955
 2883TIP3    H230065   0.635   5.944   4.640 -0.5054 -0.0325  0.4591
 2884TIP3   OH230066   5.204   4.272  14.145 -0.2364 -0.1467 -0.2923
 2884TIP3    H130067   5.238   4.182  14.146 -2.5542 -1.1354 -1.7807
 2884TIP3    H230068   5.190   4.293  14.237  4.1085  0.3591  0.4722
 2885TIP3   OH230069   0.622   2.975  15.457  0.5283  0.1604 -0.6374
 2885TIP3    H130070   0.555   2.967  15.525  1.6510  0.1835  0.5210
 2885TIP3    H230071   0.705   2.971  15.505  1.3551  0.9037 -1.9422
 2886TIP3   OH230072   3.635   0.689   0.175  0.1961  0.2230  0.2433
 2886TIP3    H130073   3.633   0.780   0.146 -1.3484  0.2598  0.3833
 2886TIP3    H230074   3.656   0.639   0.096  0.5856  0.6576  0.0678
 2887TIP3   OH230075   3.965   3.318  14.389  0.0700  0.4169  0.1548
 2887TIP3    H130076   3.966   3.248  14.454  0.0256  1.2302  1.0481
 2887TIP3    H230077   4.055   3.325  14.360  0.2675  0.6712  0.8161
 2888TIP3   OH230078   1.224   5.679  14.884  0.0599  0.1780 -0.2096
 2888TIP3    H130079   1.258   5.670  14.973 -0.9843  0.5068  0.2400
 2888TIP3    H230080   1.286   5.738  14.841 -0.5696  1.7787  0.9629
 2889TIP3   OH230081   4.691   2.571  16.791 -0.6170  0.0098 -0.1947
 2889TIP3    H130082   4.612   2.551  16.741 -1.0078 -1.4316  0.9255
 2889TIP3    H230083   4.697   2.501  16.855  0.6975  0.9847  0.8028
 2890TIP3   OH230084   6.600   1.703   2.146  0.2366  0.2063  0.1631
 2890TIP3    H130085   6.514   1.741   2.132  0.0128 -0.5266 -0.5289
 2890TIP3    H230086   6.659   1.758   2.094  0.0594  0.2129 -0.0358
 2891TIP3   OH230087   1.228   6.349  13.263  0.6486  0.5681  0.7667
 2891TIP3    H130088   1.257   6.423  13.210 -0.8941  1.5223  1.1759
 2891TIP3    H230089   1.228   6.383  13.353 -1.6129  0.6564  0.7930
 2892TIP3   OH230090   1.709   2.709  12.355 -0.1688 -0.1653  0.0914
 2892TIP3    H130091   1.715   2.754  12.271 -0.4183 -0.7404 -0.2371
 2892TIP3    H230092   1.738   2.619  12.337  0.2638 -0.1635  0.7248
 2893TIP3   OH230093   2.389   2.897  14.312 -0.0697  0.3886 -0.6231
 2893TIP3    H130094   2.456   2.861  14.254  0.2154  0.5099 -0.3717
 2893TIP3    H230095   2.375   2.986  14.279  0.6584  0.7351 -0.0391
 2894TIP3   OH230096   5.629   3.088  16.693 -0.0153 -0.1354  0.1896
 2894TIP3    H130097   5.632   2.992  16.694  0.5144 -0.1302  1.9908
 2894TIP3    H230098   5.715   3.115  16.724 -0.1312  0.9435 -0.3980
 2895TIP3   OH230099   5.248   1.873  16.539 -0.2568 -0.4844 -0.1379
 2895TIP3    H130100   5.237   1.799  16.479  0.4998  0.6309 -1.7254
 2895TIP3    H230101   5.253   1.833  16.625  1.0359 -2.3933 -1.0169
 2896TIP3   OH230102   2.445   5.681  15.763 -0.2221  0.8401  0.2535
 2896TIP3    H130103   2.510   5.612  15.768  0.8678  1.6524 -1.6345
 2896TIP3    H230104   2.491   5.760  15.791 -0.9509  1.1100  0.7229
 2897TIP3   OH230105   0.875   4.580   1.191  0.2770 -0.4130  0.5147
 2897TIP3    H130106   0.912   4.577   1.279 -0.0899  0.5815  0.7120
 2897TIP3    H230107   0.782   4.597   1.205  0.2121 -0.2788 -0.0704
 2898TIP3   OH230108   0.050   1.250  15.225  0.0043  0.3808  0.3737
 2898TIP3    H130109   0.130   1.233  15.275 -0.0463  0.3816  0.4543
 2898TIP3    H230110   0.075   1.233  15.134 -0.3496 -1.2413  0.5574
 2899TIP3   OH230111   1.952   4.548  12.631 -0.2983  0.1820 -0.1217
 2899TIP3    H130112   2.038   4.575  12.599 -0.5711 -0.4989 -1.5322
 2899TIP3    H230113   1.968   4.515  12.719  1.1544 -1.3254 -0.9077
 2900TIP3   OH230114   6.253   1.323   1.614  0.1181  0.0662  0.2850
 2900TIP3    H130115   6.197   1.358   1.545  1.0810  0.5633 -0.2624
 2900TIP3    H230116   6.331   1.379   1.613 -0.1483  0.5542  2.2649
 2901TIP3   OH230117   4.456   5.074  13.986 -0.0743  0.1080  0.6403
 2901TIP3    H130118   4.455   5.085  14.081  3.1650 -0.2632  0.8221
 2901TIP3    H230119   4.536   5.024  13.968 -0.4065  0.4593 -2.3144
 2902TIP3   OH230120   3.517   4.999  12.739  0.2392  0.4015 -0.1280
 2902TIP3    H130121   3.516   4.921  12.795 -0.7611  0.6971  0.2933
 2902TIP3    H230122   3.435   5.044  12.759  0.5165  1.2494 -0.8163
 2903TIP3   OH230123   0.116   6.163   3.985 -0.3512 -0.5544 -0.2134
 2903TIP3    H130124   0.037   6.155   4.037  1.6906 -1.1289  3.0791
 2903TIP3    H230125   0.132   6.257   3.979 -2.3267 -0.2785 -2.8471
 2904TIP3   OH230126   3.055   2.331  14.918 -0.2218 -0.0812  0.4379
 2904TIP3    H130127   2.966   2.364  14.926 -0.5447 -0.6728 -0.5151
 2904TIP3    H230128   3.094   2.344  15.004 -0.5671  2.0520  0.3183
 2905TIP3   OH230129   2.906   5.437  16.165  0.2593  0.0670  0.1379
 2905TIP3    H130130   2.929   5.361  16.218 -2.7517 -0.9433  0.1910
 2905TIP3    H230131   2.952   5.424  16.082 -0.0483 -1.7487  0.2157
 2906TIP3   OH230132   5.113   2.886   6.270 -0.6710 -0.5481 -0.3376
 2906TIP3    H130133   5.071   2.801   6.282  0.5914 -1.1658 -0.1010
 2906TIP3    H230134   5.150   2.883   6.182  2.6547 -1.8195  0.9421
 2907TIP3   OH230135   1.455   4.496   4.466  0.1511 -0.0985  0.0015
 2907TIP3    H130136   1.449   4.409   4.428 -0.4238  0.1439 -0.4732
 2907TIP3    H230137   1.526   4.539   4.417  0.4475 -0.3015  0.2496
 2908TIP3   OH230138   4.992   6.692   0.380 -0.2381 -0.1360  0.1615
 2908TIP3    H130139   4.940   6.623   0.339 -0.4026  0.8396 -1.3751
 2908TIP3    H230140   5.083   6.670   0.357 -0.3104  0.2709 -0.5594
 2909TIP3   OH230141   3.263   4.313  13.589 -0.5244 -0.6485 -0.4780
 2909TIP3    H130142   3.268   4.256  13.512  1.1033 -1.4121  0.1360
 2909TIP3    H230143   3.183   4.286  13.634 -1.6201 -0.0406 -1.9709
 2910TIP3   OH230144   3.975   4.067   2.159  0.7026  0.1330 -0.0432
 2910TIP3    H130145   3.887   4.099   2.138  1.0018  0.9722 -0.0681
 2910TIP3    H230146   3.973   3.974   2.135  0.0210  0.2906 -0.6524
 2911TIP3   OH230147   3.392   2.774  12.854  0.1027 -0.0446  0.2156
 2911TIP3    H130148   3.316   2.822  12.822  0.2453 -0.1273 -0.2579
 2911TIP3    H230149   3.358   2.720  12.926 -0.5851 -1.1087 -0.8714
 2912TIP3   OH230150   0.290   3.140   2.414  0.4469 -0.1865 -0.3782
 2912TIP3    H130151   0.311   3.102   2.329  0.6558 -1.0673  0.0513
 2912TIP3    H230152   0.358   3.206   2.429  0.5712 -0.2283 -0.7700
 2913TIP3   OH230153   2.252   5.908   4.468  0.3125 -0.0495  0.0800
 2913TIP3    H130154   2.317   5.977   4.480 -0.0382  0.3930 -0.5013
 2913TIP3    H230155   2.289   5.832   4.514  0.5815  0.5850  0.9440
 2914TIP3   OH230156   4.999   0.216  12.383  0.1916 -0.1170  0.0611
 2914TIP3    H130157   5.061   0.185  12.449  1.8127  0.9864 -0.8818
 2914TIP3    H230158   4.985   0.308  12.406 -0.5672 -0.1736 -0.1579
 2915TIP3   OH230159   0.206   3.901  14.824 -0.7932  0.8463 -0.4437
 2915TIP3    H130160   0.113   3.887  14.840 -0.6597  0.6337  0.1547
 2915TIP3    H230161   0.250   3.857  14.897 -0.3155  3.1100  0.7397
 2916TIP3   OH230162   2.251   0.802   0.692 -0.0149  0.0854  0.3358
 2916TIP3    H130163   2.250   0.783   0.786 -1.2911  0.6791  0.4618
 2916TIP3    H230164   2.161   0.825   0.671 -0.1740 -1.8626 -1.4364
 2917TIP3   OH230165   5.768   4.123   1.152 -0.2663  0.2298 -0.0982
 2917TIP3    H130166   5.832   4.123   1.223  0.0014  2.3668 -0.2585
 2917TIP3    H230167   5.687   4.094   1.193  0.0709  0.6628  0.9147
 2918TIP3   OH230168   4.575   2.160   3.770 -0.7968 -0.0766  0.3564
 2918TIP3    H130169   4.589   2.253   3.753 -1.4620  0.4541  2.4759
 2918TIP3    H230170   4.574   2.120   3.683 -0.4220  1.8689 -0.5958
 2919TIP3   OH230171   5.669   2.618   6.179 -0.2095 -0.7997  0.0101
 2919TIP3    H130172   5.749   2.611   6.232  1.0854 -1.2671 -1.9282
 2919TIP3    H230173   5.617   2.543   6.205  0.3446 -0.9592  0.7063
 2920TIP3   OH230174   5.079   1.675  11.407 -0.1899 -0.4086  0.0902
 2920TIP3    H130175   5.155   1.719  11.445  0.0804 -0.0304 -0.8625
 2920TIP3    H230176   5.007   1.739  11.416 -0.0321 -0.1628 -0.3964
 2921TIP3   OH230177   4.824   2.023   4.832 -0.2960  0.0648  0.3791
 2921TIP3    H130178   4.842   2.057   4.745  0.0769  1.9035  1.1438
 2921TIP3    H230179   4.909   2.020   4.875 -0.0293 -3.3058 -0.0751
 2922TIP3   OH230180   2.946   0.692   2.044  0.4594 -0.2112 -0.0274
 2922TIP3    H130181   2.868   0.694   2.098  0.3593 -1.2641 -0.1146
 2922TIP3    H230182   2.959   0.599   2.024  2.4284 -0.2177  1.0151
 2923TIP3   OH230183   5.559   0.920   1.228 -0.0372 -0.2544 -0.2138
 2923TIP3    H130184   5.612   0.997   1.208 -0.9743  0.7369  0.9907
 2923TIP3    H230185   5.476   0.935   1.184  0.4179 -1.5095 -1.5687
 2924TIP3   OH230186   5.085   2.701  17.541  0.3349 -0.5111 -0.6355
 2924TIP3    H130187   5.177   2.729  17.548 -0.2464  1.2427  0.4986
 2924TIP3    H230188   5.042   2.742  17.616 -2.1616  1.8610 -3.1754
 2925TIP3   OH230189   1.630   1.224  14.900 -0.3311 -0.6650  0.3385
 2925TIP3    H130190   1.645   1.230  14.994  0.0042 -1.9513  0.3867
 2925TIP3    H230191   1.549   1.273  14.885 -1.0051 -1.4021  1.4710
 2926TIP3   OH230192   0.411   1.549  16.933  0.1875 -0.3422  0.1214
 2926TIP3    H130193   0.362   1.628  16.910 -0.6706 -1.0158 -0.3971
 2926TIP3    H230194   0.466   1.532  16.857 -0.8232 -1.1547 -0.4468
 2927TIP3   OH230195   4.970   4.856   1.988 -0.2649  0.2592 -0.5731
 2927TIP3    H130196   4.876   4.839   1.979 -0.1723  0.3446 -2.0346
 2927TIP3    H230197   4.998   4.878   1.899  1.0968  0.4737 -0.1076
 2928TIP3   OH230198   2.778   2.924  15.594 -0.5303 -0.2074 -0.0221
 2928TIP3    H130199   2.729   2.842  15.602 -0.0324 -0.3774  1.5935
 2928TIP3    H230200   2.868   2.901  15.617 -0.5195  0.9122  1.2016
 2929TIP3   OH230201   4.044   4.035  11.584 -0.4812  0.5781  0.4527
 2929TIP3    H130202   3.969   3.981  11.561  0.4809 -0.2770 -0.7862
 2929TIP3    H230203   4.064   4.084  11.505 -0.0985  1.2697  0.9599
 2930TIP3   OH230204   0.626   2.447  13.423  0.0810  0.5950  0.2449
 2930TIP3    H130205   0.600   2.424  13.334 -4.0269  1.2942  1.0819
 2930TIP3    H230206   0.617   2.542  13.426  1.4853  0.7320  1.1204
 2931TIP3   OH230207   0.729   4.397   4.900 -0.1543 -0.0599  0.1308
 2931TIP3    H130208   0.755   4.327   4.961  0.3160 -0.0654 -0.0760
 2931TIP3    H230209   0.801   4.461   4.905 -1.2821  1.1853  1.4963
 2932TIP3   OH230210   6.479   1.065   2.271 -0.5164 -0.3422  0.0876
 2932TIP3    H130211   6.518   1.000   2.329 -2.1683  0.3402  2.1171
 2932TIP3    H230212   6.553   1.113   2.236  0.6469 -2.1497 -0.0618
 2933TIP3   OH230213   4.190   4.269  13.055  0.4753  0.2195  0.1333
 2933TIP3    H130214   4.233   4.282  12.971 -1.3302 -0.1435 -0.9050
 2933TIP3    H230215   4.097   4.261  13.033  0.1172 -1.5103  1.9852
 2934TIP3   OH230216   6.706   3.599   0.860  0.5374 -0.8058 -0.0336
 2934TIP3    H130217   6.666   3.633   0.940  0.2930 -0.8656 -0.1303
 2934TIP3    H230218   6.780   3.658   0.843 -0.0267 -0.1787 -0.3366
 2935TIP3   OH230219   5.102   2.017  16.879  0.0386  0.0508 -0.6242
 2935TIP3    H130220   5.138   2.065  16.804 -0.5653  1.7281  0.1045
 2935TIP3    H230221   5.177   2.007  16.939  0.5479 -1.3888 -1.4516
 2936TIP3   OH230222   1.901   4.998  17.479 -0.6214 -0.0427  0.1987
 2936TIP3    H130223   1.981   5.047  17.456 -0.4607  0.4233  1.6584
 2936TIP3    H230224   1.835   5.032  17.419  0.4024 -0.9056 -1.4910
 2937TIP3   OH230225   2.579   3.187   0.983 -0.0507  0.4292  0.7369
 2937TIP3    H130226   2.588   3.093   0.996 -0.2251  0.1117 -1.2129
 2937TIP3    H230227   2.630   3.206   0.904  0.8894  2.1738  1.6775
 2938TIP3   OH230228   3.074   3.989  10.735 -0.1999 -0.0350  0.0958
 2938TIP3    H130229   3.142   4.053  10.712 -0.2630 -0.0577 -0.1583
 2938TIP3    H230230   3.008   4.041  10.782 -0.0490  0.0026  0.2702
 2939TIP3   OH230231   3.440   0.145  11.669  0.4402 -0.3064 -0.2550
 2939TIP3    H130232   3.495   0.106  11.601  2.1008 -0.4699  1.0855
 2939TIP3    H230233   3.430   0.074  11.734 -1.0644 -0.1496 -0.2806
 2940TIP3   OH230234   4.892   4.281  15.091 -0.1557  0.7240  0.4737
 2940TIP3    H130235   4.883   4.295  15.185 -0.3916  0.0425  0.5616
 2940TIP3    H230236   4.953   4.207  15.084  0.5272  1.3176  0.0637
 2941TIP3   OH230237   5.193   2.324   5.463 -0.3707 -0.2409 -0.3021
 2941TIP3    H130238   5.263   2.297   5.522  0.1795  2.8371  0.6271
 2941TIP3    H230239   5.236   2.382   5.400 -1.2268 -2.2629 -2.9231
 2942TIP3   OH230240   3.471   4.616   5.819 -0.7579 -0.5068 -0.2481
 2942TIP3    H130241   3.527   4.592   5.893 -0.9259  1.5044  0.5877
 2942TIP3    H230242   3.382   4.606   5.852 -0.8430 -0.1411 -0.3677
 2943TIP3   OH230243   1.250   6.028   2.371  0.2163  0.3137 -0.5027
 2943TIP3    H130244   1.345   6.034   2.367  0.2610  0.1334  0.2151
 2943TIP3    H230245   1.232   5.985   2.454 -0.4978  0.4072 -0.6026
 2944TIP3   OH230246   1.673   5.756   1.849  0.1142  0.0899  0.6992
 2944TIP3    H130247   1.693   5.845   1.820 -0.3565 -0.7087 -2.4678
 2944TIP3    H230248   1.758   5.712   1.852  0.0951 -0.0840 -0.6731
 2945TIP3   OH230249   0.136   5.153   1.395 -0.0394  0.1497 -0.1386
 2945TIP3    H130250   0.046   5.132   1.373 -0.3133  1.3165 -0.1808
 2945TIP3    H230251   0.150   5.241   1.361  1.5382 -0.4962 -1.3336
 2946TIP3   OH230252   5.290   0.802  16.256 -0.0046  0.2796 -0.0514
 2946TIP3    H130253   5.228   0.734  16.285 -0.1836  0.2942 -0.3933
 2946TIP3    H230254   5.313   0.849  16.336 -0.9308  0.6850 -0.0044
 2947TIP3   OH230255   5.010   6.170   2.634 -0.3421 -0.7711  0.1131
 2947TIP3    H130256   5.099   6.186   2.666 -0.7737 -0.9198  1.4446
 2947TIP3    H230257   5.017   6.092   2.579  0.4429 -0.4360 -0.2788
 2948TIP3   OH230258   6.292   6.447   1.328  0.0800 -0.6578 -0.0202
 2948TIP3    H130259   6.362   6.487   1.276 -0.1264 -0.9888 -0.5605
 2948TIP3    H230260   6.235   6.520   1.350  0.4310 -0.4356  0.1546
 2949TIP3   OH230261   6.680   4.755   2.794 -0.5085  0.2417 -0.0830
 2949TIP3    H130262   6.760   4.798   2.824 -1.2063  1.5531 -0.0268
 2949TIP3    H230263   6.672   4.677   2.850  0.7420  0.0669 -0.1337
 2950TIP3   OH230264   3.827   4.846   5.686  0.0924  0.4063  0.5585
 2950TIP3    H130265   3.826   4.866   5.780  2.4393  1.9913  0.3152
 2950TIP3    H230266   3.913   4.807   5.670 -0.5446 -0.5292 -0.8432
 2951TIP3   OH230267   5.363   6.551   0.967  0.9551  0.3825  0.5208
 2951TIP3    H130268   5.338   6.547   0.874  1.3956  0.1152  0.4099
 2951TIP3    H230269   5.454   6.582   0.966  1.4367 -0.9367  0.7716
 2952TIP3   OH230270   0.062   0.894  15.309  0.1342 -0.1463 -0.5524
 2952TIP3    H130271  -0.004   0.924  15.246 -1.0188 -2.7652 -0.7143
 2952TIP3    H230272   0.127   0.849  15.255 -0.2285 -1.3326 -0.0481
 2953TIP3   OH230273   2.392   5.345  13.990 -0.3597  0.3264 -0.0523
 2953TIP3    H130274   2.483   5.340  13.961  0.1877  0.8421  1.4642
 2953TIP3    H230275   2.391   5.414  14.056 -2.3843  2.1153 -1.8062
 2954TIP3   OH230276   2.405   5.067  13.926  0.0049  0.1951  0.6439
 2954TIP3    H130277   2.343   5.069  13.853 -0.7142  0.8206  1.2576
 2954TIP3    H230278   2.422   5.159  13.946  1.3698  0.0344  0.3004
 2955TIP3   OH230279   4.727   0.030  17.213  0.5901  0.3873 -1.3248
 2955TIP3    H130280   4.778  -0.006  17.285  1.0648  1.9386 -0.8518
 2955TIP3    H230281   4.648   0.064  17.254 -0.3253 -0.9454 -1.8982
 2956TIP3   OH230282   1.210   3.440  14.142 -0.1885 -0.5593 -0.2586
 2956TIP3    H130283   1.153   3.516  14.127 -1.2677 -1.0947  0.8710
 2956TIP3    H230284   1.255   3.459  14.224  0.1691 -0.7725 -0.4027
 2957TIP3   OH230285   2.754   5.198  10.562  0.4803  0.3466 -0.4332
 2957TIP3    H130286   2.799   5.275  10.526 -0.9647  1.0970 -0.7126
 2957TIP3    H230287   2.800   5.124  10.525  1.2515  1.0896 -1.0003
 2958TIP3   OH230288   2.238   0.395   3.758 -0.3790 -0.2977 -0.7184
 2958TIP3    H130289   2.196   0.442   3.830  0.5218  0.9815 -0.9994
 2958TIP3    H230290   2.292   0.460   3.715  0.5689 -1.4954 -1.4092
 2959TIP3   OH230291   2.563   2.678  12.092  0.0840 -0.3198 -0.2724
 2959TIP3    H130292   2.638   2.646  12.143 -0.5472  1.1198  1.7175
 2959TIP3    H230293   2.516   2.735  12.153 -1.3572  0.6543 -2.1892
 2960TIP3   OH230294   2.647   1.542  11.130  0.4199  0.6713  0.5132
 2960TIP3    H130295   2.738   1.559  11.152  0.3304  1.0795  0.5782
 2960TIP3    H230296   2.644   1.545  11.035  0.3885  1.1039  0.5287
 2961TIP3   OH230297   5.438   4.563   4.120  0.1314 -0.1169  0.4338
 2961TIP3    H130298   5.343   4.569   4.131  0.2878 -1.0815  2.6663
 2961TIP3    H230299   5.474   4.588   4.205  1.9736  1.4815 -0.7332
 2962TIP3   OH230300   4.504   0.580   5.301  0.4565  0.5882  0.4247
 2962TIP3    H130301   4.465   0.589   5.388  0.1198  0.8017  0.2512
 2962TIP3    H230302   4.536   0.489   5.299 -0.8410  0.1252  0.2340
 2963TIP3   OH230303   4.783   3.677   4.073  0.2552 -0.2990 -0.2178
 2963TIP3    H130304   4.790   3.621   4.151 -0.0673  0.2343  0.1991
 2963TIP3    H230305   4.870   3.674   4.034  0.4599 -0.4661  0.2361
 2964TIP3   OH230306   4.433   5.111   2.001  0.0193  1.0442 -0.5948
 2964TIP3    H130307   4.373   5.059   2.054  1.5443 -0.6663 -0.4632
 2964TIP3    H230308   4.416   5.201   2.027 -0.5993  0.3882  1.4059
 2965TIP3   OH230309   4.549   0.236  15.579 -0.0185  0.0627 -0.4531
 2965TIP3    H130310   4.534   0.259  15.671 -0.4631  2.2494 -1.0143
 2965TIP3    H230311   4.607   0.161  15.583  1.0569  0.9026  1.6267
 2966TIP3   OH230312   1.835   3.330  17.229 -0.2353  0.6946 -0.2952
 2966TIP3    H130313   1.883   3.299  17.305  0.8194  1.5066 -0.6035
 2966TIP3    H230314   1.744   3.338  17.259  0.0062  0.1606  0.6068
 2967TIP3   OH230315   2.254   5.121  14.693 -0.1779  0.0249 -0.4371
 2967TIP3    H130316   2.330   5.064  14.708 -0.4971 -0.1879  0.4401
 2967TIP3    H230317   2.196   5.068  14.639 -0.4418 -0.4770  0.3144
 2968TIP3   OH230318   4.373   3.555  16.641 -0.3295 -0.7732  0.3859
 2968TIP3    H130319   4.349   3.573  16.550 -2.5996 -1.1360  0.8425
 2968TIP3    H230320   4.431   3.627  16.665  0.1701 -0.5702 -1.2771
 2969TIP3   OH230321   5.423   5.219   2.036  0.1003  0.3262  0.3940
 2969TIP3    H130322   5.424   5.125   2.051  1.4674  0.6841  3.0977
 2969TIP3    H230323   5.330   5.241   2.032 -0.2776 -0.9043  1.6315
 2970TIP3   OH230324   2.821   2.973  17.057 -0.1650  0.1694  0.1812
 2970TIP3    H130325   2.915   2.959  17.047 -0.0661 -0.0459  1.2642
 2970TIP3    H230326   2.784   2.885  17.060 -0.7035  0.2261 -2.4584
 2971TIP3   OH230327   2.774   5.658  13.607  0.4636 -0.2582 -0.1294
 2971TIP3    H130328   2.836   5.608  13.660 -0.8828 -2.2318 -0.2801
 2971TIP3    H230329   2.713   5.696  13.670  0.5870 -0.1185 -0.0942
 2972TIP3   OH230330   2.285   1.508  15.899 -0.0330  0.4747  0.2908
 2972TIP3    H130331   2.203   1.515  15.949 -0.4036  0.2502 -0.2779
 2972TIP3    H230332   2.257   1.486  15.811  0.6271  0.7523  0.0066
 2973TIP3   OH230333   1.917   3.323   5.274 -0.1407 -0.0143  0.1742
 2973TIP3    H130334   1.957   3.406   5.296 -0.2946 -0.2982  1.6221
 2973TIP3    H230335   1.910   3.276   5.357  1.2256 -2.0630 -0.7766
 2974TIP3   OH230336   6.234   5.176  16.674  0.4952  0.8669  0.7653
 2974TIP3    H130337   6.219   5.151  16.583 -0.6250 -0.4199  1.2797
 2974TIP3    H230338   6.330   5.176  16.683  0.5863 -0.5062 -0.0092
 2975TIP3   OH230339   1.621   5.213  16.397  0.2747  0.8112  0.2294
 2975TIP3    H130340   1.574   5.291  16.426 -1.0317 -0.6196  2.1711
 2975TIP3    H230341   1.674   5.188  16.472  0.2651 -0.4564 -0.1732
 2976TIP3   OH230342   1.474   2.272   0.835  0.2298  0.7449  0.0905
 2976TIP3    H130343   1.473   2.257   0.740  0.3326  1.9165 -0.1027
 2976TIP3    H230344   1.534   2.345   0.847  1.2114 -0.2102  1.2021
 2977TIP3   OH230345   5.147   5.117   0.886 -0.5040 -0.0758 -0.1962
 2977TIP3    H130346   5.155   5.056   0.812  1.0944 -0.6467  0.4131
 2977TIP3    H230347   5.052   5.127   0.898 -0.8489  0.6703 -2.8043
 2978TIP3   OH230348   3.166   2.177   2.357 -0.1140  0.3099 -0.7906
 2978TIP3    H130349   3.130   2.095   2.393  2.3325 -0.7830 -0.6258
 2978TIP3    H230350   3.112   2.196   2.281 -1.1921 -1.0647 -0.4055
 2979TIP3   OH230351   1.792   0.905  17.329  0.2361  0.2767  0.0085
 2979TIP3    H130352   1.751   0.833  17.281  1.3711  0.7094 -1.6979
 2979TIP3    H230353   1.852   0.863  17.390  0.7049 -0.2603 -0.8022
 2980TIP3   OH230354   3.475   0.458  11.314  0.5102 -0.1894  0.0342
 2980TIP3    H130355   3.414   0.522  11.349  1.5281  0.2454  1.1261
 2980TIP3    H230356   3.560   0.483  11.352  0.8285 -2.5796  1.1090
 2981TIP3   OH230357   3.955   4.668  17.375 -0.2137 -0.1007 -0.2762
 2981TIP3    H130358   3.875   4.702  17.416  0.5062  2.0507 -0.5208
 2981TIP3    H230359   3.984   4.738  17.316  1.5757 -1.0182 -0.5683
 2982TIP3   OH230360   3.572   6.514  16.466  0.0678 -0.0413  0.0692
 2982TIP3    H130361   3.489   6.486  16.429 -0.0987  0.0011  0.4056
 2982TIP3    H230362   3.632   6.516  16.392 -0.3067  0.2317 -0.2322
 2983TIP3   OH230363   5.670   6.387  13.125  0.0614  0.5253  0.3807
 2983TIP3    H130364   5.616   6.430  13.191  0.1061  2.4681 -0.7537
 2983TIP3    H230365   5.615   6.386  13.046  0.8992  0.6058 -0.2228
 2984TIP3   OH230366   4.828   2.720   2.478 -0.0361  0.4642 -0.0440
 2984TIP3    H130367   4.818   2.814   2.460  2.9191  1.1477  1.2574
 2984TIP3    H230368   4.899   2.715   2.542  2.0466 -2.8169 -2.2889
 2985TIP3   OH230369   1.251   3.382   1.598  0.0321  0.0466  0.3664
 2985TIP3    H130370   1.246   3.289   1.617 -0.6418  0.2391  1.1768
 2985TIP3    H230371   1.202   3.393   1.517  1.5100 -0.5298 -0.6592
 2986TIP3   OH230372   1.979   0.625  13.786 -0.6949  0.2098  0.1978
 2986TIP3    H130373   2.042   0.558  13.810 -0.7595  0.3133  0.6640
 2986TIP3    H230374   2.031   0.705  13.777 -0.7859  0.3395  0.7891
 2987TIP3   OH230375   3.737   3.918  14.471  0.2276  0.4052  0.0407
 2987TIP3    H130376   3.796   3.882  14.537  1.4644  1.7862 -0.2529
 2987TIP3    H230377   3.728   4.011  14.494 -0.8107  0.5029 -0.6712
 2988TIP3   OH230378   3.544   5.537  15.842  0.3156  0.3441 -0.9436
 2988TIP3    H130379   3.586   5.503  15.921  0.4472 -1.4050 -1.7173
 2988TIP3    H230380   3.524   5.459  15.790  0.5885  1.4581 -2.8102
 2989TIP3   OH230381   3.192   1.253  13.373  0.4059  0.1350  0.0319
 2989TIP3    H130382   3.251   1.185  13.406  0.2316 -0.7925 -1.4832
 2989TIP3    H230383   3.113   1.246  13.427  0.7589 -0.2091  0.5081
 2990TIP3   OH230384   1.234   1.145  10.509  0.6315  0.5226  0.5560
 2990TIP3    H130385   1.245   1.058  10.546  1.2161  0.6101  0.5863
 2990TIP3    H230386   1.234   1.204  10.584  0.3112  0.5604  0.5293
 2991TIP3   OH230387   4.516   4.539   2.412  0.8135 -0.3554 -0.4693
 2991TIP3    H130388   4.565   4.513   2.334 -0.0468  0.4346 -1.3145
 2991TIP3    H230389   4.425   4.520   2.390  0.3451  1.6149 -0.4335
 2992TIP3   OH230390   0.276   1.152   0.095  0.1965 -0.2819 -0.1227
 2992TIP3    H130391   0.244   1.237   0.124  2.0218  0.8914 -1.3690
 2992TIP3    H230392   0.250   1.146   0.003  0.7514 -0.7279 -0.2578
 2993TIP3   OH230393   4.946   2.559   3.037  0.0286  0.3993  0.0825
 2993TIP3    H130394   4.864   2.523   3.004 -0.2732 -0.1428  1.3714
 2993TIP3    H230395   5.007   2.486   3.038 -0.4323 -0.0270  2.1930
 2994TIP3   OH230396   1.114   3.958  12.047  0.4698 -0.2377 -0.1901
 2994TIP3    H130397   1.082   3.970  11.958  1.7591  0.5985 -0.5649
 2994TIP3    H230398   1.037   3.975  12.102 -0.0231  0.5477 -1.0946
 2995TIP3   OH230399   2.888   6.119   1.630  0.4304 -0.0402 -0.0280
 2995TIP3    H130400   2.915   6.141   1.719  1.4163  2.6737 -0.8822
 2995TIP3    H230401   2.930   6.035   1.612 -1.7554 -1.9262  2.7841
 2996TIP3   OH230402   4.939   3.054   4.150  0.0483 -0.0650 -0.2277
 2996TIP3    H130403   4.984   2.980   4.109 -1.4104  0.7565 -3.6079
 2996TIP3    H230404   4.980   3.131   4.111 -0.4530  0.8621  1.0138
 2997TIP3   OH230405   1.635   1.773  16.999  0.4290 -0.7986 -0.1851
 2997TIP3    H130406   1.552   1.786  16.953 -0.6600  1.0321  2.0873
 2997TIP3    H230407   1.617   1.801  17.089  2.6889 -3.2169  1.1619
 2998TIP3   OH230408   4.282   6.560   2.535  0.2522  0.2369 -0.3642
 2998TIP3    H130409   4.374   6.534   2.528  1.2250  3.3281 -0.4210
 2998TIP3    H230410   4.250   6.560   2.445  0.8045  1.0519 -0.5675
 2999TIP3   OH230411   3.617   4.701   1.703 -0.4143  0.6132  0.0308
 2999TIP3    H130412   3.527   4.680   1.678 -1.1274  0.7619  2.2597
 2999TIP3    H230413   3.669   4.628   1.671 -1.6251 -0.4338  0.3793
 3000TIP3   OH230414   4.971   0.235  12.770  0.1983 -0.0471 -0.6932
 3000TIP3    H130415   5.040   0.207  12.710  1.1590 -1.5409  1.0048
 3000TIP3    H230416   5.010   0.307  12.819  1.4542 -2.1800  1.6813
 3001TIP3   OH230417   4.777   6.235  14.980 -0.5146  0.1538  0.2828
 3001TIP3    H130418   4.866   6.204  14.997 -0.8832 -1.0549  0.0452
 3001TIP3    H230419   4.730   6.159  14.948 -1.4033  1.0054 -0.5044
 3002TIP3   OH230420   2.161   2.616  13.759 -0.2643  0.1577  0.1635
 3002TIP3    H130421   2.185   2.704  13.731 -0.5563 -0.1345 -1.0482
 3002TIP3    H230422   2.160   2.564  13.679 -2.3169 -0.4434  0.5178
 3003TIP3   OH230423   4.712   1.463   5.402 -0.1471  0.1961  0.6557
 3003TIP3    H130424   4.770   1.425   5.336 -0.3145  0.1779  0.5168
 3003TIP3    H230425   4.738   1.555   5.406 -0.2006  0.2196  0.4916
 3004TIP3   OH230426   1.614   0.962  12.293  0.1570  0.0115  0.0065
 3004TIP3    H130427   1.602   0.978  12.387  0.6412 -0.1482  0.0985
 3004TIP3    H230428   1.602   0.867  12.284 -1.6243  0.2366 -0.3670
 3005TIP3   OH230429   1.404   0.574  10.535 -0.5470  0.5263  0.5582
 3005TIP3    H130430   1.416   0.491  10.582 -0.0965  0.6489  0.6626
 3005TIP3    H230431   1.312   0.595  10.547 -0.7472 -0.1403  0.2347
 3006TIP3   OH230432   4.091   3.951  12.053 -0.7303  0.3884  0.5716
 3006TIP3    H130433   4.144   4.014  12.003  3.0783 -3.2894 -0.6073
 3006TIP3    H230434   4.017   3.931  11.996  1.1849 -0.4476 -1.7934
 3007TIP3   OH230435   4.539   5.173  12.547  0.2827 -0.1480 -0.2462
 3007TIP3    H130436   4.603   5.244  12.545  0.2210 -0.0877 -2.5825
 3007TIP3    H230437   4.574   5.107  12.488 -0.6661 -1.1772  0.3021
 3008TIP3   OH230438   1.942   5.833   6.329  0.2085 -0.4720 -0.3895
 3008TIP3    H130439   2.030   5.812   6.297  0.1470 -1.2045 -0.0864
 3008TIP3    H230440   1.896   5.749   6.330  0.0158 -0.3686  1.0497
 3009TIP3   OH230441   4.406   5.372  12.667 -0.3361  0.4844 -0.2329
 3009TIP3    H130442   4.322   5.344  12.702  0.8158 -0.2307  2.2107
 3009TIP3    H230443   4.434   5.301  12.609 -0.7285  0.0169  0.1483
 3010TIP3   OH230444   6.229   5.962   2.179 -0.0132  0.2531 -0.2913
 3010TIP3    H130445   6.227   5.985   2.086 -1.8874  0.2295 -0.3022
 3010TIP3    H230446   6.191   5.874   2.182 -0.8706  0.6343  0.5675
 3011TIP3   OH230447   1.457   2.381  17.306 -0.6407  0.5453  0.3686
 3011TIP3    H130448   1.381   2.432  17.280 -0.9084 -0.5038 -0.9999
 3011TIP3    H230449   1.456   2.383  17.402 -3.3745 -0.8370  0.4484
 3012TIP3   OH230450   4.183   5.351   5.732  0.0918  0.0119  0.6874
 3012TIP3    H130451   4.251   5.389   5.677  0.7830 -0.3510  1.2640
 3012TIP3    H230452   4.228   5.331   5.815 -0.8628  0.3315  1.2975
 3013TIP3   OH230453   1.731   0.087   6.253  0.0387 -0.5213  0.0236
 3013TIP3    H130454   1.823   0.067   6.270 -0.2967 -0.8406  1.6208
 3013TIP3    H230455   1.732   0.180   6.228  0.7954 -0.5153  0.0375
 3014TIP3   OH230456   3.338   1.860  14.197 -0.0230  0.1229 -0.4586
 3014TIP3    H130457   3.252   1.863  14.238  0.7849  1.3959  1.2557
 3014TIP3    H230458   3.376   1.776  14.225  0.2304  0.6537  0.8466
 3015TIP3   OH230459   0.152   4.893  14.708  0.2001 -0.1628  0.3233
 3015TIP3    H130460   0.116   4.824  14.652  0.6427 -0.6629  0.6480
 3015TIP3    H230461   0.245   4.896  14.686  0.0253  0.9308 -0.3025
 3016TIP3   OH230462   0.162   3.577  15.184 -0.0431 -0.5130  0.1163
 3016TIP3    H130463   0.170   3.524  15.263 -2.2940 -0.0895  0.7129
 3016TIP3    H230464   0.131   3.515  15.117 -3.8457  0.0610  1.1048
 3017TIP3   OH230465   2.494   2.601  16.056 -0.2713  0.1223 -0.3240
 3017TIP3    H130466   2.411   2.567  16.088  0.1874 -0.1685  0.5936
 3017TIP3    H230467   2.503   2.565  15.968 -0.9176 -0.1744 -0.2709
 3018TIP3   OH230468   6.092   2.854  13.073  0.2149 -0.0722 -0.1152
 3018TIP3    H130469   6.076   2.938  13.030  0.7040 -0.3638 -0.8955
 3018TIP3    H230470   6.187   2.852  13.086  0.4420 -1.2184 -1.6716
 3019TIP3   OH230471   0.214   1.137  14.194 -0.0588  0.2652  0.2835
 3019TIP3    H130472   0.278   1.205  14.172  1.4835 -1.2892 -0.2600
 3019TIP3    H230473   0.210   1.082  14.116  1.3846 -2.2505  1.8746
 3020TIP3   OH230474   3.282   5.902   4.620 -0.6632 -0.0780  0.2372
 3020TIP3    H130475   3.239   5.935   4.541  2.5234  2.4133 -0.7153
 3020TIP3    H230476   3.324   5.820   4.592 -0.8057  0.0084 -0.2400
 3021TIP3   OH230477   2.966   5.199  16.310  0.3414  0.3832 -0.0637
 3021TIP3    H130478   2.972   5.137  16.238 -1.6452  1.1768 -1.0004
 3021TIP3    H230479   2.956   5.145  16.388  0.3536 -0.4821 -0.6471
 3022TIP3   OH230480   1.864   5.684   5.855 -1.0847 -0.1886 -0.7044
 3022TIP3    H130481   1.828   5.630   5.926 -1.9017 -0.2062 -1.1218
 3022TIP3    H230482   1.901   5.621   5.794 -1.7433 -0.2689 -1.0295
 3023TIP3   OH230483   6.405   3.355  14.649 -0.5098  0.1792 -0.1584
 3023TIP3    H130484   6.338   3.300  14.690  0.9645  0.6005  3.0885
 3023TIP3    H230485   6.358   3.433  14.620 -1.5495  0.2131  1.5244
 3024TIP3   OH230486   6.688   3.402   4.396  0.2566  0.1779  0.4066
 3024TIP3    H130487   6.668   3.310   4.413  1.5539 -0.0856  0.6691
 3024TIP3    H230488   6.608   3.449   4.417  0.3321 -0.6330  2.7644
 3025TIP3   OH230489   2.091   5.927  16.046  0.6685  0.5223  0.3147
 3025TIP3    H130490   2.041   6.008  16.035  0.0172  0.0686 -0.1250
 3025TIP3    H230491   2.101   5.893  15.957  1.1043  0.2155  0.4766
 3026TIP3   OH230492   3.118   6.430   4.100  0.6102 -0.2566  1.0150
 3026TIP3    H130493   3.026   6.455   4.108  0.6375  0.5170 -0.7037
 3026TIP3    H230494   3.144   6.459   4.013  1.9415 -2.2598  0.6646
 3027TIP3   OH230495   3.122   5.446   2.536 -0.0442 -0.2375  0.1876
 3027TIP3    H130496   3.100   5.524   2.587  1.2371  0.2261  0.0485
 3027TIP3    H230497   3.134   5.477   2.447 -0.2171 -0.7134 -0.0071
 3028TIP3   OH230498   1.708   0.583  13.424 -0.2116 -0.1495  0.4849
 3028TIP3    H130499   1.678   0.498  13.393  0.0291 -0.4842  1.1593
 3028TIP3    H230500   1.792   0.565  13.466 -0.6700  0.2381  1.5992
 3029TIP3   OH230501   5.963   5.672  12.620 -0.1329 -0.8329 -0.1504
 3029TIP3    H130502   5.892   5.616  12.650  0.4537 -1.0228  0.9515
 3029TIP3    H230503   6.031   5.663  12.687  0.2620  0.6404 -0.3004
 3030TIP3   OH230504   5.116   1.359   4.217 -0.0392  0.7058 -0.2627
 3030TIP3    H130505   5.102   1.454   4.226 -1.7417  0.4308  0.3817
 3030TIP3    H230506   5.091   1.323   4.302 -2.0997 -0.5730 -1.3283
 3031TIP3   OH230507   0.177   6.405   2.753  0.2216  0.5903  0.6036
 3031TIP3    H130508   0.110   6.443   2.809 -1.6675  0.2793 -1.3139
 3031TIP3    H230509   0.194   6.471   2.686 -0.4935 -0.4704 -0.6963
 3032TIP3   OH230510   2.118   6.269   2.662  0.0946 -0.1711  0.0595
 3032TIP3    H130511   2.033   6.281   2.705 -0.9768  1.5249 -2.2889
 3032TIP3    H230512   2.180   6.316   2.717 -0.8598  0.2836  0.7738
 3033TIP3   OH230513   6.686   5.500  16.556 -0.3809  0.5225  0.1834
 3033TIP3    H130514   6.747   5.546  16.498  1.9667  1.3239  3.0266
 3033TIP3    H230515   6.658   5.566  16.619 -0.1926 -0.9362  1.8894
 3034TIP3   OH230516   5.807   1.860  12.199  0.5806 -0.7327 -0.0121
 3034TIP3    H130517   5.798   1.792  12.132 -1.8596  0.4583 -1.0182
 3034TIP3    H230518   5.755   1.828  12.273  0.8909 -0.7308  0.2127
 3035TIP3   OH230519   6.492   4.329  11.881 -0.0145  0.5383 -0.2516
 3035TIP3    H130520   6.577   4.292  11.905 -2.3928 -3.8963  2.7961
 3035TIP3    H230521   6.492   4.417  11.919  2.8242  0.3334  0.4418
 3036TIP3   OH230522   0.454   0.319  16.845  0.1951  0.8841 -0.4492
 3036TIP3    H130523   0.544   0.344  16.864  0.1308  0.2785  0.7424
 3036TIP3    H230524   0.419   0.287  16.928 -0.8477  0.2813 -1.0821
 3037TIP3   OH230525   6.271   5.399   5.646  0.2650  0.4149  0.3707
 3037TIP3    H130526   6.296   5.360   5.562 -0.3977 -0.9489  0.7829
 3037TIP3    H230527   6.233   5.484   5.623 -0.7084 -0.3071 -0.7876
 3038TIP3   OH230528   1.151   5.331   0.224  0.0561 -0.3233  0.2512
 3038TIP3    H130529   1.072   5.317   0.275  0.5284 -1.3541  0.7308
 3038TIP3    H230530   1.129   5.402   0.164 -0.9442 -0.0204  0.9630
 3039TIP3   OH230531   4.014   2.752  11.953 -0.1490 -0.0997 -0.3017
 3039TIP3    H130532   4.107   2.730  11.949 -0.7517 -2.8961 -2.1788
 3039TIP3    H230533   3.992   2.780  11.864 -1.4325 -1.3037 -0.4046
 3040TIP3   OH230534   6.658   5.183  16.099  0.2417  0.1864 -0.1438
 3040TIP3    H130535   6.735   5.213  16.049 -0.3837 -0.1880 -1.3853
 3040TIP3    H230536   6.585   5.193  16.038 -0.2257 -2.4624 -0.1296
 3041TIP3   OH230537   0.296   4.382  15.528 -0.0274  0.0767 -0.0404
 3041TIP3    H130538   0.310   4.289  15.513  1.2279  0.3897 -0.9971
 3041TIP3    H230539   0.201   4.393  15.529 -0.1866 -1.2120  0.1589
 3042TIP3   OH230540   2.747   6.714   0.354 -0.7696  0.6667 -0.0954
 3042TIP3    H130541   2.661   6.752   0.369 -1.2190 -0.3368 -0.0685
 3042TIP3    H230542   2.743   6.678   0.266 -1.5360 -2.2689  1.0185
 3043TIP3   OH230543   4.722   6.131   2.835  0.2069 -0.0601  0.0251
 3043TIP3    H130544   4.661   6.066   2.801  1.0954 -0.8591 -0.0758
 3043TIP3    H230545   4.706   6.132   2.930  0.9368 -1.2423  0.1805
 3044TIP3   OH230546   4.813   6.447  11.357 -0.2278 -0.6102  0.0136
 3044TIP3    H130547   4.872   6.424  11.285  0.1510  0.5454 -0.0548
 3044TIP3    H230548   4.734   6.479  11.314 -0.9297 -2.1049  0.1057
 3045TIP3   OH230549   5.823   2.107  16.770 -0.5044  0.3861  0.1405
 3045TIP3    H130550   5.739   2.062  16.774 -0.2421 -0.0574  0.7341
 3045TIP3    H230551   5.824   2.164  16.847 -0.2311  0.3321  0.1774
 3046TIP3   OH230552   3.318   5.374  13.675 -0.5100  0.4447  0.2703
 3046TIP3    H130553   3.374   5.297  13.678 -3.3729 -1.8347 -0.2027
 3046TIP3    H230554   3.291   5.387  13.766 -0.5189  0.5174  0.2575
 3047TIP3   OH230555   1.019   6.097   4.617  0.4223 -0.4511  0.4284
 3047TIP3    H130556   1.074   6.156   4.667  0.4827 -0.7396  0.7055
 3047TIP3    H230557   0.937   6.145   4.603  0.3621 -0.4154  0.9046
 3048TIP3   OH230558   0.693   3.573   5.203  0.0919  0.3966  0.3918
 3048TIP3    H130559   0.786   3.580   5.222  0.1757 -0.0898  0.1794
 3048TIP3    H230560   0.689   3.534   5.115 -0.3058  0.5208  0.3522
 3049TIP3   OH230561   5.291   3.899   4.859  0.1561 -0.1191  0.1179
 3049TIP3    H130562   5.276   3.992   4.878  0.9967 -0.3077  1.8798
 3049TIP3    H230563   5.204   3.865   4.837 -0.1422  1.0961 -0.6528
 3050TIP3   OH230564   2.747   2.824  14.528 -0.1862  0.4432  0.5525
 3050TIP3    H130565   2.748   2.884  14.602 -2.3000  0.5679  0.5443
 3050TIP3    H230566   2.734   2.737  14.567  0.5878  0.2656  0.4290
 3051TIP3   OH230567   5.702   3.918   6.163 -0.3699 -0.0300 -0.0474
 3051TIP3    H130568   5.741   3.971   6.233  1.7283 -1.1427 -0.2825
 3051TIP3    H230569   5.675   3.837   6.208  0.9951 -0.7530 -0.4674
 3052TIP3   OH230570   1.924   3.379   4.466  0.7565 -0.3920  1.1857
 3052TIP3    H130571   1.941   3.424   4.383  0.1109 -1.4628  0.4489
 3052TIP3    H230572   1.890   3.448   4.523  1.5194  0.4315  0.6758
 3053TIP3   OH230573   4.052   1.395  17.130  0.2490 -0.6566  0.1090
 3053TIP3    H130574   4.067   1.397  17.224  1.8411  3.1445 -0.0234
 3053TIP3    H230575   4.052   1.302  17.107  0.6088 -1.6862  3.7024
 3054TIP3   OH230576   5.388   4.471   1.648 -0.1431 -0.7630  0.0443
 3054TIP3    H130577   5.447   4.410   1.692  0.1538  0.4799  1.4134
 3054TIP3    H230578   5.419   4.473   1.557  0.2529 -2.1146  0.1265
 3055TIP3   OH230579   3.581   3.459   0.700  0.8230 -0.1677 -0.1087
 3055TIP3    H130580   3.487   3.454   0.714  0.6023 -0.5146 -1.6023
 3055TIP3    H230581   3.591   3.481   0.608  2.2188 -0.3821 -0.0366
 3056TIP3   OH230582   0.729   3.351  10.890 -0.1209  0.2742  0.2065
 3056TIP3    H130583   0.821   3.330  10.873 -0.3598 -0.3542 -0.3542
 3056TIP3    H230584   0.686   3.267  10.900 -0.4341  0.5858  1.6899
 3057TIP3   OH230585   3.745   1.691   0.116 -0.1570  0.6280  0.1885
 3057TIP3    H130586   3.710   1.734   0.038  0.5425 -1.3185 -1.3092
 3057TIP3    H230587   3.838   1.714   0.116 -0.1955  0.7913  0.5866
 3058TIP3   OH230588   4.530   6.234   2.027  0.0569 -0.2461  0.8052
 3058TIP3    H130589   4.502   6.155   1.981  0.1336 -0.9234  1.8824
 3058TIP3    H230590   4.497   6.306   1.974 -0.1343 -1.0060 -0.1247
 3059TIP3   OH230591   6.395   1.721  13.969 -0.2092  0.5721 -0.4282
 3059TIP3    H130592   6.379   1.649  14.030 -0.6019 -0.9159 -2.2102
 3059TIP3    H230593   6.399   1.798  14.025 -0.5229 -0.7082  1.4840
 3060TIP3   OH230594   0.569   1.552   0.309  0.0941 -0.4680 -0.6885
 3060TIP3    H130595   0.663   1.559   0.323  0.2168  0.0882 -1.7192
 3060TIP3    H230596   0.537   1.504   0.386  1.3607 -1.6489 -0.8515
 3061TIP3   OH230597   0.165   1.558   6.157  0.1408  0.0582  0.2698
 3061TIP3    H130598   0.175   1.499   6.082 -0.5168  2.3128 -1.6975
 3061TIP3    H230599   0.080   1.535   6.195  1.2155 -2.2455  1.5034
 3062TIP3   OH230600   2.423   6.012   1.808 -0.0549 -0.0709  0.0162
 3062TIP3    H130601   2.468   6.015   1.893  0.1579  0.0427 -0.0974
 3062TIP3    H230602   2.494   6.015   1.744 -0.2181 -0.0901 -0.1659
 3063TIP3   OH230603   6.025   4.338   0.870 -0.0008 -0.1162 -0.0626
 3063TIP3    H130604   6.102   4.379   0.829 -2.7167  2.1090 -3.5502
 3063TIP3    H230605   6.017   4.381   0.955  1.5961  0.9023 -0.3833
 3064TIP3   OH230606   6.524   4.939   2.437 -0.0724 -0.1287  0.4336
 3064TIP3    H130607   6.500   4.848   2.421  0.5989 -0.1481 -0.5843
 3064TIP3    H230608   6.475   4.964   2.515  0.0638 -1.4970  0.9875
 3065TIP3   OH230609   0.866   2.311  16.714  0.5526  0.2680  0.1168
 3065TIP3    H130610   0.933   2.251  16.747  0.5099  0.9911  1.6308
 3065TIP3    H230611   0.900   2.398  16.733 -1.2162  0.6584  1.8787
 3066TIP3   OH230612   3.480   6.649  11.819 -0.0436  0.5541  0.4209
 3066TIP3    H130613   3.566   6.609  11.804 -0.1264  1.0152 -1.5458
 3066TIP3    H230614   3.418   6.581  11.792 -0.3458  0.1120  2.1150
 3067TIP3   OH230615   1.346   1.545   5.700 -0.1828 -0.4039 -0.0170
 3067TIP3    H130616   1.292   1.492   5.758 -0.1812  1.2456  1.5664
 3067TIP3    H230617   1.436   1.515   5.717 -0.2919 -0.7525 -0.0587
 3068TIP3   OH230618   3.150   5.088  12.038  0.0225  0.1720 -0.3763
 3068TIP3    H130619   3.111   5.110  11.953 -2.3977 -1.7071  0.1316
 3068TIP3    H230620   3.123   5.159  12.096  0.3067  0.6425 -0.8147
 3069TIP3   OH230621   2.045   3.282   1.650 -0.0401  1.2885  0.2020
 3069TIP3    H130622   2.005   3.213   1.596 -0.0209  0.6616  0.9673
 3069TIP3    H230623   2.123   3.241   1.686 -1.0728  1.0102  2.2665
 3070TIP3   OH230624   0.767   1.477  16.540  1.1595 -0.0757  0.0757
 3070TIP3    H130625   0.742   1.569  16.532 -2.5725 -1.0606 -2.3306
 3070TIP3    H230626   0.717   1.445  16.615  1.0689 -0.4967 -0.1605
 3071TIP3   OH230627   1.528   4.419  13.539 -0.1335  0.0599 -0.0708
 3071TIP3    H130628   1.588   4.401  13.468  1.3974 -0.8350  1.3835
 3071TIP3    H230629   1.579   4.405  13.619 -1.7351  1.1260  1.2265
 3072TIP3   OH230630   1.831   6.598  14.084 -0.0766  0.1190 -0.1221
 3072TIP3    H130631   1.917   6.593  14.127 -0.1524 -1.3915 -0.0948
 3072TIP3    H230632   1.843   6.663  14.014  1.1310 -0.1868 -0.2224
 3073TIP3   OH230633   5.289   4.806  15.447 -0.3005 -0.3628 -0.1651
 3073TIP3    H130634   5.313   4.716  15.426 -0.4789 -0.4513  0.0041
 3073TIP3    H230635   5.359   4.836  15.506 -1.3339 -1.1057  1.5137
 3074TIP3   OH230636   3.870   4.539   3.526  0.2139  0.6146  0.0338
 3074TIP3    H130637   3.858   4.481   3.451  0.9728  1.6582 -0.9341
 3074TIP3    H230638   3.832   4.492   3.600 -0.9492 -0.2442 -1.0827
 3075TIP3   OH230639   2.727   1.709  14.076  0.1694 -0.3425  0.4071
 3075TIP3    H130640   2.699   1.640  14.016  0.8176 -0.4626  0.2344
 3075TIP3    H230641   2.823   1.709  14.070  0.1570  1.8678 -1.0900
 3076TIP3   OH230642   6.311   3.615   2.436  0.0358  0.6234  0.7747
 3076TIP3    H130643   6.257   3.661   2.371 -0.1143  1.9261  1.7854
 3076TIP3    H230644   6.331   3.682   2.501  1.6863 -0.2112  1.1552
 3077TIP3   OH230645   0.888   2.232   4.125  0.5083 -0.3654  0.6734
 3077TIP3    H130646   0.797   2.239   4.096  0.5251  0.5346  0.8016
 3077TIP3    H230647   0.884   2.176   4.203  0.3715 -2.2050 -0.5867
 3078TIP3   OH230648   6.472   2.747  15.880  0.2757 -0.2335 -0.5126
 3078TIP3    H130649   6.413   2.744  15.956 -0.5407 -1.6805 -1.1642
 3078TIP3    H230650   6.546   2.800  15.910 -0.3240 -0.2302  1.0885
 3079TIP3   OH230651   1.602   2.949  13.398  0.4080 -0.3206  0.1671
 3079TIP3    H130652   1.508   2.952  13.411  0.0801 -1.1312 -1.7771
 3079TIP3    H230653   1.625   3.035  13.363  0.5047  0.0527  1.1002
 3080TIP3   OH230654   2.487   3.394  14.168 -0.1172 -0.0699  0.5851
 3080TIP3    H130655   2.496   3.378  14.074 -1.5524  0.1668  0.3864
 3080TIP3    H230656   2.494   3.308  14.208  0.8341 -0.1359  0.3098
 3081TIP3   OH230657   3.641   1.168   3.434  0.4916  0.1194 -0.2678
 3081TIP3    H130658   3.733   1.142   3.443  0.0745 -2.2650 -1.8972
 3081TIP3    H230659   3.594   1.109   3.493 -0.1431 -0.0286 -0.9038
 3082TIP3   OH230660   6.183   0.389   6.068 -0.4017 -0.2863  0.5144
 3082TIP3    H130661   6.114   0.412   6.129 -2.2555  0.5052 -1.7486
 3082TIP3    H230662   6.247   0.460   6.075 -1.5005  0.7526  0.2531
 3083TIP3   OH230663   1.461   5.078  15.946  0.1952 -0.4518  0.1838
 3083TIP3    H130664   1.371   5.110  15.940 -0.0858 -1.3329 -0.6147
 3083TIP3    H230665   1.505   5.140  16.004 -1.3160 -0.8913  1.8754
 3084TIP3   OH230666   4.208   5.583  15.317  0.1114 -0.3699 -0.5220
 3084TIP3    H130667   4.191   5.557  15.227  0.3792 -1.1394 -0.3594
 3084TIP3    H230668   4.124   5.616  15.349 -0.0446 -0.3260 -0.9728
 3085TIP3   OH230669   3.484   4.442  17.274 -0.4648 -0.5101 -0.4745
 3085TIP3    H130670   3.511   4.388  17.348 -2.5825 -0.1382  0.6584
 3085TIP3    H230671   3.537   4.521  17.281 -0.9914 -0.2505  1.0042
 3086TIP3   OH230672   3.780   4.822  13.776  0.5580 -0.2737 -0.2827
 3086TIP3    H130673   3.819   4.741  13.742  1.5260  0.4699 -1.0068
 3086TIP3    H230674   3.837   4.848  13.848 -1.8194 -2.1631  2.5216
 3087TIP3   OH230675   6.412   4.400  16.545 -0.3999  0.0377  0.0479
 3087TIP3    H130676   6.358   4.479  16.535  0.0190  0.1243 -2.0433
 3087TIP3    H230677   6.390   4.347  16.469  1.7518 -0.3475 -0.3430
 3088TIP3   OH230678   0.983   2.881  15.522  0.0931 -0.0471  0.6824
 3088TIP3    H130679   0.933   2.875  15.603 -0.1012  1.2463  0.6884
 3088TIP3    H230680   1.039   2.958  15.535  2.2028 -1.5185  0.7254
 3089TIP3   OH230681   4.199   4.879  13.832 -0.6920  0.1967  0.5180
 3089TIP3    H130682   4.151   4.959  13.813  1.2232  0.8776 -2.2239
 3089TIP3    H230683   4.213   4.839  13.746  2.0408 -0.8291  1.3331
 3090TIP3   OH230684   5.876   6.615  16.766 -0.3623 -0.0784 -0.5581
 3090TIP3    H130685   5.960   6.624  16.812  0.1689 -1.3777 -1.2064
 3090TIP3    H230686   5.900   6.585  16.678 -1.5184 -1.0375 -0.5768
 3091TIP3   OH230687   5.826   3.895  11.007  0.0108 -0.2563 -0.0261
 3091TIP3    H130688   5.831   3.901  11.103 -0.1263 -2.4121  0.1839
 3091TIP3    H230689   5.734   3.909  10.987 -0.2116 -1.1020  0.3285
 3092TIP3   OH230690   4.148   3.255   4.633 -0.1402  0.0955  0.5189
 3092TIP3    H130691   4.094   3.198   4.578  0.7049  0.1986 -0.4557
 3092TIP3    H230692   4.086   3.296   4.693 -1.3749  1.1552 -1.3684
 3093TIP3   OH230693   6.199   3.534   5.690  0.2493  0.2758 -0.2335
 3093TIP3    H130694   6.130   3.578   5.740  0.3820  1.8932 -1.4180
 3093TIP3    H230695   6.160   3.450   5.664 -0.5566  0.3207  0.7566
 3094TIP3   OH230696   2.094   1.796   1.121  0.1177  0.1960  0.1238
 3094TIP3    H130697   2.057   1.863   1.063  0.0585 -0.4812 -0.6384
 3094TIP3    H230698   2.030   1.787   1.191 -0.2666  0.3511 -0.2020
 3095TIP3   OH230699   3.361   2.143  11.290 -0.2889  0.6673  0.1863
 3095TIP3    H130700   3.344   2.234  11.269 -0.3206  1.7237  4.0631
 3095TIP3    H230701   3.276   2.108  11.316  0.0582  0.1134  0.5943
 3096TIP3   OH230702   2.787   1.672  16.963  0.9380  0.2696 -0.3553
 3096TIP3    H130703   2.707   1.706  16.924  1.5130  2.5248  0.2936
 3096TIP3    H230704   2.790   1.580  16.936 -1.2659  0.4305 -1.3149
 3097TIP3   OH230705   0.181   0.374  13.327 -0.1845  0.3524 -0.2567
 3097TIP3    H130706   0.111   0.320  13.289  0.4150  0.1153 -1.0689
 3097TIP3    H230707   0.234   0.312  13.377 -0.1451  0.4002 -0.2389
 3098TIP3   OH230708   1.470   5.583  14.649  0.3444  0.3041 -0.1564
 3098TIP3    H130709   1.484   5.524  14.724  0.8738 -1.9362 -1.9006
 3098TIP3    H230710   1.556   5.620  14.632  0.0655  1.4485  0.7730
 3099TIP3   OH230711   1.720   1.433  11.741 -0.0665 -0.4391 -0.1455
 3099TIP3    H130712   1.671   1.404  11.818  0.4415 -0.3745  0.2040
 3099TIP3    H230713   1.741   1.352  11.694  0.6924 -0.5805  0.4323
 3100TIP3   OH230714   2.223   4.619   4.946  0.2203 -0.9697  0.5866
 3100TIP3    H130715   2.282   4.544   4.940 -0.1677 -1.2345  0.0817
 3100TIP3    H230716   2.211   4.631   5.041  2.4917  0.2163  0.8030
 3101TIP3   OH230717   5.482   3.717  17.233  0.2577  0.0975  0.0957
 3101TIP3    H130718   5.412   3.664  17.195  1.3993  0.2955 -2.5075
 3101TIP3    H230719   5.559   3.660  17.231  0.7712  0.7667  0.3925
 3102TIP3   OH230720   2.151   3.133  11.093 -0.4334  0.4218 -0.5944
 3102TIP3    H130721   2.139   3.201  11.027  2.2227  0.2567 -1.3927
 3102TIP3    H230722   2.130   3.051  11.047  0.5137  0.3853 -0.9845
 3103TIP3   OH230723   6.454   6.293   0.423  0.1355  0.1364 -0.1486
 3103TIP3    H130724   6.430   6.344   0.500  0.6732  0.1575  0.0085
 3103TIP3    H230725   6.533   6.246   0.449  1.1155  1.1741 -1.1156
 3104TIP3   OH230726   0.313   1.423  15.563  0.0373 -0.4374 -0.8555
 3104TIP3    H130727   0.406   1.435  15.541 -0.3797 -0.0615 -2.5676
 3104TIP3    H230728   0.314   1.364  15.638  1.7055  0.5179 -0.0568
 3105TIP3   OH230729   1.097   1.912  16.165  0.3824  0.1201 -0.3671
 3105TIP3    H130730   1.163   1.938  16.102 -1.3342  1.8187 -1.5849
 3105TIP3    H230731   1.054   1.994  16.190 -0.1842 -0.7282  1.6445
 3106TIP3   OH230732   3.806   5.389  15.460 -0.6912  0.5694  0.3542
 3106TIP3    H130733   3.752   5.328  15.510  1.1122 -0.5415  1.0133
 3106TIP3    H230734   3.818   5.464  15.518 -0.8697  0.4781  0.5108
 3107TIP3   OH230735   4.612   5.149  16.442 -0.1371  0.0412 -0.6957
 3107TIP3    H130736   4.640   5.058  16.453 -0.1069  0.1281 -0.0170
 3107TIP3    H230737   4.517   5.143  16.426 -0.8785  0.0327  2.8445
 3108TIP3   OH230738   1.203   5.575  16.676 -0.3811  0.1782 -0.1461
 3108TIP3    H130739   1.273   5.562  16.741 -0.1718  0.8123 -0.2400
 3108TIP3    H230740   1.128   5.527  16.712 -0.0089 -0.2082  0.1336
 3109TIP3   OH230741   6.247   5.682  10.363  0.0573  0.3834 -0.2139
 3109TIP3    H130742   6.170   5.628  10.379  0.1226  0.0624 -0.9337
 3109TIP3    H230743   6.319   5.634  10.406  0.5237 -1.3091 -2.6408
 3110TIP3   OH230744   0.123   5.778   2.638 -0.0006 -0.4502 -0.0103
 3110TIP3    H130745   0.157   5.861   2.671  0.2397 -0.7059  0.3871
 3110TIP3    H230746   0.079   5.801   2.556 -1.8999  0.4628  1.1718
 3111TIP3   OH230747   4.320   2.829  13.383 -0.0809 -1.0874 -1.1682
 3111TIP3    H130748   4.335   2.876  13.301 -1.8816 -0.2725 -1.0778
 3111TIP3    H230749   4.300   2.898  13.446  0.9807 -1.7267 -0.0968
 3112TIP3   OH230750   0.532   2.744   4.884  0.4961 -0.1027 -1.1446
 3112TIP3    H130751   0.533   2.677   4.816  2.1992 -0.5248 -0.7574
 3112TIP3    H230752   0.612   2.728   4.935 -0.2066  0.8317  0.3328
 3113TIP3   OH230753   3.240   0.962   2.984  0.3604  0.2009  0.0832
 3113TIP3    H130754   3.153   0.927   2.962 -0.3126  2.0718 -0.4922
 3113TIP3    H230755   3.300   0.889   2.970 -1.1956 -1.4367  1.4184
 3114TIP3   OH230756   3.674   2.801  12.510 -0.1414 -0.0175 -0.1688
 3114TIP3    H130757   3.758   2.783  12.469 -0.2661  0.4165 -0.6256
 3114TIP3    H230758   3.675   2.751  12.592  1.5408  1.8728  1.0531
 3115TIP3   OH230759   4.344   2.667  15.299  0.0471  0.2918 -1.2070
 3115TIP3    H130760   4.270   2.716  15.334  1.2641  1.2853  0.1082
 3115TIP3    H230761   4.317   2.576  15.306  0.0707  0.4154  2.2144
 3116TIP3   OH230762   0.599   0.581  12.854 -0.1698  0.0960  0.4647
 3116TIP3    H130763   0.689   0.587  12.821 -0.1041 -0.0842  0.6072
 3116TIP3    H230764   0.544   0.595  12.777 -0.0211 -0.8103  0.1786
 3117TIP3   OH230765   2.420   1.185   1.225  0.6022  0.2792 -0.5981
 3117TIP3    H130766   2.482   1.256   1.208  1.4644 -0.1664  0.5799
 3117TIP3    H230767   2.420   1.175   1.320 -0.5749 -0.3633 -0.6544
 3118TIP3   OH230768   6.496   0.865  11.539  0.6649  0.6069  0.3872
 3118TIP3    H130769   6.478   0.775  11.512 -0.3273  0.9176 -0.0398
 3118TIP3    H230770   6.546   0.903  11.467  0.6130  0.5583  0.3257
 3119TIP3   OH230771   4.469   2.486  12.124  0.0115 -0.2327  0.4850
 3119TIP3    H130772   4.520   2.427  12.069 -0.9580 -0.0609 -0.6670
 3119TIP3    H230773   4.524   2.564  12.133 -0.3765  0.3505 -1.5659
 3120TIP3   OH230774   2.387   5.127  17.570 -0.2213  0.3507  0.0645
 3120TIP3    H130775   2.404   5.195  17.505  1.1140 -1.1972 -1.2978
 3120TIP3    H230776   2.301   5.092  17.547 -1.1100  1.7862  1.0279
 3121TIP3   OH230777   4.079   2.348  16.656 -0.4868 -0.3333  0.1320
 3121TIP3    H130778   4.133   2.355  16.578 -0.5549  1.8927  0.2354
 3121TIP3    H230779   3.989   2.344  16.623 -0.5169  0.6210  0.0685
 3122TIP3   OH230780   1.606   6.538   4.249  0.2971  0.1039 -0.4624
 3122TIP3    H130781   1.627   6.445   4.250 -0.2175 -0.0124  1.3049
 3122TIP3    H230782   1.553   6.553   4.327  0.6898  1.9492 -0.4855
 3123TIP3   OH230783   2.794   6.384  13.993  0.0322 -0.0892 -0.1130
 3123TIP3    H130784   2.738   6.412  13.920 -0.9034 -2.8867 -0.5812
 3123TIP3    H230785   2.880   6.371  13.954 -0.5175 -1.7876 -0.8261
 3124TIP3   OH230786   6.403   2.326  15.606 -0.2907 -0.3060  0.0151
 3124TIP3    H130787   6.307   2.326  15.610 -0.3582 -2.1796 -0.4744
 3124TIP3    H230788   6.423   2.292  15.518  0.8496  1.2538 -0.3744
 3125TIP3   OH230789   4.594   5.557  12.733  0.3179  0.6830 -0.5957
 3125TIP3    H130790   4.544   5.623  12.685 -2.1850  0.9627  2.1301
 3125TIP3    H230791   4.528   5.498  12.770  2.1378 -0.2380  1.4366
 3126TIP3   OH230792   2.647   2.130   6.423 -0.2857 -0.0369  0.1031
 3126TIP3    H130793   2.680   2.209   6.465 -1.4354  0.9566 -0.7906
 3126TIP3    H230794   2.704   2.118   6.347 -0.0374 -0.1371  0.3039
 3127TIP3   OH230795   0.955   2.606  15.058  0.3999 -0.4974 -0.0299
 3127TIP3    H130796   0.883   2.606  14.996  0.5328  0.9746 -0.2183
 3127TIP3    H230797   1.033   2.592  15.004  0.3611 -0.8586  0.0106
 3128TIP3   OH230798   2.690   2.441  15.607 -0.0778 -0.5441  0.3611
 3128TIP3    H130799   2.742   2.366  15.636 -0.9359 -1.1325  0.4193
 3128TIP3    H230800   2.691   2.435  15.511  1.4240  0.4759  0.2883
 3129TIP3   OH230801   3.358   0.764   1.800  0.7253  0.5394  0.0864
 3129TIP3    H130802   3.440   0.801   1.833 -0.2368  1.2536  1.8190
 3129TIP3    H230803   3.297   0.773   1.873 -0.9415  0.1585 -1.2013
 3130TIP3   OH230804   5.574   6.229   4.652 -0.6609 -0.0835 -0.4174
 3130TIP3    H130805   5.547   6.319   4.630 -0.5264  0.0153 -0.1818
 3130TIP3    H230806   5.584   6.229   4.747  0.6661  0.0399 -0.5307
 3131TIP3   OH230807   2.566   1.787  11.241 -0.5110 -0.2432 -0.1135
 3131TIP3    H130808   2.594   1.708  11.195  0.0847  1.1751 -2.3391
 3131TIP3    H230809   2.633   1.852  11.219 -1.8418  1.3193  0.2970
 3132TIP3   OH230810   4.691   2.973   5.532 -0.0139  0.6671  0.7366
 3132TIP3    H130811   4.744   2.932   5.464 -0.3436 -0.3049  1.0446
 3132TIP3    H230812   4.679   3.063   5.503 -0.0630  0.2888 -0.4454
 3133TIP3   OH230813   3.828   3.312   0.110  0.2608 -0.2564  0.0617
 3133TIP3    H130814   3.800   3.221   0.104  1.5547 -0.7683  1.4009
 3133TIP3    H230815   3.795   3.352   0.030  0.6894 -2.1735 -1.1328
 3134TIP3   OH230816   2.542   6.336   2.740  0.0191  0.1306  0.8785
 3134TIP3    H130817   2.602   6.265   2.765 -1.0487 -0.7124  1.0970
 3134TIP3    H230818   2.542   6.395   2.816  0.5002  0.1067  0.9042
 3135TIP3   OH230819   1.999   3.451  14.760 -0.2403 -0.4376 -0.1697
 3135TIP3    H130820   1.943   3.407  14.697 -0.8955 -0.0554  0.1292
 3135TIP3    H230821   1.949   3.529  14.786  0.4858 -0.0182  0.0039
 3136TIP3   OH230822   1.185   5.174   5.386  0.3570  0.2125  0.2177
 3136TIP3    H130823   1.241   5.218   5.323  0.7431  0.1793  0.5312
 3136TIP3    H230824   1.204   5.081   5.375 -0.5109  0.1043 -0.4945
 3137TIP3   OH230825   3.696   0.833   4.530  1.1220  0.3578 -0.5130
 3137TIP3    H130826   3.762   0.771   4.498  1.1757 -0.1624  0.5540
 3137TIP3    H230827   3.629   0.777   4.569  1.0333  0.9625  0.2070
 3138TIP3   OH230828   2.572   3.545   0.380 -0.2165  0.7612 -0.5268
 3138TIP3    H130829   2.564   3.487   0.304 -0.2401  1.2816 -0.9261
 3138TIP3    H230830   2.482   3.562   0.408 -0.2101 -1.7346  1.4300
 3139TIP3   OH230831   5.928   1.171   5.190  0.1853 -0.3167 -0.2594
 3139TIP3    H130832   6.017   1.200   5.172  0.7132 -1.5469  0.2859
 3139TIP3    H230833   5.936   1.108   5.261 -0.9764 -1.3469 -0.9828
 3140TIP3   OH230834   4.886   2.089  12.650  0.4826 -0.3919  0.7071
 3140TIP3    H130835   4.967   2.105  12.602 -0.4484  0.7918 -0.5875
 3140TIP3    H230836   4.837   2.171  12.642  0.4865  0.0964  4.2542
 3141TIP3   OH230837   6.513   4.528  13.017  0.0506 -0.4687  0.2747
 3141TIP3    H130838   6.599   4.571  13.025 -0.4623  0.9507 -1.2141
 3141TIP3    H230839   6.527   4.440  13.052  1.6374  0.3015  1.7422
 3142TIP3   OH230840   4.943   2.863  14.950  0.5186  0.4368 -0.0960
 3142TIP3    H130841   5.012   2.892  14.891 -0.1857  1.0064 -0.6551
 3142TIP3    H230842   4.906   2.785  14.907  1.8555 -0.8549  0.9947
 3143TIP3   OH230843   2.226   6.648   3.204  0.1749  0.5345  0.0130
 3143TIP3    H130844   2.173   6.570   3.187  1.3389 -0.6078  1.3854
 3143TIP3    H230845   2.167   6.721   3.187 -0.9436 -0.6149 -1.3662
 3144TIP3   OH230846   4.725   1.180   4.004  0.3465 -0.3029 -0.0842
 3144TIP3    H130847   4.761   1.265   4.030  0.8090  0.0607 -1.7876
 3144TIP3    H230848   4.639   1.201   3.967  0.3388 -0.5966 -0.2368
 3145TIP3   OH230849   2.985   6.566  10.914 -0.7893  0.7771 -0.0400
 3145TIP3    H130850   3.054   6.522  10.963 -1.0525  1.1441  0.6740
 3145TIP3    H230851   3.031   6.612  10.844 -0.5221 -0.8066 -0.9782
 3146TIP3   OH230852   5.255   4.879  11.400  0.0890  0.0542 -0.2902
 3146TIP3    H130853   5.273   4.787  11.378  0.1209 -0.2030  0.7470
 3146TIP3    H230854   5.222   4.875  11.490 -2.6252  0.7746 -1.1741
 3147TIP3   OH230855   4.473   1.484   6.813 -0.1808  0.9620  0.0699
 3147TIP3    H130856   4.431   1.466   6.897  0.1715 -0.6501 -0.0736
 3147TIP3    H230857   4.480   1.580   6.810 -1.8421  1.1538  1.0562
 3148TIP3   OH230858   6.642   1.627  10.537 -0.1164  0.2663  0.7455
 3148TIP3    H130859   6.555   1.654  10.568 -0.9707 -1.7445  0.2890
 3148TIP3    H230860   6.656   1.541  10.577  0.4983 -0.6006 -1.2113
 3149TIP3   OH230861   0.722   4.666  14.576 -0.1733 -0.3096  0.5434
 3149TIP3    H130862   0.655   4.599  14.562  1.4189 -1.7177 -0.7539
 3149TIP3    H230863   0.720   4.719  14.496  0.8105 -0.9016  0.1088
 3150TIP3   OH230864   0.882   1.926   3.322 -1.1523 -0.1344  0.4922
 3150TIP3    H130865   0.888   1.997   3.257 -2.1392  0.0881  0.6246
 3150TIP3    H230866   0.802   1.879   3.298 -2.4632  0.9477  2.5008
 3151TIP3   OH230867   6.003   4.118   5.756 -0.0029 -0.6033  0.5346
 3151TIP3    H130868   6.068   4.175   5.796  0.3554  0.4406 -1.4074
 3151TIP3    H230869   6.033   4.107   5.666 -0.2546 -3.6034  0.7006
 3152TIP3   OH230870   0.398   4.546   2.900 -0.1953  0.0926 -0.2454
 3152TIP3    H130871   0.409   4.610   2.970 -1.9254 -0.2662  0.4085
 3152TIP3    H230872   0.453   4.579   2.828  0.5767  1.1664  0.8063
 3153TIP3   OH230873   2.245   3.736  10.925 -0.3930 -0.5143 -0.3280
 3153TIP3    H130874   2.318   3.711  10.982 -1.2739 -0.3275  0.9229
 3153TIP3    H230875   2.223   3.825  10.952 -0.6674 -0.3265 -1.1416
 3154TIP3   OH230876   3.046   4.312  11.864  1.0923  0.5088 -0.1203
 3154TIP3    H130877   3.054   4.404  11.891  1.8897  0.1204  1.0159
 3154TIP3    H230878   3.001   4.270  11.937  0.6756  0.0011 -0.6648
 3155TIP3   OH230879   3.385   3.468   4.723 -1.2067  0.6359  0.1986
 3155TIP3    H130880   3.317   3.512   4.773 -1.1713  1.4971 -0.4686
 3155TIP3    H230881   3.382   3.377   4.751 -4.4978  0.0109 -1.7587
 3156TIP3   OH230882   4.166   1.837   0.319  0.4890  0.9128 -0.6283
 3156TIP3    H130883   4.222   1.872   0.250  0.8352  0.0106 -0.8248
 3156TIP3    H230884   4.221   1.840   0.398  0.9767 -0.3164 -0.8941
 3157TIP3   OH230885   2.141   6.098  12.729  0.1040  0.4837 -0.0118
 3157TIP3    H130886   2.210   6.033  12.744 -0.6177 -0.3247 -0.1004
 3157TIP3    H230887   2.147   6.157  12.803  0.3972 -0.0280  0.3776
 3158TIP3   OH230888   1.640   0.700  16.094 -0.0812  0.7985 -0.0174
 3158TIP3    H130889   1.654   0.618  16.140 -1.2107  0.6435  0.0823
 3158TIP3    H230890   1.713   0.707  16.032  1.4572  0.9995  1.7398
 3159TIP3   OH230891   4.432   5.414   0.097 -0.3621 -0.2236 -0.4357
 3159TIP3    H130892   4.509   5.401   0.043  0.1423 -0.8822  0.4214
 3159TIP3    H230893   4.358   5.396   0.038  0.1988 -2.1500 -0.6060
 3160TIP3   OH230894   2.224   3.741  11.796 -0.3804 -0.0559 -0.4097
 3160TIP3    H130895   2.226   3.771  11.705 -1.0506 -1.0589 -0.7668
 3160TIP3    H230896   2.315   3.746  11.825 -0.0922 -0.1579 -1.2796
 3161TIP3   OH230897   5.248   1.944   1.748  0.0662 -0.6454 -0.1390
 3161TIP3    H130898   5.183   2.010   1.775  0.3763 -0.0056 -0.8921
 3161TIP3    H230899   5.204   1.893   1.680 -0.1299 -1.1278  0.3533
 3162TIP3   OH230900   3.568   4.577  13.751  0.0092 -0.9075 -0.0480
 3162TIP3    H130901   3.567   4.617  13.664 -0.6382  0.0737  0.3902
 3162TIP3    H230902   3.659   4.582  13.779 -0.4559  3.5248  1.3970
 3163TIP3   OH230903   5.676   5.694   3.961 -0.4417  0.3084 -0.1965
 3163TIP3    H130904   5.588   5.685   3.997 -0.7231 -2.5188 -1.2981
 3163TIP3    H230905   5.663   5.735   3.876 -0.9193 -1.1361 -0.8639
 3164TIP3   OH230906   2.456   0.835   4.460 -0.7021  0.4759  0.5095
 3164TIP3    H130907   2.532   0.776   4.460 -0.8263  0.2498  2.5098
 3164TIP3    H230908   2.380   0.776   4.455 -0.7835  0.6341 -0.2182
 3165TIP3   OH230909   1.775   4.168  14.834 -0.1404 -0.6675 -0.2075
 3165TIP3    H130910   1.688   4.134  14.819 -0.3538 -0.5059  0.5955
 3165TIP3    H230911   1.804   4.201  14.748 -0.7765 -0.9151 -0.5182
 3166TIP3   OH230912   1.511   0.308  12.304 -0.4899  0.3588  0.2256
 3166TIP3    H130913   1.440   0.310  12.240 -1.0511 -0.2599  0.8193
 3166TIP3    H230914   1.469   0.284  12.386  0.4367 -0.2467  0.5358
 3167TIP3   OH230915   5.828   0.108  14.300  0.5890  0.4433  0.0886
 3167TIP3    H130916   5.827   0.098  14.205 -2.3674 -1.0852  0.1734
 3167TIP3    H230917   5.752   0.163  14.319 -0.1949 -1.1256  1.6794
 3168TIP3   OH230918   1.117   5.800   0.708  0.2965 -0.0611 -0.0930
 3168TIP3    H130919   1.210   5.822   0.706  0.2093  0.3896  0.6041
 3168TIP3    H230920   1.093   5.791   0.616  0.8827  0.4532 -0.3068
 3169TIP3   OH230921   3.470   4.229  15.171  0.5219  0.3377 -0.3391
 3169TIP3    H130922   3.412   4.305  15.161  0.2144  0.0567 -0.7465
 3169TIP3    H230923   3.415   4.163  15.214  1.5008  1.1610  2.3841
 3170TIP3   OH230924   5.342   0.272  16.658  0.1552  0.0497 -0.0544
 3170TIP3    H130925   5.391   0.304  16.582  0.7103 -0.4814  0.0757
 3170TIP3    H230926   5.251   0.295  16.639 -0.1633 -2.5298 -2.2173
 3171TIP3   OH230927   4.649   6.699   3.261  0.2218 -0.4777  0.9101
 3171TIP3    H130928   4.616   6.771   3.208 -1.2389 -0.7972  1.3470
 3171TIP3    H230929   4.698   6.742   3.332 -1.0738  0.1303  1.4627
 3172TIP3   OH230930   4.632   0.279   6.587 -0.1670  0.2838  0.6660
 3172TIP3    H130931   4.574   0.350   6.561  1.6607  1.2914 -0.9646
 3172TIP3    H230932   4.707   0.322   6.627  0.4060 -0.8047  0.8205
 3173TIP3   OH230933   1.888   4.808  12.861 -0.1648 -0.2433 -0.1542
 3173TIP3    H130934   1.857   4.738  12.918 -1.4034 -0.8703 -1.5168
 3173TIP3    H230935   1.983   4.804  12.867 -0.2238  0.2734  2.4608
 3174TIP3   OH230936   4.929   1.311   1.402  0.4624 -0.1438 -0.0074
 3174TIP3    H130937   4.880   1.254   1.461  2.3555  0.2669  2.1031
 3174TIP3    H230938   4.998   1.255   1.367  1.9611  0.6075  1.6026
 3175TIP3   OH230939   4.001   4.693   1.579  0.6317 -0.0845  0.2445
 3175TIP3    H130940   3.921   4.639   1.577  1.4902 -1.4440  0.9186
 3175TIP3    H230941   4.029   4.697   1.488  1.2424 -1.9284  0.2961
 3176TIP3   OH230942   5.770   0.084  15.804 -0.3715 -0.0052  0.5529
 3176TIP3    H130943   5.816   0.078  15.888 -0.0313 -2.4568  0.2654
 3176TIP3    H230944   5.837   0.110  15.741 -0.2415  0.1692  0.7643
 3177TIP3   OH230945   2.916   4.457   5.097 -0.2736  0.1539 -0.0534
 3177TIP3    H130946   2.840   4.402   5.081  0.2004 -1.4090  2.3722
 3177TIP3    H230947   2.981   4.428   5.033 -0.7661 -0.6007 -0.2217
 3178TIP3   OH230948   0.504   2.419   3.182 -0.4551 -0.8882 -0.0685
 3178TIP3    H130949   0.513   2.428   3.277 -1.8471 -1.6645  0.1678
 3178TIP3    H230950   0.520   2.326   3.165  2.5988 -0.2886 -1.0024
 3179TIP3   OH230951   4.495   3.744   4.613  0.0820  0.3683 -0.5272
 3179TIP3    H130952   4.425   3.767   4.552 -1.2175 -1.3260  0.2262
 3179TIP3    H230953   4.454   3.684   4.675  1.5454  1.4479  1.6100
 3180TIP3   OH230954   2.680   4.715   3.470 -0.1282 -0.2806  0.0969
 3180TIP3    H130955   2.715   4.673   3.392 -0.2601  1.1820 -0.7785
 3180TIP3    H230956   2.693   4.650   3.540  1.8519 -0.8394 -0.7205
 3181TIP3   OH230957   2.525   1.497  14.096 -0.3155  0.1456  0.7863
 3181TIP3    H130958   2.475   1.554  14.154 -0.6773 -3.1055  4.0037
 3181TIP3    H230959   2.464   1.427  14.072  0.9752 -0.6529 -0.3374
 3182TIP3   OH230960   1.123   3.676  15.532 -0.2348 -0.9054  0.2181
 3182TIP3    H130961   1.174   3.720  15.464 -2.2087 -0.8149 -1.2676
 3182TIP3    H230962   1.190   3.638  15.590  1.5211  1.8100  0.1579
 3183TIP3   OH230963   2.299   2.043  16.771  0.2426 -0.4708  0.0790
 3183TIP3    H130964   2.328   1.952  16.774  1.3244 -0.1901 -1.1001
 3183TIP3    H230965   2.247   2.049  16.691  0.3979 -0.0008  0.0109
 3184TIP3   OH230966   1.914   3.059   2.278  0.4229  0.0805 -0.1547
 3184TIP3    H130967   1.990   3.116   2.264 -0.4625  1.2278 -0.4308
 3184TIP3    H230968   1.903   3.057   2.373  2.0119 -1.7869  0.0663
 3185TIP3   OH230969   1.648   1.875  13.566  0.1304 -0.1540  0.0070
 3185TIP3    H130970   1.737   1.870  13.601 -0.0760 -0.3019  0.5188
 3185TIP3    H230971   1.659   1.912  13.478  0.7550 -0.7385 -0.1700
 3186TIP3   OH230972   1.181   0.152   4.891 -0.8012 -0.6047  0.3670
 3186TIP3    H130973   1.231   0.142   4.972 -0.1950  1.5122  0.3107
 3186TIP3    H230974   1.151   0.243   4.893 -1.6613 -0.8181 -1.3025
 3187TIP3   OH230975   3.526   6.154   6.101  0.4224  0.3649 -0.4273
 3187TIP3    H130976   3.576   6.219   6.052  1.3593  0.7913  1.0499
 3187TIP3    H230977   3.587   6.120   6.166  0.4787 -3.1495 -2.0641
 3188TIP3   OH230978   3.601   0.947   0.082 -0.2862 -0.0323  0.0831
 3188TIP3    H130979   3.603   0.993  -0.002 -2.4285  0.3745  0.1996
 3188TIP3    H230980   3.649   1.005   0.142 -1.0910  1.0231 -0.2686
 3189TIP3   OH230981   3.760   3.681   1.503  0.0050 -0.4000  0.1091
 3189TIP3    H130982   3.793   3.596   1.473 -0.7905 -0.2085 -1.3823
 3189TIP3    H230983   3.839   3.729   1.529  0.6878 -0.8112 -1.1208
 3190TIP3   OH230984   0.087   1.035   3.689 -0.0028 -0.1149 -0.1131
 3190TIP3    H130985   0.032   1.086   3.629 -2.5834 -1.2313  1.1724
 3190TIP3    H230986   0.125   1.100   3.748 -0.9652  0.6027 -0.2573
 3191TIP3   OH230987   1.453   2.573   5.098  0.4996  0.0630  0.3088
 3191TIP3    H130988   1.482   2.612   5.016  1.6529 -0.1790  0.5837
 3191TIP3    H230989   1.470   2.479   5.088  0.6433  0.0306  0.8144
 3192TIP3   OH230990   0.722   5.955   3.710  0.1577 -0.3345  0.0565
 3192TIP3    H130991   0.696   5.871   3.673  0.9137 -0.4667 -0.1965
 3192TIP3    H230992   0.639   6.001   3.727 -0.2781 -1.3148  0.6604
 3193TIP3   OH230993   2.277   5.459   5.123  0.5307 -0.5272 -0.4280
 3193TIP3    H130994   2.281   5.542   5.170 -1.8239  1.1631 -2.8471
 3193TIP3    H230995   2.354   5.459   5.066 -0.2019  0.7862 -1.4689
 3194TIP3   OH230996   5.029   0.920   4.924  0.0407  0.1269 -0.5935
 3194TIP3    H130997   4.990   0.853   4.979 -1.6301 -0.2134 -2.1076
 3194TIP3    H230998   5.014   0.890   4.834  2.1884  0.9293 -1.2909
 3195TIP3   OH230999   2.065   3.163  14.180 -0.7667  0.6120  0.4252
 3195TIP3    H131000   2.060   3.102  14.106  0.1895  2.3298 -1.1223
 3195TIP3    H231001   2.015   3.120  14.249  1.4001 -2.8285  0.0830
 3196TIP3   OH231002   4.931   4.494   1.342  0.4648  0.1416  0.0977
 3196TIP3    H131003   4.909   4.578   1.301  2.7654  0.3724 -0.8307
 3196TIP3    H231004   4.889   4.428   1.287 -1.4989  0.6082  0.9247
 3197TIP3   OH231005   1.301   2.337  10.803 -0.0977 -0.0501 -0.2901
 3197TIP3    H131006   1.354   2.263  10.774  0.1555 -0.4453  1.1138
 3197TIP3    H231007   1.215   2.299  10.821  0.6442 -0.5465  2.6983
 3198TIP3   OH231008   0.073   3.385   2.243  0.1089  0.6930 -0.3402
 3198TIP3    H131009  -0.009   3.350   2.208  0.5717  0.5254 -1.2946
 3198TIP3    H231010   0.077   3.352   2.332 -0.2114 -0.4223 -0.7220
 3199TIP3   OH231011   1.860   2.785  14.338 -0.3060  0.2868  0.0121
 3199TIP3    H131012   1.778   2.769  14.385 -0.9028  3.0873  0.1292
 3199TIP3    H231013   1.859   2.724  14.265 -1.5740 -1.0173  1.0661
 3200TIP3   OH231014   1.995   3.277   2.777  0.3258 -0.0935  0.0396
 3200TIP3    H131015   2.057   3.341   2.812  1.0598 -1.4310  1.3093
 3200TIP3    H231016   2.032   3.192   2.803  0.0060 -1.1205 -2.5861
 3201TIP3   OH231017   2.849   0.633  12.296  0.2096  0.2812 -0.2727
 3201TIP3    H131018   2.832   0.560  12.356  1.2281 -0.3238 -0.6877
 3201TIP3    H231019   2.764   0.674  12.283 -0.7122 -1.8162 -1.2673
 3202TIP3   OH231020   2.070   5.679   1.609  0.7434 -0.0070 -0.1545
 3202TIP3    H131021   2.030   5.644   1.689  0.3575 -0.3849 -0.5126
 3202TIP3    H231022   2.105   5.765   1.636 -0.0327  0.1945  0.2367
 3203TIP3   OH231023   3.615   0.025   3.548 -0.2714 -0.0689 -0.7135
 3203TIP3    H131024   3.525  -0.003   3.530 -0.0829 -0.9459 -0.3593
 3203TIP3    H231025   3.665  -0.005   3.473 -0.0193 -0.9636 -0.2037
 3204TIP3   OH231026   5.718   4.288   0.518 -0.2560 -0.1769 -0.3814
 3204TIP3    H131027   5.767   4.354   0.567 -0.7413  1.0602 -1.4926
 3204TIP3    H231028   5.772   4.209   0.522  0.3219  0.2684  1.0128
 3205TIP3   OH231029   5.399   3.772   1.838 -0.2628 -0.2621  0.1038
 3205TIP3    H131030   5.318   3.818   1.816  0.0791 -0.4474 -1.7125
 3205TIP3    H231031   5.381   3.680   1.819 -0.1297 -0.5334  1.2450
 3206TIP3   OH231032   4.314   5.339  10.921  0.3480  0.6190  0.1670
 3206TIP3    H131033   4.252   5.374  10.857  1.3493  0.0595 -1.1601
 3206TIP3    H231034   4.359   5.268  10.874 -2.1760 -3.2138  2.8753
 3207TIP3   OH231035   5.510   0.019   1.327  0.0609  0.4700  0.5458
 3207TIP3    H131036   5.559   0.077   1.385 -0.9823  0.5176  1.3987
 3207TIP3    H231037   5.567  -0.057   1.315  1.5388  1.7036 -0.7391
 3208TIP3   OH231038   5.192   0.359   1.233  0.5019  0.0694  0.2272
 3208TIP3    H131039   5.196   0.312   1.150 -3.1293 -1.7964  0.9028
 3208TIP3    H231040   5.224   0.295   1.297 -0.5233  0.0048  0.6884
 3209TIP3   OH231041   2.686   5.849  15.401 -0.0317  0.4421  0.3641
 3209TIP3    H131042   2.591   5.861  15.393  0.0402  0.3199 -0.8841
 3209TIP3    H231043   2.719   5.934  15.429 -0.0654  1.9511 -3.5253
 3210TIP3   OH231044   6.198   3.963   1.441 -0.2674 -0.2993  0.5031
 3210TIP3    H131045   6.151   3.921   1.368  1.8977 -0.3385 -0.9541
 3210TIP3    H231046   6.162   3.921   1.519 -3.6721  0.7012 -0.3355
 3211TIP3   OH231047   6.567   5.029   0.630 -0.0223  0.4779  0.7792
 3211TIP3    H131048   6.626   4.977   0.576 -1.7902 -0.1612 -0.6467
 3211TIP3    H231049   6.480   5.012   0.594 -1.3723 -0.1528  3.9855
 3212TIP3   OH231050   6.239   5.832   1.662 -0.2417  0.4840 -0.2507
 3212TIP3    H131051   6.249   5.798   1.751 -1.1371 -0.0049 -0.3322
 3212TIP3    H231052   6.146   5.854   1.654 -0.4414 -0.7023 -1.4941
 3213TIP3   OH231053   0.946   1.751  16.716  0.1184  0.0325 -0.4476
 3213TIP3    H131054   0.876   1.761  16.652 -0.0244 -0.9630 -0.4606
 3213TIP3    H231055   0.976   1.661  16.705 -0.2698 -0.3388  1.2584
 3214TIP3   OH231056   1.605   2.131   0.121  0.7296 -0.0402 -0.4466
 3214TIP3    H131057   1.622   2.151   0.028  1.2956 -1.7332 -0.7337
 3214TIP3    H231058   1.681   2.167   0.167  1.9691 -1.7886 -1.0055
 3215TIP3   OH231059   2.757   6.091  15.503 -0.4614  0.1155  0.0892
 3215TIP3    H131060   2.824   6.058  15.562 -0.2255 -0.5892 -0.5537
 3215TIP3    H231061   2.788   6.179  15.479 -0.0754  0.0324  0.2698
 3216TIP3   OH231062   5.148   5.900   4.429  0.0383  0.5360 -0.2636
 3216TIP3    H131063   5.213   5.873   4.494  1.2098  2.4903 -0.5424
 3216TIP3    H231064   5.092   5.963   4.476 -1.2302 -0.5644 -0.2429
 3217TIP3   OH231065   3.424   5.409  16.114  0.1298 -0.0169  0.0091
 3217TIP3    H131066   3.374   5.371  16.186 -0.7074 -2.1043 -1.5561
 3217TIP3    H231067   3.504   5.357  16.111 -0.2926 -0.6436 -1.1433
 3218TIP3   OH231068   4.236   1.011   4.601 -0.3069 -0.1937 -0.1990
 3218TIP3    H131069   4.187   1.006   4.519  1.3817 -0.4564 -1.2470
 3218TIP3    H231070   4.302   0.942   4.594 -0.0342 -0.1286  1.3393
 3219TIP3   OH231071   5.593   2.287  16.594  0.1182 -0.8069  0.3531
 3219TIP3    H131072   5.595   2.193  16.616 -1.5252 -0.6943  1.1187
 3219TIP3    H231073   5.547   2.291  16.510  1.2769 -0.7615 -0.2990
 3220TIP3   OH231074   6.320   4.319   5.707  0.0008 -0.5216 -0.6895
 3220TIP3    H131075   6.284   4.293   5.792 -1.0563  1.3404 -0.5169
 3220TIP3    H231076   6.392   4.379   5.728  0.0652 -0.4514 -1.0987
 3221TIP3   OH231077   1.057   6.315  12.201 -0.2789  0.1877 -0.7920
 3221TIP3    H131078   1.022   6.404  12.190 -0.5754  0.1880  0.0523
 3221TIP3    H231079   0.992   6.271  12.257 -1.7466 -1.5298 -3.6376
 3222TIP3   OH231080   5.254   2.450   2.930  0.0565 -0.2953 -0.1896
 3222TIP3    H131081   5.263   2.366   2.886  1.3891  0.8256 -2.1981
 3222TIP3    H231082   5.275   2.515   2.863  2.2929  1.5239  2.0817
 3223TIP3   OH231083   2.621   1.379  12.810  0.2691  0.8235 -0.2975
 3223TIP3    H131084   2.589   1.297  12.772  0.1944  1.5257 -1.8421
 3223TIP3    H231085   2.566   1.447  12.771  1.5685  1.7693 -0.5520
 3224TIP3   OH231086   3.713   2.278   3.622  0.0979 -0.0546  0.4525
 3224TIP3    H131087   3.806   2.286   3.642 -0.5074  0.9548  3.3784
 3224TIP3    H231088   3.679   2.218   3.689 -1.5497  0.4951  0.1635
 3225TIP3   OH231089   3.571   4.137  12.972 -0.2079  0.4208 -0.0225
 3225TIP3    H131090   3.595   4.226  12.944  0.8471  0.5456  1.1717
 3225TIP3    H231091   3.608   4.080  12.905 -0.5432  0.8407 -0.5851
 3226TIP3   OH231092   3.528   6.331  14.291 -0.0667  0.2524 -0.0937
 3226TIP3    H131093   3.572   6.341  14.206 -0.7942  1.1730 -0.3940
 3226TIP3    H231094   3.589   6.368  14.354 -0.7919  2.6449 -0.6467
 3227TIP3   OH231095   6.440   2.855   4.940 -0.5646  0.0071  0.0931
 3227TIP3    H131096   6.432   2.809   4.857 -3.1348 -0.8274  0.7010
 3227TIP3    H231097   6.402   2.795   5.004  0.9641  0.8039  1.8229
 3228TIP3   OH231098   1.126   2.286   1.818 -0.3364 -0.0270  0.1280
 3228TIP3    H131099   1.126   2.293   1.914 -0.7125 -0.5953  0.1707
 3228TIP3    H231100   1.171   2.204   1.800 -1.0504 -0.3608 -0.1500
 3229TIP3   OH231101   4.189   0.220   2.476  0.2018 -0.2685  0.0258
 3229TIP3    H131102   4.171   0.233   2.383  0.4459 -0.7264 -0.0879
 3229TIP3    H231103   4.284   0.211   2.480  0.1687 -0.4918  0.2884
 3230TIP3   OH231104   2.962   6.323   3.612  0.2955  0.2133 -0.7225
 3230TIP3    H131105   3.016   6.264   3.560 -1.0934  0.9072 -3.1355
 3230TIP3    H231106   2.873   6.293   3.597 -0.2240  1.0828  0.4917
 3231TIP3   OH231107   3.518   0.307   3.740 -0.0489 -0.8439 -0.1226
 3231TIP3    H131108   3.575   0.381   3.716 -3.1188  2.4035  1.6120
 3231TIP3    H231109   3.472   0.285   3.659 -0.0005  0.0660 -0.4092
 3232TIP3   OH231110   1.162   0.499  10.824  0.0513  0.5592  0.1050
 3232TIP3    H131111   1.207   0.425  10.784 -1.3765  0.6979 -1.8962
 3232TIP3    H231112   1.171   0.570  10.761  0.0180  1.6332  1.2630
 3233TIP3   OH231113   2.367   1.091  14.314  0.5361  0.5974 -0.3249
 3233TIP3    H131114   2.386   1.023  14.250  0.2253 -0.0762  0.2851
 3233TIP3    H231115   2.299   1.054  14.370  0.2951  1.4422 -0.0326
 3234TIP3   OH231116   2.912   1.378   3.778 -0.2202  0.0327  0.0654
 3234TIP3    H131117   2.996   1.417   3.755  0.6383 -2.0891 -0.6049
 3234TIP3    H231118   2.917   1.363   3.872 -0.5578  1.4602  0.3307
 3235TIP3   OH231119   4.726   3.467   1.866  0.5657  0.3640  0.1557
 3235TIP3    H131120   4.645   3.416   1.867  0.0989  0.9311 -2.2267
 3235TIP3    H231121   4.791   3.409   1.906 -0.6893 -0.6532  0.8188
 3236TIP3   OH231122   5.741   2.695   0.385 -0.3477  0.5482  0.3825
 3236TIP3    H131123   5.673   2.763   0.388  1.6163  2.5993  2.4861
 3236TIP3    H231124   5.822   2.743   0.368  0.8153 -1.6812 -0.9247
 3237TIP3   OH231125   1.092   5.006  16.204 -0.2518 -0.0858 -0.4945
 3237TIP3    H131126   1.147   5.085  16.205 -0.5799  0.1478  0.3855
 3237TIP3    H231127   1.155   4.934  16.202  0.0548  0.1919 -1.1232
 3238TIP3   OH231128   3.891   0.973  13.393  0.0504 -0.2176  0.4441
 3238TIP3    H131129   3.938   1.048  13.430  1.3516 -0.0799 -1.3313
 3238TIP3    H231130   3.960   0.915  13.362 -0.9494 -0.8320 -0.6952
 3239TIP3   OH231131   0.139   5.586  16.342  0.0754  0.7372 -0.5060
 3239TIP3    H131132   0.185   5.502  16.344  1.1998  1.3384  0.1668
 3239TIP3    H231133   0.063   5.571  16.285  1.2967 -0.2017 -1.9782
 3240TIP3   OH231134   6.688   5.507  15.732  0.0184 -0.2998  0.2566
 3240TIP3    H131135   6.776   5.504  15.695  0.2032  0.4977  0.6088
 3240TIP3    H231136   6.660   5.598  15.722 -0.9981 -0.6542 -0.3631
 3241TIP3   OH231137   0.548   1.123  12.208  0.0243  0.1677  0.6181
 3241TIP3    H131138   0.522   1.203  12.164  2.7151  3.7563  4.7196
 3241TIP3    H231139   0.620   1.089  12.156  0.6670  2.0647  0.2012
 3242TIP3   OH231140   4.961   2.492   5.801  0.0733 -0.0116  0.0996
 3242TIP3    H131141   4.926   2.408   5.770  1.9591 -1.1498  0.8378
 3242TIP3    H231142   5.034   2.467   5.858 -0.7398  2.0802  2.2318
 3243TIP3   OH231143   2.878   5.789   5.483  0.4509 -0.2305  0.3647
 3243TIP3    H131144   2.824   5.721   5.441  0.8116 -0.9173  0.9825
 3243TIP3    H231145   2.957   5.743   5.510  0.7212  0.4570  0.7550
 3244TIP3   OH231146   4.364   4.923   1.200  0.0697 -0.0741 -0.4572
 3244TIP3    H131147   4.421   4.994   1.229 -0.8109  0.3749  0.2083
 3244TIP3    H231148   4.422   4.847   1.193  0.3792 -0.2107  2.4067
 3245TIP3   OH231149   0.228   4.248   2.408 -0.0925  0.5449 -0.2483
 3245TIP3    H131150   0.137   4.244   2.379 -0.5300  0.9004  1.0292
 3245TIP3    H231151   0.263   4.327   2.366 -0.5275  0.7140 -0.2956
 3246TIP3   OH231152   3.811   0.450  13.650  0.5461 -0.8706 -0.7173
 3246TIP3    H131153   3.869   0.512  13.604  0.5152 -0.2781  0.0151
 3246TIP3    H231154   3.869   0.404  13.710  0.0014  1.1615  1.5161
 3247TIP3   OH231155   0.537   6.295  13.250 -0.0612  0.1909  0.1111
 3247TIP3    H131156   0.532   6.379  13.296  1.7089  0.1836  0.3976
 3247TIP3    H231157   0.448   6.278  13.220 -0.1269  3.2193 -1.7980
 3248TIP3   OH231158   2.583   6.583  13.033 -0.7504 -0.7247  0.1290
 3248TIP3    H131159   2.514   6.543  12.979 -2.0496 -0.2315  1.3390
 3248TIP3    H231160   2.544   6.589  13.120  0.1154  1.3448  0.4356
 3249TIP3   OH231161   4.914   6.219   1.229 -0.1182  0.4323  0.8103
 3249TIP3    H131162   4.863   6.189   1.305 -0.0954  0.3833  0.8066
 3249TIP3    H231163   4.908   6.146   1.167 -0.4181  0.6091  0.6291
 3250TIP3   OH231164   6.577   1.308   0.640 -0.0479 -0.2619 -0.3774
 3250TIP3    H131165   6.649   1.329   0.581  0.0285 -1.1984 -0.6308
 3250TIP3    H231166   6.517   1.255   0.588 -0.1614 -0.7873  0.2744
 3251TIP3   OH231167   1.185   1.522  10.500  0.2165  0.2623  0.0932
 3251TIP3    H131168   1.100   1.563  10.486 -0.6173 -1.8798 -1.8839
 3251TIP3    H231169   1.166   1.445  10.553  1.1043  0.3117  0.4965
 3252TIP3   OH231170   1.833   4.397  10.502  0.0439  0.8094  0.0192
 3252TIP3    H131171   1.889   4.329  10.538 -1.4847 -1.1339 -1.0312
 3252TIP3    H231172   1.878   4.426  10.423 -0.5620 -1.0748 -1.0820
 3253TIP3   OH231173   6.130   0.083   6.109 -0.1875  0.1638 -0.1121
 3253TIP3    H131174   6.076   0.019   6.154 -2.8223  0.8523 -2.0721
 3253TIP3    H231175   6.069   0.152   6.083  2.1972  2.5739  0.2299
 3254TIP3   OH231176   3.514   3.481   2.809 -0.1350 -0.2396  0.1826
 3254TIP3    H131177   3.590   3.466   2.866 -0.7671  0.4518  1.2478
 3254TIP3    H231178   3.526   3.569   2.774 -0.9512  0.3011  1.2053
 3255TIP3   OH231179   4.660   4.865  13.649  0.4578 -0.0921  0.3596
 3255TIP3    H131180   4.724   4.795  13.638  0.5732 -0.3200  2.2040
 3255TIP3    H231181   4.576   4.819  13.657  0.0207  0.2005 -1.9692
 3256TIP3   OH231182   4.890   5.825  14.742 -0.2192 -0.0518  0.0117
 3256TIP3    H131183   4.972   5.841  14.788 -0.1544 -1.4389  0.4111
 3256TIP3    H231184   4.853   5.913  14.729  0.8943  0.5315  0.5921
 3257TIP3   OH231185   5.799   4.178   3.415 -0.2409 -0.5302 -0.0887
 3257TIP3    H131186   5.884   4.135   3.422 -0.0675 -0.6415 -2.1964
 3257TIP3    H231187   5.819   4.271   3.410 -0.4123 -0.3894  1.4458
 3258TIP3   OH231188   2.060   2.835   0.606  0.0899  0.4594 -0.4478
 3258TIP3    H131189   2.148   2.833   0.644  0.5632  0.5073 -1.5187
 3258TIP3    H231190   2.039   2.744   0.587 -0.3898  0.3718  0.4461
 3259TIP3   OH231191   2.312   0.614   4.685 -0.2873  0.0112 -0.0415
 3259TIP3    H131192   2.275   0.703   4.686  0.6933  0.4275  0.2749
 3259TIP3    H231193   2.267   0.568   4.755 -0.5805  0.3460 -0.0075
 3260TIP3   OH231194   3.558   3.498  16.988 -0.3834  0.2689  0.1544
 3260TIP3    H131195   3.520   3.460  17.067  0.4435 -1.2244 -0.1278
 3260TIP3    H231196   3.528   3.442  16.917  0.3093  0.5361 -0.3630
 3261TIP3   OH231197   0.222   3.540   1.927  0.0284  0.0721  0.2280
 3261TIP3    H131198   0.227   3.598   2.003  1.4645  0.6843 -0.2832
 3261TIP3    H231199   0.311   3.506   1.918 -0.1552 -0.1087 -1.0705
 3262TIP3   OH231200   6.618   4.838   5.375  0.5233 -0.4530 -0.4998
 3262TIP3    H131201   6.676   4.907   5.342  1.6322 -1.6027 -1.0351
 3262TIP3    H231202   6.637   4.832   5.468  1.4578 -0.9803 -0.7164
 3263TIP3   OH231203   3.177   2.616  15.222  0.2440  0.1031 -0.1356
 3263TIP3    H131204   3.268   2.598  15.244  0.7510  2.3761 -0.1305
 3263TIP3    H231205   3.179   2.702  15.182 -1.9949  0.4746  0.4317
 3264TIP3   OH231206   0.295   2.163  12.145  0.0123 -0.0588  0.1590
 3264TIP3    H131207   0.228   2.120  12.197  1.6070 -4.7548 -1.1635
 3264TIP3    H231208   0.376   2.151  12.196  0.6100  1.1799 -0.4520
 3265TIP3   OH231209   2.439   1.243   0.453  0.3922  0.2573 -0.1821
 3265TIP3    H131210   2.399   1.326   0.479  0.3770  0.2330 -0.1266
 3265TIP3    H231211   2.372   1.200   0.400  0.7602  0.7045 -1.0295
 3266TIP3   OH231212   5.379   6.231  12.265  0.1358  0.0589  0.0062
 3266TIP3    H131213   5.471   6.228  12.239  0.1614  0.1423  0.0858
 3266TIP3    H231214   5.352   6.321  12.245  0.7157  0.7869  2.1712
 3267TIP3   OH231215   3.213   5.849   5.354 -0.6076  0.1534  0.3050
 3267TIP3    H131216   3.214   5.903   5.433 -1.7187  1.8802 -0.8012
 3267TIP3    H231217   3.293   5.873   5.307 -1.5443  1.6281 -0.6314
 3268TIP3   OH231218   2.236   1.997   2.734 -0.0069  0.9627  0.2646
 3268TIP3    H131219   2.160   1.944   2.756  0.2108  0.9492  1.0157
 3268TIP3    H231220   2.201   2.069   2.681 -0.6022  1.1712  0.9302
 3269TIP3   OH231221   3.477   2.204   1.588 -0.4046  0.0685  0.5182
 3269TIP3    H131222   3.415   2.241   1.651  0.5842  2.3351  0.2975
 3269TIP3    H231223   3.423   2.167   1.519 -1.5051  0.6476  1.0504
 3270TIP3   OH231224   2.298   0.039  15.369  0.3489  0.0090 -0.9303
 3270TIP3    H131225   2.270   0.053  15.459  0.7720 -0.7147 -0.6798
 3270TIP3    H231226   2.226   0.073  15.316  1.2202  3.0045 -0.3880
 3271TIP3   OH231227   0.178   0.821   0.934 -0.5684 -0.1384  0.1001
 3271TIP3    H131228   0.235   0.898   0.923 -1.7996  0.5376 -2.3067
 3271TIP3    H231229   0.229   0.762   0.989  2.3159  0.6028 -1.5312
 3272TIP3   OH231230   3.442   4.080  15.510  0.3419  0.0181  0.1258
 3272TIP3    H131231   3.374   4.035  15.460  1.7421 -0.6367 -1.2752
 3272TIP3    H231232   3.515   4.090  15.448  1.9372 -0.3059  1.8721
 3273TIP3   OH231233   2.174   3.552   3.397  0.7258  0.0068  0.4390
 3273TIP3    H131234   2.082   3.576   3.412  0.7643  2.3152 -2.2359
 3273TIP3    H231235   2.208   3.532   3.484 -2.5353 -2.0153  1.4375
 3274TIP3   OH231236   2.216   2.381  13.156  0.2552 -0.0486  0.7482
 3274TIP3    H131237   2.241   2.472  13.141  0.2257 -0.1510  0.0329
 3274TIP3    H231238   2.203   2.345  13.068  0.4582 -0.7999  1.0176
 3275TIP3   OH231239   6.261   2.386   3.047  0.3993  0.6288  0.2100
 3275TIP3    H131240   6.241   2.337   2.967 -2.0282 -0.3734  1.3275
 3275TIP3    H231241   6.356   2.398   3.045  0.6302 -0.9656 -1.9002
 3276TIP3   OH231242   3.728   2.981   1.201 -0.6572 -0.4595 -0.6980
 3276TIP3    H131243   3.674   3.009   1.274 -1.2273 -0.5354 -1.0874
 3276TIP3    H231244   3.818   2.988   1.234 -0.9340 -1.1743  0.2438
 3277TIP3   OH231245   0.073   6.128  11.478 -0.0065  0.0157  0.2851
 3277TIP3    H131246   0.099   6.037  11.486  1.5866  0.5900  2.5356
 3277TIP3    H231247   0.111   6.171  11.555 -0.4476  2.6361 -0.8511
 3278TIP3   OH231248   0.764   0.015  11.578 -0.0187  0.7655 -0.2087
 3278TIP3    H131249   0.735  -0.057  11.632  0.7614  0.7786  0.2452
 3278TIP3    H231250   0.798   0.080  11.640 -1.5744  1.9422 -0.5372
 3279TIP3   OH231251   6.296   1.059  11.591 -0.0716  0.0371 -0.1516
 3279TIP3    H131252   6.385   1.029  11.576  0.5469  1.0522  1.2886
 3279TIP3    H231253   6.258   0.992  11.649 -0.1497 -0.2273 -0.5048
 3280TIP3   OH231254   1.528   3.675  15.428 -0.5852  0.2346 -0.2667
 3280TIP3    H131255   1.545   3.669  15.334  1.9441  0.9235  0.0801
 3280TIP3    H231256   1.461   3.743  15.436  2.0826  3.2710 -1.4052
 3281TIP3   OH231257   1.969   2.421  14.770 -0.8530  0.5882  0.6311
 3281TIP3    H131258   2.056   2.386  14.751 -0.9062 -0.6040  2.3289
 3281TIP3    H231259   1.972   2.440  14.864 -2.5898 -0.0206  0.8443
 3282TIP3   OH231260   0.579   0.822   1.508  0.0275  0.2649 -0.0536
 3282TIP3    H131261   0.656   0.880   1.509  1.2920 -1.3225 -0.0090
 3282TIP3    H231262   0.523   0.857   1.439  1.9141  0.1271 -1.7589
 3283TIP3   OH231263   6.319   5.904  14.949 -0.6514 -0.4565  0.1729
 3283TIP3    H131264   6.403   5.935  14.916 -1.5529  1.4012 -0.5663
 3283TIP3    H231265   6.300   5.962  15.023 -1.5560 -0.4232 -0.0732
 3284TIP3   OH231266   2.223   3.944  13.235  0.1938 -0.7582 -0.0199
 3284TIP3    H131267   2.203   3.883  13.306  0.6799  0.0874  0.8687
 3284TIP3    H231268   2.162   3.920  13.165 -1.1841 -0.8048  1.1423
 3285TIP3   OH231269   1.717   4.937  15.390 -0.3551 -0.3734 -0.0562
 3285TIP3    H131270   1.765   4.913  15.311 -0.6332 -0.4256 -0.2108
 3285TIP3    H231271   1.674   4.856  15.418  0.9730 -0.7409  1.0280
 3286TIP3   OH231272   0.184   2.864  10.814 -0.1906 -0.1268 -0.0217
 3286TIP3    H131273   0.152   2.882  10.726  1.0897  0.0459 -0.4768
 3286TIP3    H231274   0.274   2.896  10.814  0.1150 -0.9109  1.0919
 3287TIP3   OH231275   5.133   0.233   3.284 -0.6582  0.2140 -0.7078
 3287TIP3    H131276   5.167   0.179   3.213  0.5237  1.5101 -1.1732
 3287TIP3    H231277   5.104   0.313   3.242 -0.4932  0.7639  0.2025
 3288TIP3   OH231278   3.884   0.719  15.844  0.4759 -0.8124  0.2977
 3288TIP3    H131279   3.794   0.693  15.826  0.1897 -1.3265  2.2670
 3288TIP3    H231280   3.878   0.774  15.922  1.6709  0.8979 -0.7474
 3289TIP3   OH231281   1.206   0.653   5.865 -0.6582 -0.1111  0.3626
 3289TIP3    H131282   1.224   0.699   5.947  0.2606  0.7765 -0.3145
 3289TIP3    H231283   1.110   0.654   5.858 -0.6860  1.8026  0.3491
 3290TIP3   OH231284   5.865   0.734  16.155  0.4161 -1.0008  0.1912
 3290TIP3    H131285   5.810   0.741  16.077 -0.9411  0.9269  1.2347
 3290TIP3    H231286   5.895   0.823  16.171  4.6365 -2.0305 -0.7582
 3291TIP3   OH231287   2.090   1.121   4.952  0.0276 -0.1452 -0.1658
 3291TIP3    H131288   2.055   1.031   4.952  0.9593 -0.5157  0.1591
 3291TIP3    H231289   2.176   1.113   4.993 -0.4929  1.1279  1.2594
 3292TIP3   OH231290   3.383   4.065  12.767  0.3744 -0.6379  0.0725
 3292TIP3    H131291   3.442   4.129  12.806 -0.8466  1.6631 -1.6412
 3292TIP3    H231292   3.406   4.064  12.674  0.0028 -2.3433 -0.0456
 3293TIP3   OH231293   2.886   2.912   5.203 -0.2778  0.3123 -0.0740
 3293TIP3    H131294   2.796   2.925   5.171 -0.0395 -1.3409 -1.5925
 3293TIP3    H231295   2.929   2.864   5.132  1.2889 -0.5385  1.3919
 3294TIP3   OH231296   5.680   1.476   5.456  0.9126  0.2720  0.1108
 3294TIP3    H131297   5.618   1.404   5.474  1.3307  0.0033  0.5009
 3294TIP3    H231298   5.717   1.496   5.542  1.0415  0.7335 -0.0553
 3295TIP3   OH231299   6.224   0.185  13.646  0.2924 -0.1863  0.0041
 3295TIP3    H131300   6.191   0.217  13.730  0.5944 -1.3066  0.5655
 3295TIP3    H231301   6.147   0.188  13.589 -0.1079 -0.1433  0.5308
 3296TIP3   OH231302   1.571   2.476   5.963 -0.0585 -0.1655 -0.2811
 3296TIP3    H131303   1.582   2.437   6.049 -0.1701 -1.5271 -0.8651
 3296TIP3    H231304   1.476   2.476   5.949 -0.0306 -0.0843 -0.4670
 3297TIP3   OH231305   0.655   0.811   4.812  0.0224  0.0548 -0.2612
 3297TIP3    H131306   0.662   0.872   4.738  0.0279 -1.1277 -1.2682
 3297TIP3    H231307   0.562   0.794   4.820  0.1426 -1.1851 -1.1826
 3298TIP3   OH231308   0.863   4.826   1.401  0.0218  0.7430 -0.8301
 3298TIP3    H131309   0.956   4.804   1.410 -0.1928  0.0403 -0.2387
 3298TIP3    H231310   0.817   4.748   1.432 -0.7939  2.3860  2.5232
 3299TIP3   OH231311   6.298   1.300   3.522  0.0406  0.2125  0.0558
 3299TIP3    H131312   6.392   1.304   3.503 -0.0642  0.0381 -0.5059
 3299TIP3    H231313   6.272   1.212   3.495  0.0554 -0.3794  1.8154
 3300TIP3   OH231314   4.026   2.536   4.456 -0.2248  0.0036  0.7675
 3300TIP3    H131315   4.097   2.571   4.401 -0.2775 -1.9395 -0.6701
 3300TIP3    H231316   4.027   2.590   4.534  2.3635  0.5377  0.4635
 3301TIP3   OH231317   1.216   3.857   3.302  0.5028  0.0977  0.4169
 3301TIP3    H131318   1.310   3.864   3.284  0.6060  0.3168  1.0438
 3301TIP3    H231319   1.205   3.895   3.388  0.0594 -1.3258  1.0168
 3302TIP3   OH231320   3.148   2.887   3.755  0.7507  0.0312 -0.1103
 3302TIP3    H131321   3.071   2.922   3.710  0.3312  2.5152  2.3192
 3302TIP3    H231322   3.123   2.886   3.847  2.2761 -2.9814  0.3681
 3303TIP3   OH231323   2.314   3.797  16.361 -0.0521  0.2519 -0.2202
 3303TIP3    H131324   2.387   3.851  16.393  0.3612 -0.3556 -0.1121
 3303TIP3    H231325   2.275   3.761  16.441 -0.0715  0.0761 -0.3078
 3304TIP3   OH231326   4.905   3.671  11.558 -0.6575 -0.4579 -0.4375
 3304TIP3    H131327   4.932   3.588  11.599  0.6716  0.0151 -0.3177
 3304TIP3    H231328   4.890   3.648  11.466  0.6357 -0.6677 -0.6147
 3305TIP3   OH231329   5.307   4.470   3.212  0.4007  0.0478  0.2004
 3305TIP3    H131330   5.263   4.528   3.149 -0.8541 -0.7423  0.3030
 3305TIP3    H231331   5.378   4.430   3.162 -0.2733 -0.1946 -0.5920
 3306TIP3   OH231332   2.973   4.337   2.367 -0.0829 -0.3404 -0.3507
 3306TIP3    H131333   3.066   4.317   2.373 -0.2296 -0.6201  2.0273
 3306TIP3    H231334   2.929   4.263   2.410 -1.2868  0.4668 -0.1311
 3307TIP3   OH231335   3.914   6.257   5.090 -0.3546 -0.7206  0.1688
 3307TIP3    H131336   3.933   6.327   5.153 -0.8653  1.1371 -1.6181
 3307TIP3    H231337   3.847   6.295   5.032  0.8355 -1.9093 -2.1230
 3308TIP3   OH231338   3.074   0.242  16.478  0.0281  0.5035 -0.2273
 3308TIP3    H131339   3.122   0.303  16.535 -2.1690  1.2266  0.9471
 3308TIP3    H231340   3.088   0.156  16.518 -2.0772  1.0751  1.9861
 3309TIP3   OH231341   4.833   6.093   4.085  0.1858 -0.6717  0.1154
 3309TIP3    H131342   4.783   6.155   4.138  2.2505 -0.2940  1.7473
 3309TIP3    H231343   4.925   6.114   4.103  0.9600 -2.5410 -1.2880
 3310TIP3   OH231344   0.419   5.779  13.828  0.1098  0.0844  0.2351
 3310TIP3    H131345   0.332   5.770  13.865 -0.0020  0.6743  0.1270
 3310TIP3    H231346   0.407   5.833  13.750  0.5177 -0.1441  0.0089
 3311TIP3   OH231347   5.718   4.489   5.042  0.0098 -0.5951  0.4127
 3311TIP3    H131348   5.785   4.426   5.014  0.5180  0.6288 -1.2911
 3311TIP3    H231349   5.733   4.500   5.136  2.2054 -0.3983  0.0889
 3312TIP3   OH231350   2.331   5.977  10.775 -0.2061  0.2672 -0.4899
 3312TIP3    H131351   2.346   5.987  10.869  0.8071 -0.2944 -0.5783
 3312TIP3    H231352   2.283   6.056  10.749 -1.8985 -0.2827  0.7676
 3313TIP3   OH231353   5.669   6.205  17.037  0.3035 -0.3306 -0.0822
 3313TIP3    H131354   5.743   6.146  17.023  0.6788 -0.0875  0.8330
 3313TIP3    H231355   5.707   6.293  17.035  0.3520 -0.2500  2.0517
 3314TIP3   OH231356   3.579   1.013  12.821 -0.0814 -0.4946  0.0387
 3314TIP3    H131357   3.518   0.995  12.749  0.3925  0.0537 -0.5005
 3314TIP3    H231358   3.666   1.000  12.783  0.2135  1.0506  0.1526
 3315TIP3   OH231359   6.138   0.726   3.528 -0.0441 -0.0009 -0.0688
 3315TIP3    H131360   6.083   0.793   3.568  0.8134  0.8688 -0.3414
 3315TIP3    H231361   6.144   0.751   3.436  0.4070 -0.3625 -0.1423
 3316TIP3   OH231362   6.067   4.216  14.107 -0.4489 -0.2936 -0.1446
 3316TIP3    H131363   5.983   4.173  14.090 -0.3192 -1.7475  2.3803
 3316TIP3    H231364   6.128   4.144  14.125  0.8488  0.8092  0.0618
 3317TIP3   OH231365   1.490   2.054  16.098 -0.4574 -0.6565  0.2671
 3317TIP3    H131366   1.475   1.960  16.089 -0.0504 -0.7124  0.1506
 3317TIP3    H231367   1.465   2.091  16.014  4.9344 -1.3684 -2.0736
 3318TIP3   OH231368   5.166   0.475   0.655 -0.1021  0.1384 -0.7871
 3318TIP3    H131369   5.140   0.385   0.678 -0.0330  0.3959  0.3789
 3318TIP3    H231370   5.179   0.518   0.740 -0.0032  1.2171 -1.3378
 3319TIP3   OH231371   4.214   5.438  14.602  0.4389  0.2676 -0.1495
 3319TIP3    H131372   4.263   5.517  14.581  0.5766  0.1121 -0.4155
 3319TIP3    H231373   4.254   5.405  14.682 -1.3370  1.9353  1.5487
 3320TIP3   OH231374   0.043   3.270  14.599  0.1348 -0.0040  0.3112
 3320TIP3    H131375  -0.009   3.243  14.675  1.1813 -1.2796  0.6010
 3320TIP3    H231376   0.096   3.343  14.631 -0.5104  0.4607  0.3621
 3321TIP3   OH231377   1.568   3.344   2.470  0.1857 -0.1374 -0.4506
 3321TIP3    H131378   1.503   3.402   2.511  0.0605  1.7845 -3.1318
 3321TIP3    H231379   1.649   3.364   2.516 -0.6270 -0.9360  1.4370
 3322TIP3   OH231380   6.459   5.979   4.173  0.4080  0.6025 -0.3894
 3322TIP3    H131381   6.423   5.927   4.101  0.1622  1.3201 -0.7918
 3322TIP3    H231382   6.484   6.062   4.133  0.9793  0.7284  0.2106
 3323TIP3   OH231383   2.115   3.171   3.422 -0.4467 -0.9789 -0.8021
 3323TIP3    H131384   2.167   3.236   3.374 -2.2573  1.0496 -0.2051
 3323TIP3    H231385   2.025   3.193   3.399 -1.2109 -1.8606  1.1954
 3324TIP3   OH231386   6.138   0.653   5.298  0.2815  0.0090  0.0383
 3324TIP3    H131387   6.142   0.608   5.214 -0.6467  0.6619 -0.3753
 3324TIP3    H231388   6.206   0.720   5.292 -0.2832  0.5470 -0.5056
 3325TIP3   OH231389   5.687   5.566   6.063  0.4008  0.2852  0.6480
 3325TIP3    H131390   5.696   5.489   6.119  1.6994  0.0662  0.1702
 3325TIP3    H231391   5.773   5.607   6.065  0.2072  0.7783 -0.4547
 3326TIP3   OH231392   1.759   5.831  13.517  0.2237  0.2484 -0.8386
 3326TIP3    H131393   1.766   5.854  13.425  1.9368 -0.1481 -0.8449
 3326TIP3    H231394   1.755   5.916  13.563  0.3471  0.4643 -1.2222
 3327TIP3   OH231395   6.074   1.054   2.579 -0.0251  0.3753 -0.2686
 3327TIP3    H131396   5.985   1.028   2.555 -0.7388  1.0165  1.4443
 3327TIP3    H231397   6.069   1.150   2.587  1.3858  0.6534 -2.1535
 3328TIP3   OH231398   4.459   1.587   1.927 -0.1253  0.0906 -0.3588
 3328TIP3    H131399   4.553   1.573   1.940  0.8299  2.3770 -3.5147
 3328TIP3    H231400   4.428   1.623   2.011  1.4586 -1.8487  1.1567
 3329TIP3   OH231401   3.619   2.034  11.332  0.5191 -0.1684 -0.1836
 3329TIP3    H131402   3.536   2.081  11.326  0.4275 -0.3070 -0.0242
 3329TIP3    H231403   3.598   1.944  11.305  0.1677 -0.7281  1.7680
 3330TIP3   OH231404   3.494   5.085  14.765  0.3620 -0.0356  0.2674
 3330TIP3    H131405   3.450   5.104  14.682  0.1606 -1.3548  0.0436
 3330TIP3    H231406   3.541   5.003  14.748  0.9410  0.0813  1.2383
 3331TIP3   OH231407   3.664   5.681  14.254 -0.0992  0.9424  0.8549
 3331TIP3    H131408   3.745   5.649  14.293  0.5614  2.6573  0.9848
 3331TIP3    H231409   3.657   5.772  14.284 -0.4986  1.7889 -1.5287
 3332TIP3   OH231410   5.182   3.641  14.261  0.3789  0.1364 -0.0244
 3332TIP3    H131411   5.252   3.688  14.307  1.1512 -0.4805 -0.5331
 3332TIP3    H231412   5.111   3.704  14.254  0.5822  0.5291  1.2128
 3333TIP3   OH231413   0.640   2.243   4.865  0.4585  0.5299 -0.3142
 3333TIP3    H131414   0.576   2.172   4.866  0.8933  0.1410 -0.1273
 3333TIP3    H231415   0.588   2.321   4.884 -0.3404  0.5377 -2.3165
 3334TIP3   OH231416   0.219   4.743  14.964  0.4430  0.0488 -0.8191
 3334TIP3    H131417   0.184   4.767  14.878  0.3952  0.2541 -0.7443
 3334TIP3    H231418   0.256   4.656  14.952 -2.4567 -1.3873 -0.2588
 3335TIP3   OH231419   4.524   6.421   2.507 -0.0462 -0.0984  0.0657
 3335TIP3    H131420   4.475   6.339   2.496  2.6303 -1.7317 -0.5438
 3335TIP3    H231421   4.607   6.394   2.546  1.1758  2.2687 -0.7389
 3336TIP3   OH231422   2.724   1.169  12.363 -0.0107  0.2276  0.0561
 3336TIP3    H131423   2.748   1.257  12.391 -0.8680  0.2169  0.8671
 3336TIP3    H231424   2.637   1.179  12.324  0.0981 -0.1791 -0.3004
 3337TIP3   OH231425   3.135   5.653  15.957  0.8242  0.9434 -0.2008
 3337TIP3    H131426   3.168   5.564  15.942  0.3537  0.5236  1.0942
 3337TIP3    H231427   3.213   5.708  15.959  1.3390  0.2107  1.1928
 3338TIP3   OH231428   6.400   5.356  11.065 -0.6338  0.5372 -0.2188
 3338TIP3    H131429   6.320   5.395  11.031  0.8524  2.1966 -2.0890
 3338TIP3    H231430   6.417   5.402  11.147 -2.2797 -0.8485  0.9696
 3339TIP3   OH231431   4.557   5.952  15.476  0.1633 -0.0272  0.1671
 3339TIP3    H131432   4.534   5.965  15.384  2.1541  1.5290 -0.1864
 3339TIP3    H231433   4.493   6.004  15.525 -0.8760 -0.8263 -0.2937
 3340TIP3   OH231434   2.462   3.849  11.887  0.0634  0.1338 -0.2079
 3340TIP3    H131435   2.547   3.809  11.904  0.1984 -0.1935 -1.5731
 3340TIP3    H231436   2.427   3.867  11.974  1.7127  0.7031  0.3840
 3341TIP3   OH231437   5.380   6.134  14.810 -0.6874  0.0825 -0.5735
 3341TIP3    H131438   5.343   6.221  14.795 -2.7098 -0.6761 -0.3431
 3341TIP3    H231439   5.351   6.082  14.735 -0.4690 -0.6630 -0.1586
 3342TIP3   OH231440   3.871   0.732   3.067  0.6567 -0.0004  0.6189
 3342TIP3    H131441   3.919   0.775   3.138 -1.0394 -1.5204  2.8734
 3342TIP3    H231442   3.812   0.800   3.034  1.8155  0.8715  0.2741
 3343TIP3   OH231443   0.104   4.638  14.437 -0.1693 -0.3402  0.4845
 3343TIP3    H131444   0.163   4.564  14.429 -1.4929 -1.2947 -1.4506
 3343TIP3    H231445   0.023   4.601  14.473 -0.5454  0.3189  0.3435
 3344TIP3   OH231446   5.459   0.696  16.063 -0.2254  0.1923  0.7425
 3344TIP3    H131447   5.407   0.744  16.128 -0.7465 -0.8855  1.1329
 3344TIP3    H231448   5.398   0.636  16.022  0.2582  0.3811 -0.2915
 3345TIP3   OH231449   0.715   4.484   0.483  0.2102  0.0549 -0.0584
 3345TIP3    H131450   0.673   4.398   0.485 -0.8601  0.5388  2.5560
 3345TIP3    H231451   0.808   4.465   0.491  0.1262 -0.8715 -0.9787
 3346TIP3   OH231452   0.773   0.832  13.423 -0.0280  0.3019 -0.0172
 3346TIP3    H131453   0.811   0.892  13.360  0.4556 -1.6109 -1.6425
 3346TIP3    H231454   0.689   0.806  13.384  0.8144 -1.8230 -0.5354
 3347TIP3   OH231455   5.794   2.872   5.701 -0.4616  0.0891 -0.1668
 3347TIP3    H131456   5.759   2.833   5.781 -1.3465 -0.3256 -0.7402
 3347TIP3    H231457   5.743   2.833   5.630  1.4655 -0.8641 -1.1027
 3348TIP3   OH231458   6.082   1.428   4.247 -0.2178 -0.5196 -0.0043
 3348TIP3    H131459   6.105   1.504   4.194  1.3497 -0.2583  0.9828
 3348TIP3    H231460   6.128   1.354   4.206 -0.1630 -0.5770  0.1595
 3349TIP3   OH231461   0.829   4.905  13.327 -0.2229  0.4273  0.3169
 3349TIP3    H131462   0.882   4.846  13.381 -1.6165 -1.1567  0.0233
 3349TIP3    H231463   0.762   4.849  13.288 -1.9132  2.2656  0.3905
 3350TIP3   OH231464   4.159   4.763   1.357 -0.7931  0.2786 -0.2373
 3350TIP3    H131465   4.237   4.759   1.413 -0.2753  1.4495 -0.8355
 3350TIP3    H231466   4.157   4.853   1.325 -3.2703  0.7434  0.9763
 3351TIP3   OH231467   6.497   2.039   1.469 -0.1669  0.0619 -0.0810
 3351TIP3    H131468   6.548   2.001   1.540 -0.5725  0.6042  0.5215
 3351TIP3    H231469   6.434   2.096   1.513 -2.4206 -1.8283 -0.6709
 3352TIP3   OH231470   3.897   1.729  11.192 -0.2462  0.0048  0.2044
 3352TIP3    H131471   3.921   1.728  11.285  1.8717 -0.9558 -0.2830
 3352TIP3    H231472   3.898   1.637  11.167 -0.9762  0.2427 -0.7463
 3353TIP3   OH231473   5.517   4.288  17.228 -0.4162 -0.0541 -0.0952
 3353TIP3    H131474   5.482   4.247  17.308 -3.1559  0.6643 -0.8086
 3353TIP3    H231475   5.535   4.379  17.254  1.6971 -0.5664  0.4269
 3354TIP3   OH231476   1.619   0.342  13.321  0.3649  0.5172 -0.4765
 3354TIP3    H131477   1.530   0.352  13.287  0.0057 -0.8432 -0.0229
 3354TIP3    H231478   1.618   0.256  13.364  1.9266  0.4345 -0.5531
 3355TIP3   OH231479   2.276   0.984   2.863 -0.0219 -0.4940  0.0943
 3355TIP3    H131480   2.237   0.930   2.795  0.0619  0.3277 -0.6225
 3355TIP3    H231481   2.247   0.944   2.945  1.3902 -2.6046 -0.3713
 3356TIP3   OH231482   6.573   0.188  12.523 -0.7301  0.8289 -0.1339
 3356TIP3    H131483   6.510   0.122  12.553  0.5460 -0.2583  0.1998
 3356TIP3    H231484   6.581   0.248  12.597 -2.2035  1.6291 -0.5857
 3357TIP3   OH231485   2.134   2.934  15.913 -0.5179  0.1587 -0.0213
 3357TIP3    H131486   2.129   3.008  15.973 -2.1089 -0.3964  0.5792
 3357TIP3    H231487   2.228   2.913  15.909 -0.0823  1.9021  0.1157
 3358TIP3   OH231488   1.580   5.493   0.536  0.0116 -0.4800 -0.2627
 3358TIP3    H131489   1.615   5.461   0.452  1.8754  1.8495 -0.4776
 3358TIP3    H231490   1.552   5.582   0.517 -1.9620 -0.7513  1.0609
 3359TIP3   OH231491   4.610   4.899   3.544  0.1570 -0.5486 -0.1367
 3359TIP3    H131492   4.648   4.891   3.632 -0.2345  0.8721  0.1881
 3359TIP3    H231493   4.684   4.916   3.487  0.2304  0.1897  0.1783
 3360TIP3   OH231494   0.286   0.832  17.170 -0.2846 -0.2062 -0.4871
 3360TIP3    H131495   0.294   0.736  17.176 -0.9180 -0.2181  0.4756
 3360TIP3    H231496   0.376   0.863  17.161 -0.0137 -0.8635 -0.1537
 3361TIP3   OH231497   4.186   0.421  14.452  0.1054  0.3191 -0.1912
 3361TIP3    H131498   4.195   0.328  14.433  0.9321 -0.1406  2.1088
 3361TIP3    H231499   4.241   0.464  14.386  0.2967 -0.8678 -0.8380
 3362TIP3   OH231500   2.790   1.622   4.831 -0.3540 -0.1072 -0.2908
 3362TIP3    H131501   2.863   1.578   4.788  0.0612 -0.7783  1.0398
 3362TIP3    H231502   2.830   1.700   4.872 -0.4311 -0.3241  0.2022
 3363TIP3   OH231503   1.341   5.517  11.760 -0.1265 -0.1913 -0.3052
 3363TIP3    H131504   1.405   5.547  11.694  0.1471 -2.2446 -1.0560
 3363TIP3    H231505   1.264   5.494  11.709  0.4136 -2.7306 -0.1422
 3364TIP3   OH231506   1.853   5.248   3.914 -0.2869  0.1654  0.6993
 3364TIP3    H131507   1.853   5.311   3.986 -0.8758 -0.5580  1.3673
 3364TIP3    H231508   1.939   5.207   3.918  0.4653  1.5749 -0.3603
 3365TIP3   OH231509   2.180   5.395   1.809  0.4073 -0.2221 -0.2458
 3365TIP3    H131510   2.226   5.471   1.774  1.2639 -0.2952  0.6676
 3365TIP3    H231511   2.097   5.430   1.842 -0.2898 -0.1113 -2.0294
 3366TIP3   OH231512   1.259   4.435   0.195  0.0670 -0.3780 -0.3166
 3366TIP3    H131513   1.197   4.492   0.149  1.2574  0.5114 -0.8495
 3366TIP3    H231514   1.287   4.486   0.271  0.5332 -0.5754 -0.3552
 3367TIP3   OH231515   5.925   5.563  15.565  0.5429  0.0344  0.2513
 3367TIP3    H131516   5.863   5.496  15.538  2.5269 -1.6219 -0.4992
 3367TIP3    H231517   5.896   5.589  15.652 -1.3118 -0.4757 -0.1685
 3368TIP3   OH231518   1.894   2.221   3.571 -0.3629 -0.0571 -0.1124
 3368TIP3    H131519   1.867   2.288   3.635 -0.9084 -1.1406  0.8312
 3368TIP3    H231520   1.918   2.146   3.625 -1.9821 -1.4260 -1.2204
 3369TIP3   OH231521   0.309   4.953   2.948  0.5695  0.2374  0.7879
 3369TIP3    H131522   0.288   4.897   3.024 -0.3636  0.9827  1.0996
 3369TIP3    H231523   0.378   5.011   2.979  1.9966 -1.1078  0.2747
 3370TIP3   OH231524   0.608   1.853  11.828 -0.3488  0.4673  0.4037
 3370TIP3    H131525   0.609   1.946  11.852 -0.5653  1.0527 -1.6741
 3370TIP3    H231526   0.527   1.819  11.865  0.7304  0.5391  3.0163
 3371TIP3   OH231527   1.875   6.498  11.349  0.3449  0.1890  0.0165
 3371TIP3    H131528   1.965   6.482  11.321  1.2060  0.7798  2.2148
 3371TIP3    H231529   1.881   6.575  11.406 -1.2276 -0.7908  1.6403
 3372TIP3   OH231530   3.669   3.721   1.759 -0.0030  0.3626 -0.0727
 3372TIP3    H131531   3.696   3.709   1.668 -1.0232  1.4672 -0.5415
 3372TIP3    H231532   3.706   3.806   1.785  1.1203 -0.3824  0.8915
 3373TIP3   OH231533   0.042   1.958  10.650 -0.2691  0.2146 -0.5148
 3373TIP3    H131534  -0.007   1.998  10.578 -1.6509  0.8827  0.7408
 3373TIP3    H231535  -0.025   1.937  10.716  1.0185  0.2527  0.8612
 3374TIP3   OH231536   6.695   4.673  11.928  0.1835  0.3012  0.0112
 3374TIP3    H131537   6.728   4.730  11.997  0.3970 -0.7450  0.7901
 3374TIP3    H231538   6.676   4.590  11.972  0.8994 -0.5847 -1.2884
 3375TIP3   OH231539   4.463   3.692  14.653  0.0444  0.4060  0.1236
 3375TIP3    H131540   4.425   3.775  14.683  0.8102  0.8895 -0.2195
 3375TIP3    H231541   4.557   3.705  14.660  0.1763 -0.4837  0.1666
 3376TIP3   OH231542   5.495   2.541  16.256  0.6881  0.6897  0.2313
 3376TIP3    H131543   5.473   2.583  16.173  0.4492  1.6645  0.7716
 3376TIP3    H231544   5.442   2.461  16.257  0.9182  0.5102 -0.6795
 3377TIP3   OH231545   2.896   0.929  13.524  0.2512  0.0656  0.4553
 3377TIP3    H131546   2.810   0.922  13.483 -0.0616  0.7581  0.9765
 3377TIP3    H231547   2.908   0.844  13.567 -1.1037  0.6813  2.1420
 3378TIP3   OH231548   3.956   2.191   3.595 -0.0854 -0.9750 -0.0476
 3378TIP3    H131549   4.014   2.247   3.544  1.5638  0.6662  3.3190
 3378TIP3    H231550   4.014   2.125   3.633 -0.7507 -0.5955  1.6968
 3379TIP3   OH231551   5.978   0.260  14.666  0.4161 -0.0292  0.6341
 3379TIP3    H131552   5.932   0.333  14.625  0.4480  0.3751  1.3182
 3379TIP3    H231553   5.920   0.230  14.735  0.8449 -0.0110  1.0036
 3380TIP3   OH231554   2.826   3.191  12.167  0.5780  0.6591  0.3084
 3380TIP3    H131555   2.863   3.137  12.098  0.5364  2.1043 -0.8908
 3380TIP3    H231556   2.853   3.148  12.248  0.8991 -0.8920 -0.5818
 3381TIP3   OH231557   0.085   0.447  11.364  0.2118 -0.2571  0.4014
 3381TIP3    H131558   0.029   0.504  11.311  0.4024 -0.6609 -0.2398
 3381TIP3    H231559   0.024   0.397  11.418  0.0853  1.5889  2.0732
 3382TIP3   OH231560   5.291   2.313  12.377  0.6117  0.4118 -0.0571
 3382TIP3    H131561   5.252   2.371  12.442 -0.1160  0.3175 -0.4059
 3382TIP3    H231562   5.386   2.327  12.386  0.6073 -0.4324  1.8038
 3383TIP3   OH231563   5.226   0.903  16.005 -0.6830 -0.3839 -0.1213
 3383TIP3    H131564   5.240   0.877  16.096  3.2206 -0.6508 -0.6544
 3383TIP3    H231565   5.216   0.999  16.009  0.0049 -0.3292  0.5674
 3384TIP3   OH231566   1.460   4.284   5.299  0.1566 -0.6678 -0.3860
 3384TIP3    H131567   1.520   4.359   5.296  0.6121 -1.0380 -0.7324
 3384TIP3    H231568   1.517   4.207   5.294 -0.3341 -1.0334 -0.4989
 3385TIP3   OH231569   6.089   1.670   1.619 -0.1607  0.2201  0.0698
 3385TIP3    H131570   6.104   1.761   1.593  1.9014  0.0942  0.6050
 3385TIP3    H231571   6.090   1.622   1.537  1.3261  0.4182 -0.0660
 3386TIP3   OH231572   6.708   3.387   1.839  0.1942  0.2905 -0.5786
 3386TIP3    H131573   6.736   3.478   1.849 -0.1603  0.1687  2.3265
 3386TIP3    H231574   6.782   3.336   1.870 -0.6418 -0.2744  0.5441
 3387TIP3   OH231575   3.494   5.160   5.035 -0.6056  0.2242 -0.3738
 3387TIP3    H131576   3.525   5.135   5.122 -0.1598  0.2211 -0.5328
 3387TIP3    H231577   3.453   5.080   5.000 -1.5959  0.4756  0.1867
 3388TIP3   OH231578   5.339   4.334  16.208 -0.2592  0.2583  0.2400
 3388TIP3    H131579   5.369   4.424  16.194  0.1940  0.5762  2.7005
 3388TIP3    H231580   5.246   4.343  16.229 -0.2738  0.1321  0.2308
 3389TIP3   OH231581   1.510   0.515   4.934  0.5726  0.1179 -0.0792
 3389TIP3    H131582   1.500   0.597   4.983  1.6899  0.0703  0.2433
 3389TIP3    H231583   1.589   0.528   4.880 -0.9018  0.3851 -2.3349
 3390TIP3   OH231584   6.144   4.741   2.534 -0.3242  0.3941 -0.1900
 3390TIP3    H131585   6.181   4.767   2.618  0.2261 -0.7022 -0.0692
 3390TIP3    H231586   6.126   4.647   2.543  0.4267  0.0888 -1.5217
 3391TIP3   OH231587   5.061   5.270  16.172 -0.0199 -0.0179 -0.5382
 3391TIP3    H131588   5.146   5.300  16.204  0.9089 -3.5169  0.6633
 3391TIP3    H231589   5.007   5.263  16.250 -1.6903  2.5844 -1.3391
 3392TIP3   OH231590   3.751   1.948  13.937  0.2611 -0.5558  0.7002
 3392TIP3    H131591   3.693   1.922  13.865  0.2225  1.4320 -0.0475
 3392TIP3    H231592   3.830   1.896  13.925  0.2455 -0.2762 -0.7958
 3393TIP3   OH231593   2.371   5.838   4.105  0.0332 -0.9854  0.2706
 3393TIP3    H131594   2.276   5.848   4.110  0.1031 -0.2645  0.3277
 3393TIP3    H231595   2.384   5.755   4.060 -0.6229 -1.3045  0.6476
 3394TIP3   OH231596   1.531   3.166   5.866  0.0222 -0.0177  0.1893
 3394TIP3    H131597   1.454   3.164   5.922  0.1428 -1.6342  0.3389
 3394TIP3    H231598   1.602   3.131   5.920  0.2271 -1.2062 -0.8082
 3395TIP3   OH231599   0.510   2.406   5.439 -0.3488 -0.2246 -0.0754
 3395TIP3    H131600   0.432   2.458   5.457  0.1673  0.0561  1.5155
 3395TIP3    H231601   0.571   2.429   5.510  0.1950 -2.4052  0.2249
 3396TIP3   OH231602   1.071   0.740   1.040 -0.5934 -0.2312  0.3754
 3396TIP3    H131603   1.099   0.750   0.949  0.4035 -1.9681  0.4555
 3396TIP3    H231604   1.073   0.829   1.075 -0.5388  0.4070 -1.1643
 3397TIP3   OH231605   4.241   6.267  13.661 -0.0842 -0.2558  0.1529
 3397TIP3    H131606   4.168   6.301  13.609 -1.9430 -2.2489  1.2945
 3397TIP3    H231607   4.201   6.202  13.719  2.5474 -1.0830  1.1904
 3398TIP3   OH231608   0.556   2.521  11.574  0.1101  0.0507 -0.6383
 3398TIP3    H131609   0.616   2.579  11.527  1.4653 -0.5682  0.2659
 3398TIP3    H231610   0.519   2.465  11.506  0.5800  0.4155 -1.2123
 3399TIP3   OH231611   2.713   1.802   2.705  0.0079  0.0768  0.6052
 3399TIP3    H131612   2.672   1.777   2.622  0.6191  0.8442  0.0473
 3399TIP3    H231613   2.661   1.877   2.735  0.1089  0.1361  0.6340
 3400TIP3   OH231614   4.971   4.101   0.042 -0.6690  0.0442  0.2509
 3400TIP3    H131615   5.061   4.080   0.064 -0.8669 -0.7163  0.3769
 3400TIP3    H231616   4.942   4.159   0.112  0.4917  2.4200 -1.1255
 3401TIP3   OH231617   4.757   2.529   6.319 -0.4926 -0.2411 -0.1032
 3401TIP3    H131618   4.840   2.542   6.366 -1.0797  0.1416  0.8456
 3401TIP3    H231619   4.782   2.482   6.239  0.9438  1.7212 -0.9122
 3402TIP3   OH231620   2.778   5.665  12.559 -0.5212 -0.0721 -0.4739
 3402TIP3    H131621   2.727   5.736  12.520  1.4678  1.4557 -0.4232
 3402TIP3    H231622   2.852   5.708  12.601  0.2491 -2.1156  0.4137
 3403TIP3   OH231623   0.287   0.357   3.238  0.4896  0.0083 -0.8540
 3403TIP3    H131624   0.305   0.451   3.232  1.9501 -0.1264  0.7305
 3403TIP3    H231625   0.289   0.338   3.332  1.1554 -1.7697 -1.1829
 3404TIP3   OH231626   4.081   0.265   6.348 -0.4551  0.0872 -0.0855
 3404TIP3    H131627   4.176   0.259   6.349 -0.3990  0.9606  0.0146
 3404TIP3    H231628   4.061   0.352   6.381 -1.3236 -0.3398  0.5752
 3405TIP3   OH231629   0.792   5.855   6.566 -0.2839 -0.9097 -0.1566
 3405TIP3    H131630   0.883   5.867   6.593 -0.1930 -0.1446 -0.7747
 3405TIP3    H231631   0.790   5.883   6.475 -1.3119 -0.1117  0.0872
 3406TIP3   OH231632   6.114   1.912  14.207 -0.0155  0.1425  0.0620
 3406TIP3    H131633   6.099   1.911  14.113  1.7616 -0.0878 -0.2494
 3406TIP3    H231634   6.070   1.833  14.239 -0.2132 -0.0361 -0.6419
 3407TIP3   OH231635   2.981   1.499  16.076 -0.0471  0.9489 -0.1500
 3407TIP3    H131636   3.058   1.469  16.124 -1.3591 -1.2752  0.7041
 3407TIP3    H231637   2.916   1.516  16.145 -1.3916 -0.5341 -1.0007
 3408TIP3   OH231638   4.967   2.244  15.563  0.3310  0.2527 -0.2259
 3408TIP3    H131639   5.036   2.258  15.498 -1.9431 -0.5428 -3.0759
 3408TIP3    H231640   4.929   2.330  15.577 -0.4165  0.1757 -1.5869
 3409TIP3   OH231641   4.323   4.511   3.250  0.4706 -0.2096 -0.2525
 3409TIP3    H131642   4.352   4.421   3.264 -0.9559 -0.6420  0.0481
 3409TIP3    H231643   4.327   4.524   3.155 -0.0733 -0.8648 -0.3707
 3410TIP3   OH231644   6.703   0.082  15.651  0.3739 -0.4796 -0.5156
 3410TIP3    H131645   6.668   0.153  15.705  0.3094 -0.4473 -0.6005
 3410TIP3    H231646   6.762   0.035  15.710  0.5015 -0.2913 -0.4925
 3411TIP3   OH231647   1.608   6.419   4.682 -0.4988 -0.0841  0.1666
 3411TIP3    H131648   1.626   6.436   4.775 -1.1237  1.5551  0.0128
 3411TIP3    H231649   1.674   6.354   4.657 -1.4517 -1.9598  2.1928
 3412TIP3   OH231650   1.431   5.895   3.517 -1.1165  0.3257 -0.7244
 3412TIP3    H131651   1.336   5.882   3.518 -1.2091  0.5020 -2.9058
 3412TIP3    H231652   1.461   5.847   3.440  0.1936  2.5734 -1.7031
 3413TIP3   OH231653   6.325   2.501  12.986  0.0822  0.7298 -0.0134
 3413TIP3    H131654   6.343   2.408  13.001 -0.4837  0.6805  0.3999
 3413TIP3    H231655   6.301   2.505  12.893  0.5163  0.5304 -0.1381
 3414TIP3   OH231656   3.264   2.061   1.433  0.1582 -1.0511 -0.1046
 3414TIP3    H131657   3.251   2.014   1.516 -0.2313  1.0375  1.0850
 3414TIP3    H231658   3.322   2.004   1.382  1.2974 -1.9107  2.0348
 3415TIP3   OH231659   3.525   2.728  15.007  0.0945 -0.2312 -0.5002
 3415TIP3    H131660   3.513   2.665  14.936 -1.9171 -1.2637  0.6849
 3415TIP3    H231661   3.468   2.801  14.984  1.1692  0.4835 -1.0289
 3416TIP3   OH231662   4.901   0.815  15.586 -0.0594  0.4821 -0.4374
 3416TIP3    H131663   4.868   0.846  15.502 -1.0444 -0.0092 -0.2479
 3416TIP3    H231664   4.860   0.872  15.650  0.6584  0.8283 -0.2862
 3417TIP3   OH231665   2.114   5.910   1.995  0.1660  0.3394  0.2921
 3417TIP3    H131666   2.053   5.837   2.010 -0.9676  1.5076  1.6131
 3417TIP3    H231667   2.170   5.911   2.072  2.3356 -1.0763 -1.1589
 3418TIP3   OH231668   0.742   0.740  14.301 -0.5527  0.2671  0.4554
 3418TIP3    H131669   0.669   0.794  14.270  0.5503  0.8720 -1.2308
 3418TIP3    H231670   0.741   0.664  14.243  0.5602  0.6232 -0.0495
 3419TIP3   OH231671   4.828   5.080   5.377  0.5698 -0.4127 -0.3110
 3419TIP3    H131672   4.758   5.016   5.393 -0.3836  0.1442 -1.9852
 3419TIP3    H231673   4.809   5.152   5.437  0.6612 -0.9329  0.3664
 3420TIP3   OH231674   2.560   5.487   2.897  0.0323 -0.2047  0.1573
 3420TIP3    H131675   2.565   5.557   2.962  0.5006 -0.4171  0.3517
 3420TIP3    H231676   2.650   5.459   2.884 -0.2782 -2.0356  1.4825
 3421TIP3   OH231677   4.747   5.014  15.024  0.1922 -0.2346 -0.4352
 3421TIP3    H131678   4.693   5.069  15.081  2.2510 -0.1232  1.5572
 3421TIP3    H231679   4.801   4.963  15.084  0.6848 -2.0481 -2.2977
 3422TIP3   OH231680   1.436   1.999  14.798 -0.3828 -0.3003 -0.6157
 3422TIP3    H131681   1.458   1.935  14.730  0.8006 -0.1716 -0.3732
 3422TIP3    H231682   1.388   1.949  14.864 -0.4597 -0.6849 -0.9593
 3423TIP3   OH231683   3.713   1.516   4.091  0.3196 -0.0201  0.6157
 3423TIP3    H131684   3.773   1.460   4.139 -1.5463 -2.8215 -0.0971
 3423TIP3    H231685   3.699   1.472   4.008 -0.8584  1.8033 -0.2239
 3424TIP3   OH231686   5.327   1.615   4.504  0.1217  0.3498 -0.1564
 3424TIP3    H131687   5.385   1.547   4.539  0.5046  1.3233  1.1674
 3424TIP3    H231688   5.292   1.659   4.582  0.4676  2.1465 -0.9623
 3425TIP3   OH231689   1.769   4.213  16.443 -0.0455 -0.4816  0.1529
 3425TIP3    H131690   1.686   4.170  16.423  0.0918 -1.0020  0.6832
 3425TIP3    H231691   1.830   4.141  16.461  0.9804 -0.1997 -1.8705
 3426TIP3   OH231692   5.054   0.690  14.385  0.0097 -0.1172  0.2581
 3426TIP3    H131693   4.984   0.731  14.435 -1.1543 -2.0881  0.3561
 3426TIP3    H231694   5.040   0.718  14.295 -0.6795 -0.1754  0.3427
 3427TIP3   OH231695   2.367   2.449  12.071 -0.2279  0.1237  0.8798
 3427TIP3    H131696   2.430   2.518  12.091 -0.3415  0.6346 -0.4405
 3427TIP3    H231697   2.291   2.495  12.036  0.0997 -0.7116 -1.0452
 3428TIP3   OH231698   4.618   4.693  10.983 -0.5279 -0.3467  0.4761
 3428TIP3    H131699   4.526   4.671  10.973 -1.5093  2.7726  1.4178
 3428TIP3    H231700   4.664   4.633  10.924 -3.1238 -1.9545 -0.0609
 3429TIP3   OH231701   0.935   3.200   6.377 -0.5863  0.0291  0.5012
 3429TIP3    H131702   1.012   3.187   6.322 -0.4131  0.8177  0.5476
 3429TIP3    H231703   0.862   3.202   6.315 -0.4591  0.2868  0.3575
 3430TIP3   OH231704   5.483   4.910  16.128 -0.3421 -0.7277 -0.1766
 3430TIP3    H131705   5.449   4.932  16.041 -1.6025  0.8240  0.6671
 3430TIP3    H231706   5.409   4.924  16.187  0.7957 -0.7244  1.2886
 3431TIP3   OH231707   5.060   1.069  16.361  0.6158  0.1283  0.2084
 3431TIP3    H131708   5.012   1.000  16.317  0.2363  0.8778 -0.5891
 3431TIP3    H231709   5.006   1.092  16.436  0.1945  0.3024 -0.1408
 3432TIP3   OH231710   6.490   4.486   6.435  0.5665 -0.3090 -0.4261
 3432TIP3    H131711   6.586   4.493   6.435  0.5712  0.9919 -3.0812
 3432TIP3    H231712   6.471   4.421   6.367 -0.4427 -1.0585  0.5438
 3433TIP3   OH231713   1.908   6.698  14.993 -0.3420  0.3179  0.2003
 3433TIP3    H131714   1.820   6.684  15.030  0.2264 -0.9416  1.1653
 3433TIP3    H231715   1.953   6.751  15.059 -0.0139 -0.0672  0.2922
 3434TIP3   OH231716   5.776   6.623   1.061 -0.4818 -0.2531 -0.4897
 3434TIP3    H131717   5.737   6.684   0.997 -0.3352  0.2409 -0.1172
 3434TIP3    H231718   5.711   6.553   1.070 -0.4984 -0.3346 -1.1885
 3435TIP3   OH231719   0.548   5.929   0.972 -0.6142  0.3062  0.4840
 3435TIP3    H131720   0.616   5.961   0.913 -0.5310 -0.3784  0.2001
 3435TIP3    H231721   0.548   5.991   1.045 -0.8070  1.2329 -0.2923
 3436TIP3   OH231722   2.725   4.673  14.434 -0.0256  0.1918 -0.5362
 3436TIP3    H131723   2.792   4.649  14.499 -1.5530  0.0427  1.0588
 3436TIP3    H231724   2.659   4.605  14.442 -2.0804  2.1921  0.5219
 3437TIP3   OH231725   0.745   0.124   1.205 -0.1206  0.0489 -0.2139
 3437TIP3    H131726   0.697   0.182   1.145 -3.1498 -0.4501  1.5547
 3437TIP3    H231727   0.755   0.043   1.156 -1.4758  0.0467 -0.5351
 3438TIP3   OH231728   3.656   0.351  12.515  0.5630  0.3615 -0.4545
 3438TIP3    H131729   3.743   0.366  12.476  0.6461 -0.4400 -0.6061
 3438TIP3    H231730   3.665   0.380  12.605  0.7001  1.1970 -0.7239
 3439TIP3   OH231731   6.312   2.124  12.389  0.3350  0.3101 -0.2118
 3439TIP3    H131732   6.286   2.215  12.372  2.6267  0.6188 -2.5931
 3439TIP3    H231733   6.291   2.110  12.482 -2.3604  2.4075 -0.3697
 3440TIP3   OH231734   6.163   3.007   1.934  0.6379 -0.3922 -0.3182
 3440TIP3    H131735   6.186   2.955   2.011 -0.3054  1.2098  1.1360
 3440TIP3    H231736   6.176   3.098   1.963 -0.4977  0.2720 -1.7943
 3441TIP3   OH231737   1.666   1.613  16.403  0.5909 -0.2096 -0.1209
 3441TIP3    H131738   1.636   1.704  16.402 -0.7026 -0.6157  0.1922
 3441TIP3    H231739   1.698   1.598  16.314 -1.4276 -0.1433 -0.9014
 3442TIP3   OH231740   0.960   3.191   0.898 -0.7723 -0.0393 -0.7056
 3442TIP3    H131741   0.896   3.243   0.850 -0.4374  1.9606  0.8965
 3442TIP3    H231742   1.040   3.198   0.845 -0.8576  0.7047 -0.7456
 3443TIP3   OH231743   4.987   0.211   0.076  0.4178 -1.0642  1.1285
 3443TIP3    H131744   5.049   0.194   0.147 -1.4062 -1.8551  2.6047
 3443TIP3    H231745   4.953   0.299   0.094  0.6792 -0.8527  0.6270
 3444TIP3   OH231746   1.764   1.044  13.428 -0.0229 -0.4094 -0.2627
 3444TIP3    H131747   1.781   1.137  13.411 -0.2524 -0.5571 -1.3776
 3444TIP3    H231748   1.838   1.016  13.482 -0.3934  0.6138  0.8078
 3445TIP3   OH231749   2.497   0.529  12.537 -0.3793 -0.7983 -0.6378
 3445TIP3    H131750   2.504   0.620  12.508  1.5880  0.0478  2.0753
 3445TIP3    H231751   2.412   0.524  12.581 -1.2920 -0.8548 -2.2976
 3446TIP3   OH231752   3.839   1.830  14.964  0.4599  0.2910 -0.5268
 3446TIP3    H131753   3.890   1.829  15.045 -0.9653 -0.0045  0.4017
 3446TIP3    H231754   3.847   1.919  14.930 -1.0170  1.1968  1.3437
 3447TIP3   OH231755   1.770   1.620   1.615  0.0465 -0.7191 -0.2442
 3447TIP3    H131756   1.707   1.569   1.666  1.8111 -2.4295  0.3108
 3447TIP3    H231757   1.768   1.707   1.656  0.3475 -1.6305  1.8266
 3448TIP3   OH231758   5.716   0.942  16.700  0.0829  0.0368  0.1243
 3448TIP3    H131759   5.630   0.911  16.726 -0.4375  1.7149  0.5678
 3448TIP3    H231760   5.736   0.896  16.619 -1.1111 -0.5679  0.1650
 3449TIP3   OH231761   0.815   6.346   1.399  0.2704  0.7496  0.1790
 3449TIP3    H131762   0.799   6.358   1.493 -1.0569 -0.0732  0.0746
 3449TIP3    H231763   0.736   6.304   1.366  1.1380  0.0744 -1.1224
 3450TIP3   OH231764   5.896   1.248  11.671 -0.0422  0.3193  0.2161
 3450TIP3    H131765   5.958   1.249  11.597 -0.8778  0.4907 -0.4971
 3450TIP3    H231766   5.814   1.281  11.634 -1.1238 -1.7362  0.6372
 3451TIP3   OH231767   4.413   2.883   5.033 -0.0341  0.7802  0.6073
 3451TIP3    H131768   4.500   2.885   5.074  0.3710 -0.0650 -0.1737
 3451TIP3    H231769   4.387   2.790   5.037  0.4136  0.4798 -1.8000
 3452TIP3   OH231770   5.429   3.190  15.295 -0.6196 -0.4001 -0.3466
 3452TIP3    H131771   5.357   3.246  15.323 -0.6938 -0.9256  0.5178
 3452TIP3    H231772   5.410   3.104  15.332  0.8066 -0.3876  0.4920
 3453TIP3   OH231773   1.963   4.505  15.088 -0.0148  0.2663 -0.6289
 3453TIP3    H131774   2.004   4.585  15.120 -0.9773  0.6817 -0.3780
 3453TIP3    H231775   1.903   4.534  15.020  0.1765 -0.3325 -1.0631
 3454TIP3   OH231776   6.290   6.563   0.346 -0.4495 -0.1026 -0.0921
 3454TIP3    H131777   6.311   6.579   0.254 -1.4224  1.4560 -0.0861
 3454TIP3    H231778   6.305   6.469   0.358 -0.2893 -0.3387 -1.8252
 3455TIP3   OH231779   5.429   5.536   5.435  0.0409 -0.2537  0.1233
 3455TIP3    H131780   5.442   5.459   5.380  3.3040  0.5380 -0.3797
 3455TIP3    H231781   5.516   5.559   5.467 -0.7219  3.4051  0.0304
 3456TIP3   OH231782   1.726   1.610  12.617  0.3845 -0.1044 -0.2709
 3456TIP3    H131783   1.746   1.586  12.707  0.4715  1.4064  0.1476
 3456TIP3    H231784   1.696   1.701  12.622  3.5756  1.2227 -2.0876
 3457TIP3   OH231785   0.878   0.565   0.193  0.0835  0.6564 -0.4039
 3457TIP3    H131786   0.783   0.583   0.193 -0.0367  0.0539 -0.9434
 3457TIP3    H231787   0.888   0.490   0.135  0.6188 -0.8584  1.5714
 3458TIP3   OH231788   1.481   2.078   5.354  0.0902 -0.2702 -0.0841
 3458TIP3    H131789   1.387   2.096   5.355 -0.3525 -2.1534  2.6377
 3458TIP3    H231790   1.488   1.986   5.378  2.6911  0.1373  1.0519
 3459TIP3   OH231791   3.191   2.773  17.528  0.9063 -0.8989 -0.4058
 3459TIP3    H131792   3.190   2.688  17.571  3.1965  0.3022  2.4256
 3459TIP3    H231793   3.281   2.805  17.541  0.1963  1.8717 -1.5263
 3460TIP3   OH231794   1.409   4.405   2.580  0.3482 -0.1435  0.1975
 3460TIP3    H131795   1.339   4.361   2.531  1.0842 -1.2172  0.0838
 3460TIP3    H231796   1.363   4.459   2.644 -0.5971 -0.8273  0.1190
 3461TIP3   OH231797   2.447   1.217  12.246 -0.0605 -0.0426 -0.0802
 3461TIP3    H131798   2.398   1.156  12.191 -0.1039 -1.0009  0.9892
 3461TIP3    H231799   2.430   1.303  12.207  0.9889 -0.7982 -2.3506
 3462TIP3   OH231800   3.510   4.777   2.689 -0.1342 -0.4305 -0.1946
 3462TIP3    H131801   3.490   4.794   2.781 -0.0645  0.4307 -0.3337
 3462TIP3    H231802   3.491   4.683   2.678 -0.1537 -0.5420  0.6860
 3463TIP3   OH231803   4.543   2.552   1.791  0.6552  0.2963  0.3381
 3463TIP3    H131804   4.454   2.516   1.792  0.4139  0.8808  0.3726
 3463TIP3    H231805   4.564   2.562   1.699  0.6658  0.1994  0.3303
 3464TIP3   OH231806   4.436   5.855   0.699  0.1259  0.0720  0.0341
 3464TIP3    H131807   4.420   5.914   0.772  0.9730  2.3277 -1.4677
 3464TIP3    H231808   4.348   5.829   0.669 -0.2482  0.0822  1.1031
 3465TIP3   OH231809   1.507   4.738   3.532  0.0498 -0.7818 -0.0638
 3465TIP3    H131810   1.566   4.804   3.567 -0.1099 -0.6451 -0.0489
 3465TIP3    H231811   1.463   4.702   3.609 -1.4866  0.6522 -0.2239
 3466TIP3   OH231812   3.668   0.437   5.766  0.1864  0.2176 -0.5022
 3466TIP3    H131813   3.619   0.474   5.840  1.9570  0.7259  0.4913
 3466TIP3    H231814   3.603   0.386   5.717 -1.6196  1.9745 -0.0756
 3467TIP3   OH231815   1.573   6.661  14.695 -0.3467 -0.0258 -0.1345
 3467TIP3    H131816   1.570   6.737  14.637  1.3535 -0.3385 -0.6767
 3467TIP3    H231817   1.491   6.666  14.746 -1.2706  0.9548 -1.6474
 3468TIP3   OH231818   6.407   6.268   4.712 -0.0367  0.2809 -0.0210
 3468TIP3    H131819   6.355   6.343   4.683  1.1191  1.1764  0.1341
 3468TIP3    H231820   6.346   6.214   4.762 -0.7911  1.3441  0.2290
 3469TIP3   OH231821   2.717   2.590  15.149  0.4628 -0.2095 -0.5729
 3469TIP3    H131822   2.645   2.647  15.178  0.4050  0.3564 -1.7721
 3469TIP3    H231823   2.796   2.638  15.173  0.5367 -1.3420  1.7946
 3470TIP3   OH231824   5.027   3.820   5.954  0.2260  0.6653 -0.6416
 3470TIP3    H131825   5.030   3.824   5.858  1.5010  1.7744 -0.5825
 3470TIP3    H231826   5.093   3.883   5.983 -0.8062  1.0629  0.9909
 3471TIP3   OH231827   1.642   1.263   4.002  0.4509 -0.4077  0.2666
 3471TIP3    H131828   1.613   1.228   3.918 -1.4141 -0.4876  0.9012
 3471TIP3    H231829   1.737   1.248   4.003  0.4501 -0.7803 -1.6245
 3472TIP3   OH231830   1.008   5.735  15.207 -0.7785 -0.0637 -0.1687
 3472TIP3    H131831   1.103   5.737  15.197 -0.6636 -3.7062 -1.4194
 3472TIP3    H231832   0.974   5.761  15.122 -0.7735 -1.2047 -0.5361
 3473TIP3   OH231833   6.405   1.713  13.701  0.1156  0.0614  0.1708
 3473TIP3    H131834   6.320   1.685  13.667 -0.0023  2.7709 -2.0995
 3473TIP3    H231835   6.408   1.679  13.790 -2.4930 -1.7376 -0.3284
 3474TIP3   OH231836   4.834   3.866   0.390  0.0294 -0.0148 -0.2348
 3474TIP3    H131837   4.757   3.907   0.351 -0.9057 -0.3171  1.2019
 3474TIP3    H231838   4.821   3.875   0.484  1.3390 -0.8491  0.0590
 3475TIP3   OH231839   2.709   5.008   0.691  0.4574 -0.1501 -0.3284
 3475TIP3    H131840   2.765   4.955   0.749 -0.9925 -2.2229 -0.7183
 3475TIP3    H231841   2.651   4.945   0.649 -0.3821  1.6208 -1.9926
 3476TIP3   OH231842   1.946   4.030  13.796 -0.4067 -0.5313 -0.1066
 3476TIP3    H131843   1.875   4.042  13.733 -0.1895 -0.0200 -0.2548
 3476TIP3    H231844   1.934   3.941  13.829 -2.0392  0.0577  1.0152
 3477TIP3   OH231845   0.408   4.896  14.557 -0.5725  0.3206  0.2800
 3477TIP3    H131846   0.485   4.896  14.614 -0.2606 -0.4984 -0.1337
 3477TIP3    H231847   0.399   4.987  14.529  0.2133  0.4363  0.3772
 3478TIP3   OH231848   6.657   1.830  13.025  0.3486  0.6626  0.1282
 3478TIP3    H131849   6.601   1.873  13.090 -0.9384 -0.0739 -0.4656
 3478TIP3    H231850   6.597   1.783  12.968  1.7092 -2.6106  1.1654
 3479TIP3   OH231851   3.535   5.064  11.834  0.4633  0.2162 -0.1757
 3479TIP3    H131852   3.488   5.055  11.917  1.9069  2.0157  0.9323
 3479TIP3    H231853   3.600   4.994  11.836  1.1969  0.8963  0.7631
 3480TIP3   OH231854   5.274   2.799  16.695 -0.4141 -0.4323 -0.6534
 3480TIP3    H131855   5.318   2.863  16.639 -0.6149 -0.3232 -0.6877
 3480TIP3    H231856   5.222   2.746  16.636 -0.3241 -0.5677 -0.6140
 3481TIP3   OH231857   6.192   5.760   0.399  0.3999 -0.0202  0.0216
 3481TIP3    H131858   6.189   5.677   0.351 -0.4823  0.8677 -1.5341
 3481TIP3    H231859   6.183   5.827   0.332 -1.9826  1.2815  1.4919
 3482TIP3   OH231860   6.480   0.390   1.229 -0.1752  0.8452  0.8275
 3482TIP3    H131861   6.451   0.455   1.165 -1.0526  0.7786  1.1283
 3482TIP3    H231862   6.517   0.442   1.301  0.0470  0.9632  0.6257
 3483TIP3   OH231863   3.261   3.913  12.947 -0.4204 -0.0055  0.8600
 3483TIP3    H131864   3.332   3.882  13.002 -0.4652 -1.0341  0.3588
 3483TIP3    H231865   3.303   3.973  12.885  0.0685 -0.7549  0.4430
 3484TIP3   OH231866   2.179   2.385  16.436  0.4983 -0.0004  0.5963
 3484TIP3    H131867   2.109   2.360  16.497 -1.4475  2.5745 -0.3990
 3484TIP3    H231868   2.194   2.478  16.453  2.2997 -0.0185 -0.5958
 3485TIP3   OH231869   3.274   3.012  13.555 -0.1385  0.0569 -0.2076
 3485TIP3    H131870   3.232   3.071  13.492 -0.1010  2.0754  1.5439
 3485TIP3    H231871   3.209   2.943  13.570 -2.0103  1.9009  0.7476
 3486TIP3   OH231872   6.417   2.297   1.613 -0.2232 -0.2442  0.5248
 3486TIP3    H131873   6.345   2.252   1.656 -1.6050  2.5715  1.3663
 3486TIP3    H231874   6.466   2.338   1.685  1.7086 -1.2861 -0.1110
 3487TIP3   OH231875   3.064   5.370   5.410  0.2045  0.1263  0.0256
 3487TIP3    H131876   3.110   5.447   5.378  0.0407  0.6691  1.0701
 3487TIP3    H231877   3.001   5.349   5.341  0.5058  0.6882 -0.4307
 3488TIP3   OH231878   0.352   6.351   1.937  0.2276  0.0012 -0.1338
 3488TIP3    H131879   0.424   6.320   1.991  1.5239  0.3074 -1.6176
 3488TIP3    H231880   0.275   6.345   1.994  0.7245 -3.7290  0.4036
 3489TIP3   OH231881   1.578   3.984   1.072  0.4288 -0.5724  0.6066
 3489TIP3    H131882   1.629   4.047   1.122 -1.2016 -0.5986  2.3991
 3489TIP3    H231883   1.505   4.035   1.036  0.0159 -1.1113  0.6664
 3490TIP3   OH231884   2.768   4.711  15.975 -0.4287  0.0816 -0.2541
 3490TIP3    H131885   2.792   4.733  16.065 -0.1351 -0.3539 -0.2242
 3490TIP3    H231886   2.834   4.756  15.921  1.2369 -2.0390 -0.1329
 3491TIP3   OH231887   3.027   3.882  17.423  0.5910 -0.6472  0.0093
 3491TIP3    H131888   3.001   3.826  17.496  0.7401  0.0542  0.6121
 3491TIP3    H231889   2.984   3.966  17.441  1.0883 -0.2964 -0.4094
 3492TIP3   OH231890   6.408   2.909  13.329 -0.0642  0.1516  0.2726
 3492TIP3    H131891   6.327   2.905  13.379 -0.1835  0.4596  0.1050
 3492TIP3    H231892   6.424   2.818  13.302  0.0029 -0.0193  0.8689
 3493TIP3   OH231893   6.193   0.410   5.720  0.4325 -0.2678  0.2303
 3493TIP3    H131894   6.102   0.422   5.693  0.1110  1.1811  1.7622
 3493TIP3    H231895   6.239   0.486   5.684  0.7453 -0.2718  0.6115
 3494TIP3   OH231896   0.617   1.939   1.466  0.0813  0.7791 -0.3423
 3494TIP3    H131897   0.627   2.029   1.438  1.5296  0.9753  0.7324
 3494TIP3    H231898   0.614   1.943   1.562  1.2432 -0.3874 -0.2281
 3495TIP3   OH231899   6.611   2.095  14.252 -0.2325  0.6964 -0.1147
 3495TIP3    H131900   6.647   2.017  14.294 -0.8561 -0.0335 -0.9089
 3495TIP3    H231901   6.665   2.167  14.285 -0.7912  0.1847  2.0477
 3496TIP3   OH231902   0.467   6.284  14.554  0.0942 -0.3685  0.0867
 3496TIP3    H131903   0.388   6.337  14.565  0.9340  1.5311 -2.1680
 3496TIP3    H231904   0.537   6.338  14.589  0.8290 -0.4716 -1.1668
 3497TIP3   OH231905   1.446   3.262  14.150 -1.2484 -0.2866  0.0121
 3497TIP3    H131906   1.397   3.198  14.202 -1.1468  0.4700  1.0623
 3497TIP3    H231907   1.380   3.325  14.122 -1.0005  0.3102  0.7726
 3498TIP3   OH231908   1.657   3.974  13.097  0.1731 -0.3723  0.4231
 3498TIP3    H131909   1.718   4.002  13.165  0.9676  1.2105 -0.8643
 3498TIP3    H231910   1.712   3.948  13.023 -0.6163  2.0830 -1.1526
 3499TIP3   OH231911   3.419   5.663   4.472  0.6610 -0.2729  0.2627
 3499TIP3    H131912   3.395   5.586   4.524 -0.0626  0.8525  1.6883
 3499TIP3    H231913   3.510   5.680   4.495  1.2337 -1.4265 -1.0465
 3500TIP3   OH231914   5.770   6.616  11.752 -0.2148  0.7876 -0.4081
 3500TIP3    H131915   5.840   6.679  11.735  1.2551 -0.5769  0.4325
 3500TIP3    H231916   5.782   6.590  11.843  0.0511 -1.6768 -1.0757
 3501TIP3   OH231917   1.193   2.474   4.863 -0.0514  0.6397 -0.0936
 3501TIP3    H131918   1.257   2.440   4.801 -1.2790 -0.1828 -0.9553
 3501TIP3    H231919   1.182   2.565   4.838  0.1407  0.5550 -0.5009
 3502TIP3   OH231920   4.835   3.226  13.096  0.1833 -0.7142 -0.2812
 3502TIP3    H131921   4.800   3.264  13.177 -0.2559  0.8096 -1.1658
 3502TIP3    H231922   4.849   3.134  13.118  0.8509 -0.1783  1.7891
 3503TIP3   OH231923   2.882   5.104  13.088 -0.0897 -0.4226 -0.5451
 3503TIP3    H131924   2.791   5.094  13.115  0.5389 -1.6156  1.3556
 3503TIP3    H231925   2.906   5.192  13.115 -0.6695 -0.0739 -1.1240
 3504TIP3   OH231926   1.681   1.215  17.013  0.1607  0.4608 -0.0584
 3504TIP3    H131927   1.771   1.187  17.027  0.5569  1.3510 -0.7359
 3504TIP3    H231928   1.676   1.302  17.053  0.6429  2.0086 -3.0517
 3505TIP3   OH231929   1.686   1.225  10.234 -0.4153 -0.6905  0.1371
 3505TIP3    H131930   1.691   1.315  10.267  0.9929 -0.8970  0.5384
 3505TIP3    H231931   1.594   1.200  10.246 -0.3343 -0.1345  2.2564
 3506TIP3   OH231932   4.243   1.646   3.371 -0.0143 -0.8496 -0.7466
 3506TIP3    H131933   4.296   1.581   3.418 -0.6462 -0.7832  0.0693
 3506TIP3    H231934   4.153   1.626   3.395 -0.1609  1.1178  0.5663
 3507TIP3   OH231935   0.111   6.212  17.321 -0.1150 -0.3528  0.5491
 3507TIP3    H131936   0.128   6.282  17.384  0.1514 -0.1774  0.2823
 3507TIP3    H231937   0.060   6.255  17.252  0.8081 -0.2143 -0.0511
 3508TIP3   OH231938   5.632   0.275   3.031  0.2031 -0.2000 -0.2198
 3508TIP3    H131939   5.708   0.331   3.016 -1.2221  1.7038 -0.6597
 3508TIP3    H231940   5.612   0.238   2.945 -0.4871  0.7952 -0.4923
 3509TIP3   OH231941   0.248   4.684   1.558 -0.0350 -0.6572  0.0193
 3509TIP3    H131942   0.184   4.710   1.492 -2.3793 -0.6049  2.1405
 3509TIP3    H231943   0.275   4.767   1.599  0.9464 -0.7364 -0.4364
 3510TIP3   OH231944   6.574   5.270  14.302 -0.4438  0.1147 -0.0512
 3510TIP3    H131945   6.591   5.360  14.274 -0.9760  0.1920 -0.1481
 3510TIP3    H231946   6.507   5.239  14.241  0.4572 -0.6945 -0.6555
 3511TIP3   OH231947   4.958   5.324  14.170  0.2048  0.0983 -0.7386
 3511TIP3    H131948   5.029   5.267  14.199  1.4267  0.8226 -2.1506
 3511TIP3    H231949   4.879   5.273  14.184  0.8963 -0.4195  1.6754
 3512TIP3   OH231950   4.784   2.051  15.661 -0.1809  0.0538 -0.4671
 3512TIP3    H131951   4.791   1.987  15.731 -0.3634  0.5819  0.0400
 3512TIP3    H231952   4.874   2.082  15.647  0.0604 -0.9886 -1.3698
 3513TIP3   OH231953   5.581   3.793  13.416 -0.4726 -0.3064 -0.2560
 3513TIP3    H131954   5.632   3.814  13.495 -0.9967  0.5225 -0.1309
 3513TIP3    H231955   5.599   3.700  13.400 -0.0437 -0.3789  0.6058
 3514TIP3   OH231956   0.923   0.268  13.592 -0.6676 -0.3269 -0.2472
 3514TIP3    H131957   0.903   0.286  13.683 -0.4323 -1.1551 -0.0145
 3514TIP3    H231958   0.854   0.208  13.564 -0.7482 -0.0622 -0.6198
 3515TIP3   OH231959   0.900   6.613  13.752  0.3603 -0.1430  0.1555
 3515TIP3    H131960   0.840   6.656  13.813  1.2057  1.9384 -0.3850
 3515TIP3    H231961   0.987   6.626  13.790  0.6696 -1.1564 -0.1728
 3516TIP3   OH231962   6.254   5.489   2.121  0.5250 -0.3676 -0.1939
 3516TIP3    H131963   6.178   5.463   2.068 -2.0811  2.1638  2.0086
 3516TIP3    H231964   6.230   5.574   2.158  3.5503 -0.4827  2.4348
 3517TIP3   OH231965   6.055   5.123   4.567  0.1749  0.6916 -0.1993
 3517TIP3    H131966   5.965   5.139   4.594  0.4262  3.6488 -0.7817
 3517TIP3    H231967   6.062   5.165   4.481  1.8682 -0.2838 -0.5759
 3518TIP3   OH231968   3.314   3.399  11.430  0.3177  0.4434  0.1469
 3518TIP3    H131969   3.280   3.469  11.486 -1.8935 -1.3574  1.2304
 3518TIP3    H231970   3.236   3.352  11.400  1.6111 -0.3560 -2.2188
 3519TIP3   OH231971   2.117   3.018   1.377  0.1166  0.1383  0.4746
 3519TIP3    H131972   2.091   2.992   1.289  1.5463  0.5359 -0.0992
 3519TIP3    H231973   2.035   3.021   1.427 -0.9861  1.6704 -1.2917
 3520TIP3   OH231974   5.950   4.222  15.662 -0.4027  0.0939  0.2381
 3520TIP3    H131975   6.041   4.211  15.635  0.3931  1.7943  1.9736
 3520TIP3    H231976   5.926   4.136  15.697  0.7855 -0.1900  0.4152
 3521TIP3   OH231977   3.155   2.479   5.469  0.6730  0.0010 -0.3206
 3521TIP3    H131978   3.085   2.527   5.514  1.3047  0.2454  0.4213
 3521TIP3    H231979   3.175   2.406   5.527 -1.4052 -2.2316 -2.1840
 3522TIP3   OH231980   1.375   2.987  12.937 -1.1564 -0.4594 -0.6006
 3522TIP3    H131981   1.467   3.009  12.951 -1.4958  0.0197  1.1579
 3522TIP3    H231982   1.371   2.892  12.944 -0.7362 -0.5186 -1.1238
 3523TIP3   OH231983   5.030   2.801   3.113  0.1854  0.3388 -0.1560
 3523TIP3    H131984   5.017   2.716   3.072  4.2023 -1.2243  1.2486
 3523TIP3    H231985   5.055   2.859   3.041  0.7258 -0.6145 -0.7595
 3524TIP3   OH231986   3.382   3.545  15.415 -0.3978  0.2832  0.1510
 3524TIP3    H131987   3.358   3.470  15.361  0.0974  1.0876 -1.2147
 3524TIP3    H231988   3.300   3.590  15.432 -0.7698 -0.7889  1.3753
 3525TIP3   OH231989   5.261   4.012  11.460 -0.2046  0.1410  0.2518
 3525TIP3    H131990   5.240   3.990  11.369 -1.0934 -0.7418  0.6559
 3525TIP3    H231991   5.286   4.105  11.456 -1.1924  0.3975 -0.7528
 3526TIP3   OH231992   2.038   1.387   4.408 -0.3571  0.1953  0.2110
 3526TIP3    H131993   1.992   1.471   4.412  0.4917  0.6321  1.4392
 3526TIP3    H231994   2.010   1.341   4.487  1.0977  0.3802  0.8770
 3527TIP3   OH231995   5.085   4.854  12.773  0.4225  0.6585 -1.0306
 3527TIP3    H131996   5.009   4.863  12.715 -0.3540 -1.9301 -0.5355
 3527TIP3    H231997   5.048   4.833  12.858  1.6713  1.0311 -0.3706
 3528TIP3   OH231998   1.906   0.491   4.327 -0.3835  0.1591  0.2182
 3528TIP3    H131999   1.826   0.488   4.275 -1.1468  3.1245  1.0230
 3528TIP3    H232000   1.969   0.539   4.273 -0.8206  2.2431  1.4343
 3529TIP3   OH232001   2.166   2.240  13.486  0.2767  0.0098 -0.6059
 3529TIP3    H132002   2.087   2.186  13.493  0.7342 -0.5719  0.0960
 3529TIP3    H232003   2.221   2.213  13.559  0.5775  1.3420 -0.3008
 3530TIP3   OH232004   5.754   0.104   4.333 -0.0619  0.2926 -0.4372
 3530TIP3    H132005   5.736   0.076   4.423 -0.9751  1.0184 -0.3850
 3530TIP3    H232006   5.813   0.178   4.342  0.2630  0.0412 -0.4670
 3531TIP3   OH232007   2.822   4.628  11.894  0.6955  0.0863  0.5003
 3531TIP3    H132008   2.910   4.664  11.883  1.0137 -1.1663 -1.6334
 3531TIP3    H232009   2.795   4.656  11.981  2.3738  2.2589  0.4040
 3532TIP3   OH232010   2.887   4.359  10.400 -0.4762  0.3853  0.3137
 3532TIP3    H132011   2.807   4.308  10.389 -0.0022 -0.3875  0.4237
 3532TIP3    H232012   2.880   4.396  10.488 -0.3763 -0.2787  0.6056
 3533TIP3   OH232013   3.043   6.195  12.821  0.4892 -0.2513 -0.5997
 3533TIP3    H132014   3.095   6.146  12.758  1.1329  0.8957 -0.9812
 3533TIP3    H232015   2.955   6.197  12.783  0.4397 -1.1593 -0.5428
 3534TIP3   OH232016   5.925   2.990   2.461 -0.5633  0.5104 -0.1561
 3534TIP3    H132017   5.918   2.895   2.454  0.8936  0.2375  1.4270
 3534TIP3    H232018   5.861   3.014   2.527 -1.4986  0.7616 -1.1273
 3535TIP3   OH232019   2.137   1.533  11.902  0.5218 -0.1067 -0.5224
 3535TIP3    H132020   2.077   1.467  11.868 -2.3339  2.3965 -0.8401
 3535TIP3    H232021   2.213   1.529  11.844 -0.9342 -1.0431 -2.4854
 3536TIP3   OH232022   2.582   1.598   2.838 -0.0944 -0.5573 -0.4398
 3536TIP3    H132023   2.651   1.661   2.816  0.3953 -0.9429 -0.0422
 3536TIP3    H232024   2.501   1.641   2.810 -0.0851  1.4175  2.1276
 3537TIP3   OH232025   3.179   4.601  15.789 -0.6266  0.4569 -0.1303
 3537TIP3    H132026   3.137   4.616  15.704 -0.7947  0.9227  0.0323
 3537TIP3    H232027   3.269   4.634  15.777 -0.1347 -0.9729 -0.6256
 3538TIP3   OH232028   5.410   5.557   4.678 -0.0628  0.2980 -0.4032
 3538TIP3    H132029   5.399   5.637   4.626 -1.4726  0.4760  0.1200
 3538TIP3    H232030   5.499   5.562   4.711 -0.0043  1.4886 -0.6695
 3539TIP3   OH232031   2.563   1.400  13.106  0.4000  0.3956  0.2320
 3539TIP3    H132032   2.508   1.477  13.120 -3.1652 -1.6225 -1.2354
 3539TIP3    H232033   2.593   1.409  13.015 -1.2703 -0.4965 -0.4706
 3540TIP3   OH232034   0.681   4.172   4.479  0.0750  0.4176 -0.0800
 3540TIP3    H132035   0.652   4.260   4.507  1.7114  0.5652  1.3260
 3540TIP3    H232036   0.716   4.133   4.559  1.2517 -0.7410 -1.1386
 3541TIP3   OH232037   3.931   2.135  15.477  0.0234 -0.0715  0.1256
 3541TIP3    H132038   3.959   2.209  15.531 -2.3670  0.2664  1.0010
 3541TIP3    H232039   3.867   2.088  15.530 -1.5293 -0.4201 -1.9260
 3542TIP3   OH232040   2.346   1.662   2.347  0.0834  0.0792 -0.1918
 3542TIP3    H132041   2.311   1.726   2.286  1.4499  0.6445 -0.4119
 3542TIP3    H232042   2.426   1.630   2.306  0.9856  0.3921  1.2275
 3543TIP3   OH232043   5.761   4.595   4.117  0.7842 -0.5440  0.3086
 3543TIP3    H132044   5.736   4.680   4.081 -0.0452 -0.3330  1.3291
 3543TIP3    H232045   5.844   4.611   4.162  1.6847 -0.7491 -1.2127
 3544TIP3   OH232046   4.657   2.237   0.811  0.0353 -0.0678  0.0801
 3544TIP3    H132047   4.674   2.331   0.811  1.6934 -0.3022 -1.9616
 3544TIP3    H232048   4.734   2.199   0.853 -0.5831 -0.5516  0.8034
 3545TIP3   OH232049   3.955   3.469  14.043  0.1461  0.1070 -0.5387
 3545TIP3    H132050   4.004   3.540  14.084 -0.7866 -1.3322  3.6343
 3545TIP3    H232051   4.011   3.392  14.054 -0.4096 -0.4582 -1.5206
 3546TIP3   OH232052   3.709   2.868   1.989 -0.6292  0.3619 -0.5873
 3546TIP3    H132053   3.643   2.841   2.053 -0.3475 -0.5021 -0.6412
 3546TIP3    H232054   3.692   2.961   1.974 -1.5725  0.2466 -0.2952
 3547TIP3   OH232055   5.374   0.835   6.583  0.3674 -0.0342 -0.6442
 3547TIP3    H132056   5.440   0.860   6.519  2.1314 -1.4047  0.5674
 3547TIP3    H232057   5.393   0.744   6.605 -0.9062  0.0250  0.9625
 3548TIP3   OH232058   0.701   4.695   4.466 -0.4706 -0.0970 -0.5969
 3548TIP3    H132059   0.729   4.701   4.557 -0.5688 -0.4475 -0.5426
 3548TIP3    H232060   0.738   4.773   4.424 -0.1266 -0.1207 -0.3390
 3549TIP3   OH232061   6.475   2.314   1.337  0.1986 -0.3835 -0.2263
 3549TIP3    H132062   6.489   2.275   1.423  0.7847 -1.7695 -0.9188
 3549TIP3    H232063   6.399   2.370   1.349  0.3177 -0.4795  1.2114
 3550TIP3   OH232064   1.666   4.204   3.336  0.0127 -0.2243 -0.2445
 3550TIP3    H132065   1.713   4.211   3.253 -1.1445  1.6837 -0.8131
 3550TIP3    H232066   1.710   4.267   3.393 -1.2414  0.9340 -0.5102
 3551TIP3   OH232067   4.251   0.109   4.802  0.1796  0.4480 -0.2979
 3551TIP3    H132068   4.203   0.031   4.776 -2.1267  1.5540  0.4379
 3551TIP3    H232069   4.257   0.162   4.722  0.5003  0.1656 -0.4649
 3552TIP3   OH232070   2.398   0.936  14.081  0.2163 -0.6639 -0.2128
 3552TIP3    H132071   2.443   0.953  13.999  0.4261  0.3022  0.0850
 3552TIP3    H232072   2.356   0.851  14.069 -0.5298 -0.1132 -1.6500
 3553TIP3   OH232073   2.197   2.474  11.742 -0.4693  0.3120  0.6195
 3553TIP3    H132074   2.267   2.534  11.716 -0.2062  0.0883  0.8012
 3553TIP3    H232075   2.155   2.449  11.660  0.1184 -0.0975  0.4343
 3554TIP3   OH232076   5.851   5.851   3.712  0.6830 -0.3548  0.3178
 3554TIP3    H132077   5.860   5.756   3.703  2.3556 -0.4237  2.1601
 3554TIP3    H232078   5.872   5.869   3.803 -1.2516  1.6532  0.4564
 3555TIP3   OH232079   5.538   5.026   3.256  0.2993  0.4258  0.0501
 3555TIP3    H132080   5.482   5.003   3.182  0.7355 -0.7506  0.0620
 3555TIP3    H232081   5.627   5.011   3.224  0.5334  0.6733  0.5666
 3556TIP3   OH232082   4.655   4.020   2.573 -0.3255 -0.1304 -0.0454
 3556TIP3    H132083   4.662   4.099   2.625 -1.9882 -0.3695  0.6130
 3556TIP3    H232084   4.715   3.958   2.614 -0.6878  0.0899  0.8288
 3557TIP3   OH232085   0.182   6.106   2.411  0.0379  0.2750  0.7179
 3557TIP3    H132086   0.096   6.144   2.426 -0.2659 -0.6288  1.3295
 3557TIP3    H232087   0.213   6.082   2.499  0.4576 -0.3772  0.3962
 3558TIP3   OH232088   3.114   5.433  16.461  0.0259  0.5816 -0.2637
 3558TIP3    H132089   3.117   5.352  16.410  2.7455 -0.5359  1.4317
 3558TIP3    H232090   3.178   5.490  16.418  2.5287 -0.4602  1.8190
 3559TIP3   OH232091   6.522   0.399   0.475  0.6670  0.7520  0.3997
 3559TIP3    H132092   6.492   0.314   0.441  0.5629  0.6556  0.7312
 3559TIP3    H232093   6.486   0.403   0.564  0.6251  1.1692  0.3634
 3560TIP3   OH232094   4.622   0.042   5.337  0.1860 -0.9499  0.2497
 3560TIP3    H132095   4.627  -0.004   5.421 -2.8112 -1.1279  0.4307
 3560TIP3    H232096   4.577  -0.019   5.279  0.2805  0.0054 -0.8556
 3561TIP3   OH232097   0.416   4.908   4.143  0.4789  0.0438  0.1765
 3561TIP3    H132098   0.432   5.003   4.143  0.9606 -0.0260  0.7224
 3561TIP3    H232099   0.439   4.880   4.232 -0.4459 -0.4648  0.2674
 3562TIP3   OH232100   1.208   3.356   5.371  0.3800 -0.0454 -0.4935
 3562TIP3    H132101   1.261   3.291   5.325  0.1499  0.8420 -2.1060
 3562TIP3    H232102   1.259   3.377   5.449  1.1607 -1.0654 -0.7020
 3563TIP3   OH232103   3.821   0.945  13.957  0.2015  0.0970  0.0427
 3563TIP3    H132104   3.839   0.886  13.884  0.9504  0.9310 -0.4639
 3563TIP3    H232105   3.754   0.900  14.008 -0.2410 -0.5572 -1.0816
 3564TIP3   OH232106   2.605   4.799   1.276 -0.1742  0.0719 -0.5019
 3564TIP3    H132107   2.522   4.758   1.301 -0.3300  0.6964  0.0287
 3564TIP3    H232108   2.650   4.733   1.223 -2.1461  0.6310 -3.0892
 3565TIP3   OH232109   4.202   4.485   4.552 -0.0455  0.0094  0.5875
 3565TIP3    H132110   4.199   4.552   4.484 -0.2158  0.7707  1.3267
 3565TIP3    H232111   4.177   4.404   4.507 -0.5985  0.5797 -0.1597
 3566TIP3   OH232112   2.695   5.565  11.081  0.3467 -0.5280  0.3198
 3566TIP3    H132113   2.654   5.488  11.041 -1.7448 -0.1931  1.6471
 3566TIP3    H232114   2.707   5.541  11.173  1.4317  0.0770  0.3491
 3567TIP3   OH232115   4.661   4.592   1.530  0.1445  0.0838  0.3972
 3567TIP3    H132116   4.685   4.500   1.517 -0.2797  0.1301 -0.9164
 3567TIP3    H232117   4.643   4.600   1.623 -2.4767 -1.8530  0.1685
 3568TIP3   OH232118   5.319   0.164   2.556  0.0859 -0.7371  0.2479
 3568TIP3    H132119   5.252   0.203   2.500 -1.7925 -1.6816  1.7058
 3568TIP3    H232120   5.338   0.080   2.514 -1.2603 -1.4114  0.9172
 3569TIP3   OH232121   5.711   0.105   0.311 -0.3385  0.2339  0.2292
 3569TIP3    H132122   5.698   0.027   0.365 -2.6184  0.3036 -0.0878
 3569TIP3    H232123   5.712   0.072   0.221  0.9317  0.3679  0.1841
 3570TIP3   OH232124   3.049   0.732   5.504  0.0130  0.1952  0.4326
 3570TIP3    H132125   3.133   0.777   5.506 -0.5120  1.2059  2.1154
 3570TIP3    H232126   3.052   0.678   5.425  1.4120  1.7801 -0.6756
 3571TIP3   OH232127   6.479   6.601  17.533  1.0630 -0.1050  0.8843
 3571TIP3    H132128   6.476   6.506  17.530  0.8083 -0.0839  0.3984
 3571TIP3    H232129   6.430   6.624  17.612  1.2962 -0.3817  1.1122
 3572TIP3   OH232130   0.169   4.021   1.618  1.8178 -0.0285 -0.0757
 3572TIP3    H132131   0.179   3.927   1.636  1.7659  0.2723  1.7650
 3572TIP3    H232132   0.162   4.061   1.705 -3.5872  1.1207 -0.7357
 3573TIP3   OH232133   1.556   3.518  11.083  0.3572  0.1164 -0.0290
 3573TIP3    H132134   1.507   3.525  11.165  2.3966 -1.3906  1.4436
 3573TIP3    H232135   1.569   3.424  11.071  0.0959  0.3060 -2.1342
 3574TIP3   OH232136   2.956   0.515   1.439  0.4843 -0.4103 -0.4422
 3574TIP3    H132137   2.903   0.591   1.465  1.2902  0.0780 -0.1945
 3574TIP3    H232138   3.001   0.489   1.519  1.7567  0.1083 -0.9677
 3575TIP3   OH232139   2.097   4.586   0.313 -0.5931 -0.1520 -0.1020
 3575TIP3    H132140   2.157   4.545   0.375 -0.4029 -0.8671 -0.7478
 3575TIP3    H232141   2.093   4.678   0.341  1.4706  0.1294 -0.5375
 3576TIP3   OH232142   0.910   1.187  14.497 -0.0876  0.0969 -0.2946
 3576TIP3    H132143   0.949   1.271  14.471  0.6093  0.0708  0.6201
 3576TIP3    H232144   0.816   1.204  14.499  0.0906  1.0756  0.5813
 3577TIP3   OH232145   2.784   5.785   1.159  0.1244 -0.6567  0.0792
 3577TIP3    H132146   2.766   5.715   1.096 -2.5723  1.0163 -1.2084
 3577TIP3    H232147   2.702   5.796   1.207  0.5524  1.3903  0.4471
 3578TIP3   OH232148   1.489   3.558   1.801 -0.0127  0.2108 -0.0757
 3578TIP3    H132149   1.540   3.634   1.829  0.7604  0.1278 -1.1915
 3578TIP3    H232150   1.418   3.552   1.865  0.5425  1.2084  0.6611
 3579TIP3   OH232151   1.518   0.853  14.978 -0.8582 -0.1683 -0.1851
 3579TIP3    H132152   1.461   0.926  15.001  1.0753  1.0206  1.0847
 3579TIP3    H232153   1.587   0.892  14.924 -0.3176 -1.2553 -0.3101
 3580TIP3   OH232154   0.635   2.304   2.770 -0.4109 -0.1184 -0.1061
 3580TIP3    H132155   0.617   2.354   2.690  1.1669 -0.0165 -0.4315
 3580TIP3    H232156   0.638   2.371   2.840  0.1178  0.0572 -0.2881
 3581TIP3   OH232157   1.448   2.919   3.924  0.2510  0.0599  0.3823
 3581TIP3    H132158   1.439   2.912   3.829 -0.4425  0.8319  0.3848
 3581TIP3    H232159   1.386   2.988   3.950  0.1733 -0.3826  1.4356
 3582TIP3   OH232160   5.291   4.273  11.351  0.4580  0.0628  0.0137
 3582TIP3    H132161   5.268   4.257  11.260  1.1890  0.1176 -0.1869
 3582TIP3    H232162   5.309   4.367  11.356  2.2902 -0.2268 -0.2432
 3583TIP3   OH232163   1.145   0.180   0.680 -0.2178  0.2248 -0.1544
 3583TIP3    H132164   1.195   0.174   0.761 -2.9994 -2.5517  1.5953
 3583TIP3    H232165   1.114   0.271   0.677  0.8318  0.6582  1.3091
 3584TIP3   OH232166   3.102   1.331  16.587 -0.5802  0.7639 -0.2872
 3584TIP3    H132167   3.098   1.284  16.505  1.1450 -0.0554  0.0602
 3584TIP3    H232168   3.100   1.263  16.655 -0.2438  1.3067  0.2873
 3585TIP3   OH232169   3.321   4.310  11.776  0.1656  0.1422 -0.4147
 3585TIP3    H132170   3.359   4.286  11.692 -1.4474  0.9030 -1.4299
 3585TIP3    H232171   3.228   4.291  11.766  0.1537 -1.3558  1.8392
 3586TIP3   OH232172   5.683   4.278  14.447 -0.4780 -0.4486  0.3208
 3586TIP3    H132173   5.757   4.311  14.396 -0.3956  0.1163  0.8006
 3586TIP3    H232174   5.675   4.186  14.421  0.6555 -0.6302  0.5709
 3587TIP3   OH232175   4.474   5.009  11.073 -0.4840 -0.3871 -0.4051
 3587TIP3    H132176   4.434   4.931  11.112  0.6074 -0.5856  0.3682
 3587TIP3    H232177   4.440   5.011  10.983 -1.6332 -0.9444  0.0011
 3588TIP3   OH232178   4.925   6.366   4.400 -0.1775  0.0479  0.4169
 3588TIP3    H132179   4.962   6.302   4.339  1.0600 -0.2533  1.4353
 3588TIP3    H232180   5.001   6.413   4.434 -0.9723  1.2206  0.6129
 3589TIP3   OH232181   1.102   5.022  14.605 -0.0666 -0.1333 -0.0372
 3589TIP3    H132182   1.101   5.117  14.620 -0.8602 -0.0245 -0.6895
 3589TIP3    H232183   1.194   4.999  14.601  0.1514  0.8346 -1.1815
 3590TIP3   OH232184   0.269   3.351  15.772 -0.5320  0.0408 -0.0837
 3590TIP3    H132185   0.335   3.341  15.841 -0.3373 -0.5756 -0.3461
 3590TIP3    H232186   0.299   3.425  15.720  0.2991 -0.6218 -0.5678
 3591TIP3   OH232187   6.142   0.091  16.616 -0.0748 -0.3383 -0.6435
 3591TIP3    H132188   6.115   0.014  16.566 -0.4044 -1.1491  0.7367
 3591TIP3    H232189   6.063   0.145  16.621 -0.6785 -1.2853  0.8057
 3592TIP3   OH232190   2.881   6.339  14.776 -0.3279 -0.1959 -0.8529
 3592TIP3    H132191   2.905   6.401  14.846 -0.0643 -1.1035 -0.1129
 3592TIP3    H232192   2.827   6.390  14.716 -2.4578  0.0689  1.1581
 3593TIP3   OH232193   1.074   5.649  11.987 -0.4511 -0.3837 -0.1316
 3593TIP3    H132194   1.088   5.555  11.981  0.2742 -0.5819  2.8030
 3593TIP3    H232195   1.122   5.686  11.913 -1.3190 -2.3076 -1.7483
 3594TIP3   OH232196   0.557   0.855   4.270 -0.1409  0.2297  0.1931
 3594TIP3    H132197   0.651   0.843   4.284 -0.1655 -0.6620 -0.3312
 3594TIP3    H232198   0.519   0.769   4.286 -0.4011 -0.4602 -3.2556
 3595TIP3   OH232199   3.389   5.566  17.306 -0.6296  0.8428  0.5039
 3595TIP3    H132200   3.465   5.509  17.305 -0.2766  1.2607 -1.6522
 3595TIP3    H232201   3.331   5.529  17.373 -0.5027 -2.1477 -0.9173
 3596TIP3   OH232202   6.288   0.308  15.227  0.1880 -0.1703  0.5615
 3596TIP3    H132203   6.241   0.237  15.272  1.3191 -0.2645  1.6600
 3596TIP3    H232204   6.374   0.310  15.269  1.5083 -0.5594 -1.9593
 3597TIP3   OH232205   3.768   5.115   2.880  0.4716 -0.0080  0.0165
 3597TIP3    H132206   3.758   5.033   2.929 -0.3146 -0.0323 -0.1825
 3597TIP3    H232207   3.854   5.148   2.907  1.0032 -1.1267 -0.2465
 3598TIP3   OH232208   2.207   0.824   5.825 -0.3398 -0.0662 -0.0548
 3598TIP3    H132209   2.267   0.749   5.829 -0.3927 -0.0629  1.1915
 3598TIP3    H232210   2.181   0.829   5.732  0.7920 -0.6813 -0.4250
 3599TIP3   OH232211   4.971   4.685  14.692  0.3242  0.2387  0.3160
 3599TIP3    H132212   4.975   4.736  14.773 -0.0651  1.6922 -0.5404
 3599TIP3    H232213   5.056   4.640  14.688  0.5568  0.5684  1.2682
 3600TIP3   OH232214   0.967   4.237   0.014  0.1708 -0.5095 -0.3363
 3600TIP3    H132215   1.014   4.308  -0.028  0.6727 -0.8096 -0.2843
 3600TIP3    H232216   0.977   4.163  -0.045 -0.3253 -0.5517 -0.3756
 3601TIP3   OH232217   4.598   0.694  16.722  0.3246  0.1131  0.2280
 3601TIP3    H132218   4.547   0.618  16.697  1.2495 -0.8351  1.1259
 3601TIP3    H232219   4.590   0.699  16.818  0.8111  0.7511  0.2475
 3602TIP3   OH232220   4.983   0.550  15.675 -0.4470 -0.3855 -0.1205
 3602TIP3    H132221   4.944   0.629  15.637  0.9156  0.6145  0.4854
 3602TIP3    H232222   5.017   0.579  15.759 -0.6398 -1.8399  0.4793
 3603TIP3   OH232223   0.616   4.948  15.973 -0.1731  0.0203  0.1765
 3603TIP3    H132224   0.697   4.994  15.950 -0.5808  0.7465  0.1947
 3603TIP3    H232225   0.645   4.858  15.988  0.9703  0.6596  2.1353
 3604TIP3   OH232226   3.342   4.953   1.668  0.1887 -0.0757 -0.1799
 3604TIP3    H132227   3.340   4.880   1.729 -0.5952  1.3722  1.6308
 3604TIP3    H232228   3.273   4.933   1.604 -2.5590  0.6631  2.3357
 3605TIP3   OH232229   0.882   6.360  16.428 -0.6257  0.5112  0.3004
 3605TIP3    H132230   0.963   6.383  16.473  0.4188 -0.8803 -0.7396
 3605TIP3    H232231   0.875   6.265  16.439 -1.3294  0.4032 -0.8500
 3606TIP3   OH232232   0.091   4.162  14.213  0.0891 -0.1523 -0.2170
 3606TIP3    H132233   0.130   4.247  14.231 -3.0464  1.5109 -0.5394
 3606TIP3    H232234   0.044   4.174  14.131  1.0123 -2.7909 -1.2320
 3607TIP3   OH232235   3.302   5.791  11.813 -0.1690 -0.2247  0.3331
 3607TIP3    H132236   3.376   5.832  11.769 -0.7200  1.4605  0.8781
 3607TIP3    H232237   3.291   5.842  11.894 -0.9604 -1.4140  1.0060
 3608TIP3   OH232238   4.654   6.054  14.435 -0.5597 -0.0141 -0.4945
 3608TIP3    H132239   4.571   6.101  14.433 -2.3637 -2.9108 -0.0528
 3608TIP3    H232240   4.690   6.073  14.522 -0.7842  1.1779 -0.6443
 3609TIP3   OH232241   6.104   0.218  16.904  0.6362 -0.1353 -0.0661
 3609TIP3    H132242   6.042   0.232  16.832 -0.4512 -0.7233  0.7345
 3609TIP3    H232243   6.104   0.124  16.918 -0.3847  0.0681  1.7102
 3610TIP3   OH232244   4.344   2.180   1.444  0.4235 -0.2473  0.1845
 3610TIP3    H132245   4.368   2.097   1.486 -0.2351 -0.8647 -0.6124
 3610TIP3    H232246   4.263   2.160   1.397 -1.7010  1.7387  2.7329
 3611TIP3   OH232247   3.810   0.426  13.166  0.2792 -0.4820 -0.2585
 3611TIP3    H132248   3.903   0.419  13.146  0.4684  1.5258 -0.2239
 3611TIP3    H232249   3.794   0.520  13.174 -1.4322 -0.8599  1.2880
 3612TIP3   OH232250   3.011   6.675  12.623  0.3458 -0.1449  0.5696
 3612TIP3    H132251   3.036   6.748  12.680  0.0457  0.8650 -0.5399
 3612TIP3    H232252   3.051   6.696  12.539  1.7186 -2.1696  0.6641
 3613TIP3   OH232253   3.333   4.650  11.299 -0.1718  0.1632 -0.2471
 3613TIP3    H132254   3.254   4.660  11.352  0.8781 -1.4643  1.8364
 3613TIP3    H232255   3.375   4.736  11.301 -1.3497  0.7525 -0.4659
 3614TIP3   OH232256   5.596   0.300  17.172 -0.2009  0.0656  0.0062
 3614TIP3    H132257   5.656   0.278  17.101  0.2892 -1.3140  0.8192
 3614TIP3    H232258   5.651   0.339  17.239 -0.3947 -0.1801  0.3096
 3615TIP3   OH232259   5.034   2.796  12.684 -0.4498 -0.2363  0.1440
 3615TIP3    H132260   5.029   2.865  12.618  0.0228  0.5320  0.9003
 3615TIP3    H232261   4.947   2.757  12.685 -0.5274 -0.1202 -0.7714
 3616TIP3   OH232262   2.618   0.546   3.419 -0.5433 -0.0990  1.0056
 3616TIP3    H132263   2.672   0.485   3.369  0.5279  0.1208  1.8658
 3616TIP3    H232264   2.574   0.599   3.353 -0.0446 -0.5761  0.2784
 3617TIP3   OH232265   2.972   4.747   5.617  0.4543  0.1955  0.1129
 3617TIP3    H132266   2.902   4.698   5.575  1.9979 -4.1136  1.9506
 3617TIP3    H232267   2.929   4.794   5.689 -0.8859 -0.2227 -0.3911
 3618TIP3   OH232268   6.632   5.602   1.882  0.6839  0.1258 -0.2340
 3618TIP3    H132269   6.578   5.552   1.943  0.6194 -0.1091 -0.4831
 3618TIP3    H232270   6.704   5.543   1.860  1.4310  0.6849  0.6358
 3619TIP3   OH232271   6.356   2.619   1.865 -0.3413  0.1332  0.4798
 3619TIP3    H132272   6.355   2.695   1.808 -0.1783  0.8004  1.3460
 3619TIP3    H232273   6.274   2.573   1.845  0.1581 -0.1811 -0.9584
 3620TIP3   OH232274   5.781   3.196   2.328  0.6357 -0.1029  0.7071
 3620TIP3    H132275   5.840   3.138   2.377 -2.6070 -1.2607  3.6427
 3620TIP3    H232276   5.766   3.150   2.245  1.4523 -1.3056  1.1884
 3621TIP3   OH232277   0.403   0.005  12.949  0.1497  0.3842  0.3514
 3621TIP3    H132278   0.353   0.084  12.928  1.3424  1.0222 -0.1478
 3621TIP3    H232279   0.375  -0.017  13.038 -0.4494  1.1681  0.3716
 3622TIP3   OH232280   1.039   5.224  16.778 -0.2278 -0.8522 -0.5925
 3622TIP3    H132281   1.076   5.203  16.863 -0.8808 -0.7116 -0.2739
 3622TIP3    H232282   1.034   5.139  16.732  1.1669 -0.7809 -0.9270
 3623TIP3   OH232283   6.290   0.981  10.818 -0.4140  0.4675 -0.5438
 3623TIP3    H132284   6.260   1.057  10.768 -0.1978  1.2871  0.5496
 3623TIP3    H232285   6.385   0.985  10.814 -0.3135  1.7931  1.6997
 3624TIP3   OH232286   6.264   2.507   0.235 -0.5476 -0.2396  0.0292
 3624TIP3    H132287   6.288   2.589   0.192  0.3884 -0.0087  0.9325
 3624TIP3    H232288   6.310   2.440   0.184 -0.7394 -0.1335 -0.2867
 3625TIP3   OH232289   0.451   3.046  12.497  0.2401  0.0954  0.2639
 3625TIP3    H132290   0.478   3.049  12.588 -0.5447 -1.3368  0.5707
 3625TIP3    H232291   0.512   2.985  12.455 -0.0594 -0.0846  0.0820
 3626TIP3   OH232292   0.705   6.714  15.683 -0.1532  0.4477  0.3337
 3626TIP3    H132293   0.780   6.679  15.635 -0.4081  2.5082 -1.7808
 3626TIP3    H232294   0.740   6.787  15.734 -0.4782  0.5112  0.4707
 3627TIP3   OH232295   5.912   6.132  11.014 -0.0170  0.0118 -0.7139
 3627TIP3    H132296   5.936   6.068  11.082 -0.4928 -0.2822 -0.8218
 3627TIP3    H232297   5.945   6.094  10.933 -0.0725  0.0300 -0.7448
 3628TIP3   OH232298   1.494   4.755   2.171 -0.3944  0.1862 -0.5268
 3628TIP3    H132299   1.402   4.781   2.168 -0.6501 -0.7455 -1.3493
 3628TIP3    H232300   1.502   4.704   2.251 -0.5435  0.4238 -0.3585
 3629TIP3   OH232301   0.563   5.531  16.983  0.0064  0.3271  1.1853
 3629TIP3    H132302   0.569   5.472  17.058 -0.3325  0.1796  1.1004
 3629TIP3    H232303   0.650   5.528  16.943 -0.9564 -3.2786 -1.1906
 3630TIP3   OH232304   1.878   6.438  11.925  0.3744  0.1249  0.1843
 3630TIP3    H132305   1.790   6.476  11.914  0.0663 -0.9722 -1.7071
 3630TIP3    H232306   1.912   6.431  11.835  1.2937 -1.9422  0.6315
 3631TIP3   OH232307   1.074   3.044   2.450  0.1055 -0.2437  0.1610
 3631TIP3    H132308   1.115   3.117   2.496 -1.0311  0.2905  0.3751
 3631TIP3    H232309   1.146   2.987   2.426  0.9870  0.7694  0.3173
 3632TIP3   OH232310   4.892   2.443   1.354  0.3569 -0.2057  0.8303
 3632TIP3    H132311   4.886   2.349   1.374  0.9045 -0.5462 -0.5036
 3632TIP3    H232312   4.841   2.454   1.273  1.7220  0.3056 -0.0042
 3633TIP3   OH232313   4.525   6.144  16.311  0.4131 -0.3481 -0.0411
 3633TIP3    H132314   4.516   6.227  16.357  0.0255 -0.5977  0.3479
 3633TIP3    H232315   4.592   6.159  16.245  1.4885 -0.1727  1.0615
 3634TIP3   OH232316   3.326   4.802   4.296 -0.1492 -0.4387 -0.4247
 3634TIP3    H132317   3.350   4.778   4.207  0.1981 -0.0322 -0.4432
 3634TIP3    H232318   3.406   4.838   4.334  0.2549 -2.3248  0.6764
 3635TIP3   OH232319   3.588   3.123  13.893 -0.8818  0.1953 -0.0070
 3635TIP3    H132320   3.545   3.206  13.917 -0.9869 -0.4619  2.2935
 3635TIP3    H232321   3.668   3.122  13.946  0.0093 -0.3974 -1.3326
 3636TIP3   OH232322   6.387   5.597  13.831 -0.1293  0.7567 -0.7002
 3636TIP3    H132323   6.345   5.562  13.910 -0.8004  1.8388 -0.5551
 3636TIP3    H232324   6.345   5.550  13.759  0.5058 -0.2557 -0.4291
 3637TIP3   OH232325   5.803   0.323   0.481  0.4620  0.4551  0.0404
 3637TIP3    H132326   5.752   0.244   0.495  2.6843 -1.5348 -2.0734
 3637TIP3    H232327   5.740   0.386   0.446 -1.1442 -0.7950  0.5761
 3638TIP3   OH232328   4.481   5.256   5.684  0.1263 -0.5283  0.2611
 3638TIP3    H132329   4.458   5.344   5.715 -1.6278 -0.6220 -0.6444
 3638TIP3    H232330   4.496   5.206   5.764 -1.4393 -0.0313  0.9124
 3639TIP3   OH232331   1.710   1.346   5.922 -0.6668  0.1173  0.1758
 3639TIP3    H132332   1.618   1.339   5.948 -0.6180  1.1690  0.6829
 3639TIP3    H232333   1.759   1.314   5.998 -0.6043 -2.0044 -0.6762
 3640TIP3   OH232334   1.027   5.893   4.797  0.3116  0.1299 -0.0744
 3640TIP3    H132335   1.013   5.963   4.732  0.5072  0.8408  0.6335
 3640TIP3    H232336   1.060   5.939   4.874 -1.8818 -0.4118  1.2611
 3641TIP3   OH232337   4.234   3.866  15.822 -0.2687  0.1941  0.3617
 3641TIP3    H132338   4.147   3.852  15.783 -1.8698  1.0073  3.3268
 3641TIP3    H232339   4.227   3.951  15.866  1.0309 -0.9858  3.0658
 3642TIP3   OH232340   4.890   3.824   5.081  0.3728 -0.5342  0.0776
 3642TIP3    H132341   4.821   3.761   5.102  1.2287 -1.2195  0.9243
 3642TIP3    H232342   4.882   3.893   5.147 -0.8796  0.5530 -1.1420
 3643TIP3   OH232343   6.324   4.459  14.371 -0.0927  0.3778  0.4613
 3643TIP3    H132344   6.407   4.504  14.384 -1.2629  3.0160 -0.6071
 3643TIP3    H232345   6.349   4.367  14.357  2.5740  0.9924  0.6568
 3644TIP3   OH232346   3.735   0.772  11.540  0.3966  0.2222  0.4734
 3644TIP3    H132347   3.692   0.804  11.460 -0.8901 -0.6230  0.7900
 3644TIP3    H232348   3.663   0.758  11.601  1.4340  1.6102  2.0868
 3645TIP3   OH232349   0.588   1.599   3.896  0.3201 -0.3287 -0.0560
 3645TIP3    H132350   0.562   1.677   3.848  0.1763 -0.9609 -1.0365
 3645TIP3    H232351   0.666   1.567   3.851 -0.5967 -1.6938 -0.7651
 3646TIP3   OH232352   5.949   4.980  14.304 -0.0350  0.0198 -0.2002
 3646TIP3    H132353   5.883   4.918  14.272 -1.7928  1.9430 -0.6108
 3646TIP3    H232354   5.898   5.059  14.323  1.9600  1.0409  1.1529
 3647TIP3   OH232355   6.422   2.645  17.154  0.2641 -0.0742 -0.1758
 3647TIP3    H132356   6.423   2.561  17.199  1.3543 -0.9820 -1.7922
 3647TIP3    H232357   6.332   2.676  17.164  0.4869 -0.0614  2.7768
 3648TIP3   OH232358   5.558   2.878   0.333  0.0593  0.4470 -0.2219
 3648TIP3    H132359   5.539   2.961   0.376 -0.7342  0.5585 -0.7764
 3648TIP3    H232360   5.473   2.835   0.325  0.5979 -0.9826  1.1783
 3649TIP3   OH232361   0.131   0.831  16.515 -0.3391  0.4780  0.3044
 3649TIP3    H132362   0.191   0.807  16.585  0.5979  0.0817 -0.6042
 3649TIP3    H232363   0.048   0.790  16.538  0.0669  0.0315  0.9786
 3650TIP3   OH232364   3.276   2.383   3.320 -0.1354  0.4593 -0.6059
 3650TIP3    H132365   3.332   2.341   3.386  0.9021  0.2397 -1.5938
 3650TIP3    H232366   3.294   2.477   3.330 -2.8103  0.8208  1.9256
 3651TIP3   OH232367   1.854   0.813   3.471  0.3912  0.4091 -0.2667
 3651TIP3    H132368   1.832   0.899   3.508  1.0630 -0.2394  1.8085
 3651TIP3    H232369   1.933   0.829   3.419  1.3022  0.8708  1.1787
 3652TIP3   OH232370   0.137   6.418   0.688 -0.3616 -0.1996 -0.0894
 3652TIP3    H132371   0.147   6.507   0.722 -1.3884 -0.5505  1.1896
 3652TIP3    H232372   0.225   6.380   0.693  0.6127  1.4247 -2.7823
 3653TIP3   OH232373   0.663   0.931  16.162  0.2782  0.1042 -0.6789
 3653TIP3    H132374   0.727   1.000  16.177  1.0329 -0.3732 -1.6149
 3653TIP3    H232375   0.591   0.952  16.222  1.4135  0.4912  0.5960
 3654TIP3   OH232376   2.820   4.915   2.056 -0.0977 -0.1891 -0.2567
 3654TIP3    H132377   2.764   4.987   2.028  1.0407  0.7017 -0.2912
 3654TIP3    H232378   2.759   4.847   2.084 -1.2123  1.3104  1.1580
 3655TIP3   OH232379   1.824   3.917  11.065 -0.0522 -0.3550 -0.6097
 3655TIP3    H132380   1.901   3.964  11.095 -0.1307  0.0798 -1.0669
 3655TIP3    H232381   1.763   3.921  11.138  0.5748 -1.2312 -0.0143
 3656TIP3   OH232382   2.845   4.353  16.817 -0.0305 -0.5864  0.4537
 3656TIP3    H132383   2.763   4.304  16.827  0.3206 -1.4503 -0.6800
 3656TIP3    H232384   2.880   4.324  16.733  0.5614  1.1092  0.0940
 3657TIP3   OH232385   1.769   2.685   0.840  0.2311 -0.3153  0.3423
 3657TIP3    H132386   1.739   2.619   0.902  2.0939 -0.7226  0.8825
 3657TIP3    H232387   1.784   2.763   0.894 -1.3029  0.3811 -0.1823
 3658TIP3   OH232388   6.115   5.201   3.575  0.2535 -0.4701 -0.0498
 3658TIP3    H132389   6.169   5.156   3.640  1.4355  1.0549  0.0604
 3658TIP3    H232390   6.118   5.293   3.599 -2.2623 -0.2780 -0.1826
 3659TIP3   OH232391   3.051   0.158   1.037 -0.3421 -0.2756  0.1962
 3659TIP3    H132392   2.966   0.117   1.027  0.1496 -1.5992  1.1823
 3659TIP3    H232393   3.039   0.219   1.110 -0.7462  0.4641 -0.4692
 3660TIP3   OH232394   2.011   5.501  14.532 -0.8534 -0.0919 -0.4722
 3660TIP3    H132395   2.034   5.492  14.439 -0.2630  0.8786 -0.4326
 3660TIP3    H232396   2.053   5.583  14.559 -0.0935 -0.9052  0.9322
 3661TIP3   OH232397   2.123   0.407   4.477 -0.4426 -0.2694 -0.3394
 3661TIP3    H132398   2.063   0.459   4.424 -3.2574 -0.9153  1.9622
 3661TIP3    H232399   2.124   0.321   4.435 -1.3052 -0.2933 -0.3290
 3662TIP3   OH232400   5.068   6.532   2.663 -0.5472  0.1931 -0.5828
 3662TIP3    H132401   5.069   6.566   2.573 -1.5983 -0.3108 -0.7990
 3662TIP3    H232402   5.159   6.512   2.682 -0.1803  1.1797 -1.1977
 3663TIP3   OH232403   1.256   1.037   1.177 -0.1597 -0.0352 -0.6767
 3663TIP3    H132404   1.333   1.084   1.208 -2.6725  3.6750  0.6243
 3663TIP3    H232405   1.234   0.977   1.248  0.3456  0.3838 -0.1602
 3664TIP3   OH232406   4.146   6.353   2.666  0.2472 -0.1360  0.3170
 3664TIP3    H132407   4.107   6.419   2.609  0.1818 -0.2262  0.2572
 3664TIP3    H232408   4.230   6.391   2.693  0.0578  0.1159  0.5560
 3665TIP3   OH232409   4.347   3.621   5.562  0.1069 -0.2163 -1.0235
 3665TIP3    H132410   4.272   3.596   5.509 -0.9139  0.3680  0.0966
 3665TIP3    H232411   4.383   3.698   5.518 -0.6953  0.2242 -0.9334
 3666TIP3   OH232412   4.532   2.883   4.536  0.2295 -0.0103 -0.5068
 3666TIP3    H132413   4.505   2.893   4.445 -0.9784  0.3963 -0.1231
 3666TIP3    H232414   4.625   2.908   4.537  0.2820 -0.1230 -1.6340
 3667TIP3   OH232415   2.432   1.479  13.412  0.4169 -0.3821 -0.0671
 3667TIP3    H132416   2.388   1.536  13.349  0.4663 -0.0876  0.1667
 3667TIP3    H232417   2.517   1.461  13.373  1.2791  1.4625  0.8377
 3668TIP3   OH232418   2.549   6.505  16.206  0.5072 -0.1333  0.1757
 3668TIP3    H132419   2.612   6.470  16.144 -1.4832 -1.4862 -1.1777
 3668TIP3    H232420   2.508   6.579  16.161  1.8860  1.5561  1.5168
 3669TIP3   OH232421   5.932   2.595  12.724  0.4279  0.5050  0.6993
 3669TIP3    H132422   5.874   2.659  12.682  0.5941 -0.1333 -0.5611
 3669TIP3    H232423   5.974   2.644  12.794 -2.2249  0.7730  2.2282
 3670TIP3   OH232424   3.633   4.136   3.873 -0.2897 -0.4237  0.1826
 3670TIP3    H132425   3.717   4.157   3.914 -0.4037 -2.1808  1.4189
 3670TIP3    H232426   3.567   4.178   3.929 -0.3091 -0.2749  0.0497
 3671TIP3   OH232427   1.437   3.592  17.110 -0.1005 -0.0188 -0.2998
 3671TIP3    H132428   1.411   3.590  17.018  1.3655  1.1883 -0.7915
 3671TIP3    H232429   1.496   3.667  17.116  0.7989 -0.8111  1.3757
 3672TIP3   OH232430   1.896   2.943  13.200  0.0408  0.2901 -0.1324
 3672TIP3    H132431   1.833   3.007  13.232  0.0859  0.4331 -0.3259
 3672TIP3    H232432   1.862   2.917  13.114  0.6934  1.0040 -0.6147
 3673TIP3   OH232433   1.848   4.187  11.499  0.2024 -0.6846  0.4460
 3673TIP3    H132434   1.782   4.247  11.534 -1.6316 -1.9723 -0.5794
 3673TIP3    H232435   1.930   4.236  11.503 -1.2442  2.1115 -0.8260
 3674TIP3   OH232436   4.438   5.990  11.101 -0.4232  0.6978 -0.5966
 3674TIP3    H132437   4.505   5.994  11.033  1.8961  2.3530  1.5563
 3674TIP3    H232438   4.444   5.901  11.135  0.0315  0.5510 -1.0449
 3675TIP3   OH232439   4.757   0.805   1.375  0.0241 -0.3541  0.5542
 3675TIP3    H132440   4.717   0.892   1.376  0.3229 -0.2171  0.9919
 3675TIP3    H232441   4.706   0.756   1.311  0.0978  0.2655  0.0010
 3676TIP3   OH232442   0.799   6.363   5.465 -0.2747  0.8192 -0.1081
 3676TIP3    H132443   0.839   6.431   5.411 -0.8645  1.4870  0.2759
 3676TIP3    H232444   0.746   6.411   5.528  0.1572  0.0355  0.8659
 3677TIP3   OH232445   0.062   1.872  11.066  0.0327 -0.6124 -0.0577
 3677TIP3    H132446   0.109   1.852  10.986  0.8382 -0.9115  0.4720
 3677TIP3    H232447   0.120   1.933  11.113 -1.2098  0.9670 -0.4845
 3678TIP3   OH232448   6.519   6.109   2.938  0.4812  0.3388  0.7175
 3678TIP3    H132449   6.549   6.110   3.029  0.3072  1.8897  0.7814
 3678TIP3    H232450   6.439   6.057   2.940  1.3827 -1.0892  1.1240
 3679TIP3   OH232451   1.161   3.402   5.010  0.8086 -0.5615  0.3414
 3679TIP3    H132452   1.124   3.434   5.092  0.6877 -1.3384  0.6021
 3679TIP3    H232453   1.253   3.383   5.030  0.9806 -0.0136  0.0852
 3680TIP3   OH232454   5.257   4.039  16.136  0.4735  0.0134 -0.0147
 3680TIP3    H132455   5.174   4.075  16.167  0.5087 -0.0790  0.1894
 3680TIP3    H232456   5.317   4.114  16.135  0.7252 -0.1535  1.0403
 3681TIP3   OH232457   4.094   0.039   2.656 -0.7074 -0.0185  0.1651
 3681TIP3    H132458   4.147  -0.037   2.633 -1.5874 -0.6996  0.3411
 3681TIP3    H232459   4.113   0.103   2.587 -1.5352 -1.1681 -1.1776
 3682TIP3   OH232460   3.160   3.568   5.807  0.1399  0.4276 -0.4272
 3682TIP3    H132461   3.238   3.512   5.802  0.5081  1.0614 -3.9400
 3682TIP3    H232462   3.088   3.510   5.783  0.2724  0.9113 -2.1506
 3683TIP3   OH232463   0.898   5.093  15.905 -1.0864  0.3012  0.4169
 3683TIP3    H132464   0.861   5.146  15.834  1.5725  0.6935 -0.8130
 3683TIP3    H232465   0.889   5.147  15.983 -2.0513  0.8193 -0.0351
 3684TIP3   OH232466   1.015   6.521   3.028  1.0185 -0.5342  0.2689
 3684TIP3    H132467   1.094   6.488   2.985  0.8214  0.4357 -0.9046
 3684TIP3    H232468   1.028   6.503   3.121  2.8061 -0.0175  0.1439
 3685TIP3   OH232469   0.867   4.162  11.047 -0.6770 -0.1682  0.1618
 3685TIP3    H132470   0.796   4.099  11.053 -0.4166 -0.9032 -2.6399
 3685TIP3    H232471   0.827   4.240  11.009 -0.0478 -0.6333 -1.5556
 3686TIP3   OH232472   0.594   6.000  13.879  0.1290  0.3358 -0.5195
 3686TIP3    H132473   0.684   5.976  13.856  0.2027  0.9825 -0.9002
 3686TIP3    H232474   0.554   5.917  13.906  0.9072  0.0818 -0.1131
 3687TIP3   OH232475   3.327   1.878   3.200  0.1986  0.1758  0.4664
 3687TIP3    H132476   3.292   1.861   3.113 -1.3250 -0.6050  1.1816
 3687TIP3    H232477   3.250   1.902   3.252  1.2170  1.5774  1.3803
 3688TIP3   OH232478   2.379   0.257  16.645 -0.6929 -0.2995  0.0693
 3688TIP3    H132479   2.361   0.274  16.738 -0.7160  0.1095 -0.0103
 3688TIP3    H232480   2.362   0.340  16.601  0.9781 -0.0032 -0.0727
 3689TIP3   OH232481   1.613   1.467  13.819 -0.9173  0.0274  0.1661
 3689TIP3    H132482   1.698   1.498  13.851 -1.7938  0.6161  2.0423
 3689TIP3    H232483   1.592   1.393  13.875 -1.2438 -0.7291 -0.9130
 3690TIP3   OH232484   1.938   3.962  15.490 -0.1186  0.2267  0.7309
 3690TIP3    H132485   1.872   3.995  15.551 -2.1404 -0.9972 -0.6780
 3690TIP3    H232486   1.933   4.021  15.415 -0.5062 -0.5894  0.1064
 3691TIP3   OH232487   3.374   1.653   0.898 -0.3910  0.2146  0.0052
 3691TIP3    H132488   3.344   1.607   0.820  2.3349  1.3529 -1.8690
 3691TIP3    H232489   3.296   1.659   0.954 -1.9860 -2.3161 -1.7252
 3692TIP3   OH232490   4.739   0.045  15.612 -0.3482  0.5363 -0.1792
 3692TIP3    H132491   4.733  -0.034  15.665  1.6555  1.3513  1.4134
 3692TIP3    H232492   4.829   0.045  15.580 -0.7281  1.4809 -1.3164
 3693TIP3   OH232493   1.732   3.894   0.115 -0.3319 -0.1457 -0.2988
 3693TIP3    H132494   1.657   3.929   0.163  1.1770  1.3707  1.0331
 3693TIP3    H232495   1.795   3.869   0.182  0.9084 -0.1451 -1.4209
 3694TIP3   OH232496   0.927   1.186  15.931 -0.0919  0.1271  0.4459
 3694TIP3    H132497   0.929   1.272  15.888  0.1422  0.0818  0.3634
 3694TIP3    H232498   0.989   1.133  15.881  0.1468  0.0602  0.8093
 3695TIP3   OH232499   3.996   1.003  17.370 -0.1694  0.0250  0.1915
 3695TIP3    H132500   3.999   0.982  17.463  2.3600 -0.1924  0.1205
 3695TIP3    H232501   3.962   0.924  17.328 -1.1022  0.0477  0.8785
 3696TIP3   OH232502   4.692   3.652  15.630  0.3166  0.1550 -0.4201
 3696TIP3    H132503   4.603   3.681  15.647  0.2736 -0.8171  1.2436
 3696TIP3    H232504   4.705   3.668  15.536 -1.7737 -0.1457 -0.8160
 3697TIP3   OH232505   6.557   3.670   4.823  0.2030 -0.4718 -0.3456
 3697TIP3    H132506   6.604   3.729   4.765  1.2537 -0.6182  0.3347
 3697TIP3    H232507   6.610   3.590   4.824  0.4905 -0.2765  1.2277
 3698TIP3   OH232508   3.716   5.181  14.548 -0.3758  0.7305  0.7506
 3698TIP3    H132509   3.786   5.242  14.570 -1.2312  1.9824  0.0734
 3698TIP3    H232510   3.640   5.236  14.530 -0.7297 -0.4032 -1.5973
 3699TIP3   OH232511   6.261   0.099  11.423  0.4495  0.1286 -0.8706
 3699TIP3    H132512   6.353   0.117  11.402  0.4000 -0.4369 -1.6005
 3699TIP3    H232513   6.242   0.018  11.377 -0.9759  1.2423 -2.3612
 3700TIP3   OH232514   2.343   0.724  11.753 -0.5386  0.5547  0.0372
 3700TIP3    H132515   2.303   0.641  11.779 -0.5092  0.7331  0.6675
 3700TIP3    H232516   2.435   0.702  11.740 -0.4909  0.5322  0.4075
 3701TIP3   OH232517   5.388   2.468  13.890 -0.5669 -0.3563 -0.3314
 3701TIP3    H132518   5.382   2.382  13.932  0.5023  1.1793  3.4040
 3701TIP3    H232519   5.301   2.507  13.904 -0.1992  0.1688  0.6275
 3702TIP3   OH232520   5.964   6.127   1.593 -0.1998 -0.0009  0.1044
 3702TIP3    H132521   5.958   6.045   1.544 -0.5089 -0.3466  0.7179
 3702TIP3    H232522   6.010   6.187   1.533  1.8306 -1.1743  0.4140
 3703TIP3   OH232523   0.092   0.278  17.257 -0.5363  0.0066 -0.0347
 3703TIP3    H132524   0.027   0.240  17.198  0.7379 -1.8462 -0.3410
 3703TIP3    H232525   0.122   0.205  17.311 -0.5541  1.3539  1.8857
 3704TIP3   OH232526   1.531   2.741   3.470 -0.5253  0.7955  0.7338
 3704TIP3    H132527   1.485   2.658   3.457  0.0553  0.3960  1.1255
 3704TIP3    H232528   1.624   2.718   3.457 -0.3219  1.2825  1.2865
 3705TIP3   OH232529   5.773   5.900   5.710  0.1062  0.1004  0.1295
 3705TIP3    H132530   5.868   5.898   5.707  0.1619 -0.1917  1.6088
 3705TIP3    H232531   5.750   5.989   5.735  0.0054  0.0346  0.2727
 3706TIP3   OH232532   4.945   0.923  14.248  0.0840  0.5192 -0.5859
 3706TIP3    H132533   4.865   0.891  14.206 -0.5711  2.0943 -0.6211
 3706TIP3    H232534   4.945   1.017  14.231  0.4213  1.0423  1.8426
 3707TIP3   OH232535   2.002   1.863   3.057  0.0515  0.1645  0.5510
 3707TIP3    H132536   1.943   1.790   3.079 -1.2404  0.9746 -0.1105
 3707TIP3    H232537   2.065   1.864   3.129 -0.0629 -1.4215  0.7251
 3708TIP3   OH232538   6.398   1.542  11.289 -0.1734 -1.0922  0.4856
 3708TIP3    H132539   6.339   1.617  11.296 -1.6236 -2.0159 -1.0292
 3708TIP3    H232540   6.424   1.523  11.379  0.0867  1.0943  0.9049
 3709TIP3   OH232541   3.328   4.734  17.467 -0.3599 -0.5627 -0.0393
 3709TIP3    H132542   3.308   4.720  17.374 -1.5275 -1.9093  0.3697
 3709TIP3    H232543   3.377   4.655  17.492  0.7192  0.1951  0.3071
 3710TIP3   OH232544   1.681   0.575   4.486  0.2628 -0.2034 -0.5795
 3710TIP3    H132545   1.722   0.498   4.447  0.7164 -0.1135 -0.2841
 3710TIP3    H232546   1.656   0.547   4.574 -0.5211 -0.3255 -0.8344
 3711TIP3   OH232547   3.500   6.587   1.999  0.5737 -0.5384 -0.1249
 3711TIP3    H132548   3.474   6.537   2.077 -1.4420 -0.1364 -0.4723
 3711TIP3    H232549   3.509   6.521   1.930  1.4406 -0.7931  0.2220
 3712TIP3   OH232550   0.806   3.796   3.792  0.3835 -0.2018 -0.0683
 3712TIP3    H132551   0.870   3.825   3.726 -0.1380  2.6617  0.5384
 3712TIP3    H232552   0.739   3.865   3.792 -0.7894 -1.2636  1.8826
 3713TIP3   OH232553   2.956   4.077   0.407  0.3649  0.4485  0.1089
 3713TIP3    H132554   2.993   4.094   0.494 -1.6186  2.6688  0.6541
 3713TIP3    H232555   2.878   4.024   0.424  0.8142 -0.4473 -0.5286
 3714TIP3   OH232556   5.940   0.545  13.567 -0.0591  0.0858  0.5494
 3714TIP3    H132557   5.857   0.581  13.534  0.9593  0.7330 -1.4884
 3714TIP3    H232558   5.961   0.599  13.643  0.2162  2.3341 -1.0187
 3715TIP3   OH232559   0.944   3.303  14.647  0.0181  0.0412 -0.2604
 3715TIP3    H132560   1.032   3.341  14.653  0.4668 -0.7227 -1.5051
 3715TIP3    H232561   0.937   3.273  14.556 -1.8863  0.9042 -0.4427
 3716TIP3   OH232562   1.450   5.499   0.888 -0.1244  0.2825 -0.0719
 3716TIP3    H132563   1.487   5.438   0.823 -0.2022 -0.6205  0.7066
 3716TIP3    H232564   1.506   5.576   0.882  0.8732 -0.4141 -0.0956
 3717TIP3   OH232565   3.228   6.006  16.824 -0.3769 -0.4950 -0.3164
 3717TIP3    H132566   3.165   5.997  16.896 -1.1227 -1.6174 -1.0763
 3717TIP3    H232567   3.177   5.984  16.746  0.6776 -0.2690 -1.0801
 3718TIP3   OH232568   2.943   6.634   0.664 -0.3510  0.0199  0.1245
 3718TIP3    H132569   3.022   6.646   0.612 -0.1409  0.3249  0.5063
 3718TIP3    H232570   2.943   6.541   0.687 -0.2853 -0.0522 -0.1665
 3719TIP3   OH232571   4.763   3.301   4.942  1.0434  0.0306  0.1079
 3719TIP3    H132572   4.789   3.325   5.031 -1.9074  0.3561  1.0120
 3719TIP3    H232573   4.719   3.380   4.908 -1.1975 -1.2384 -0.1485
 3720TIP3   OH232574   5.100   1.080  11.537  0.5307  0.4646  0.2126
 3720TIP3    H132575   5.064   1.068  11.625  1.8977 -0.1235  0.7121
 3720TIP3    H232576   5.026   1.114  11.486 -0.8642 -1.0926  1.0844
 3721TIP3   OH232577   3.009   1.710  11.237  0.0300 -0.0843 -0.1484
 3721TIP3    H132578   2.977   1.663  11.160  1.6239  0.6328 -1.3218
 3721TIP3    H232579   2.982   1.801  11.223  1.6728  0.3536 -0.7085
 3722TIP3   OH232580   2.021   5.360   2.615 -0.2996 -0.0804  0.0913
 3722TIP3    H132581   1.982   5.278   2.583 -0.8192  0.4620 -0.7048
 3722TIP3    H232582   2.050   5.340   2.704 -1.3080 -0.8521  0.2644
 3723TIP3   OH232583   5.341   4.987  13.607 -0.6670  0.7025  0.0218
 3723TIP3    H132584   5.405   4.924  13.641 -1.6287 -1.3640 -1.7658
 3723TIP3    H232585   5.345   5.061  13.668  0.9525 -0.8113  1.8759
 3724TIP3   OH232586   1.953   4.402   3.216  0.2921 -0.6189 -0.0085
 3724TIP3    H132587   1.920   4.425   3.303  1.7893 -0.7287  0.6230
 3724TIP3    H232588   1.894   4.334   3.185 -1.0248  0.3028  0.3668
 3725TIP3   OH232589   0.746   4.021   2.850 -0.3903  0.1843 -0.1496
 3725TIP3    H132590   0.769   3.934   2.884  1.4239  0.4421 -0.6131
 3725TIP3    H232591   0.731   4.073   2.929 -1.0073 -0.4084  0.1406
 3726TIP3   OH232592   0.978   1.254   3.154  0.3920  0.1500  0.2460
 3726TIP3    H132593   0.970   1.173   3.205 -2.3312  0.8240  1.0386
 3726TIP3    H232594   0.945   1.323   3.211  1.1494  1.6226 -0.9871
 3727TIP3   OH232595   3.874   2.485   2.358 -0.0812  0.7633 -0.4465
 3727TIP3    H132596   3.933   2.458   2.428 -0.0775 -0.5935 -0.9427
 3727TIP3    H232597   3.834   2.565   2.391  0.1518  0.3358  0.9794
 3728TIP3   OH232598   1.127   4.248  11.164 -0.4318  0.1333 -0.5107
 3728TIP3    H132599   1.206   4.193  11.171  0.2994  1.2007 -0.1881
 3728TIP3    H232600   1.060   4.188  11.130  0.2727 -1.0312  0.0596
 3729TIP3   OH232601   2.481   6.582  14.452 -0.0852  0.2132 -0.2087
 3729TIP3    H132602   2.443   6.520  14.390  1.6654 -0.3765 -0.7831
 3729TIP3    H232603   2.425   6.659  14.448 -1.2903 -0.6701 -0.8279
 3730TIP3   OH232604   4.414   2.040   6.550 -0.1477  0.0456 -0.1804
 3730TIP3    H132605   4.492   2.035   6.605  0.0191  1.7085 -0.1974
 3730TIP3    H232606   4.357   2.101   6.595 -0.7207  0.1457 -1.0133
 3731TIP3   OH232607   5.773   5.110  17.537 -0.7569  0.1260  0.0756
 3731TIP3    H132608   5.689   5.064  17.528 -0.8232  0.3459 -0.5054
 3731TIP3    H232609   5.769   5.150  17.624 -0.8281 -0.6945  0.4617
 3732TIP3   OH232610   5.186   2.879  13.952  0.3623  0.2100  0.0720
 3732TIP3    H132611   5.146   2.909  14.034 -0.4617 -0.7595  0.0416
 3732TIP3    H232612   5.157   2.942  13.887  0.0709  0.3353  0.3215
 3733TIP3   OH232613   0.163   0.951   5.940 -0.3189 -0.1785 -0.0363
 3733TIP3    H132614   0.199   1.032   5.904 -0.0543 -0.7433 -1.0797
 3733TIP3    H232615   0.136   0.901   5.863  0.0803 -1.3424  0.5642
 3734TIP3   OH232616   2.130   1.720  16.079  0.1701 -0.0432 -0.3494
 3734TIP3    H132617   2.093   1.808  16.088  2.1019  1.0645 -2.3491
 3734TIP3    H232618   2.055   1.665  16.057 -0.8992  1.3319 -0.3188
 3735TIP3   OH232619   0.956   3.530   2.137  0.5293  1.1360  0.6701
 3735TIP3    H132620   0.888   3.515   2.071  0.9257 -0.1841  0.5258
 3735TIP3    H232621   1.000   3.610   2.110 -0.2603  1.4023  0.1549
 3736TIP3   OH232622   5.785   6.239   0.903 -0.4944 -0.5775  0.0951
 3736TIP3    H132623   5.717   6.174   0.920 -0.1951 -0.4998  1.6958
 3736TIP3    H232624   5.852   6.191   0.854 -1.8012 -0.5669 -1.7979
 3737TIP3   OH232625   6.245   4.696   0.151 -0.4347  0.3988  0.4243
 3737TIP3    H132626   6.292   4.752   0.212 -0.2168  0.4493  0.2087
 3737TIP3    H232627   6.215   4.756   0.082  0.6390  0.0985 -0.3185
 3738TIP3   OH232628   3.973   6.245  13.527  0.5217  0.1147  0.1072
 3738TIP3    H132629   3.937   6.244  13.616 -0.9303 -1.4750 -0.4541
 3738TIP3    H232630   3.927   6.317  13.483  0.6246  0.3564  0.3902
 3739TIP3   OH232631   2.471   4.088  12.619  0.5965 -0.2142  0.1336
 3739TIP3    H132632   2.428   4.174  12.618  0.5619 -0.2335 -0.0248
 3739TIP3    H232633   2.413   4.032  12.670 -0.3918 -0.6723 -1.4335
 3740TIP3   OH232634   1.504   3.652   0.295 -0.2999  0.4232 -0.4610
 3740TIP3    H132635   1.579   3.638   0.238 -0.7960 -0.3753 -0.9374
 3740TIP3    H232636   1.498   3.574   0.349  0.5196  1.4184  1.1470
 3741TIP3   OH232637   0.352   4.880  13.694 -0.0820 -0.1605  0.7804
 3741TIP3    H132638   0.371   4.964  13.735  0.0037  0.2000 -0.0024
 3741TIP3    H232639   0.436   4.851  13.658 -0.6679  0.8156 -1.5243
 3742TIP3   OH232640   0.492   0.559  12.572  0.1016  0.2791 -0.2107
 3742TIP3    H132641   0.486   0.464  12.583 -0.3934 -0.1184 -3.0058
 3742TIP3    H232642   0.404   0.591  12.588  0.4988  0.4688  1.8134
 3743TIP3   OH232643   3.391   5.057  13.064  0.4517 -0.1954 -0.1062
 3743TIP3    H132644   3.350   5.141  13.040  1.8409 -0.0313 -2.0929
 3743TIP3    H232645   3.320   5.009  13.107 -1.3178  0.7959 -1.7191
 3744TIP3   OH232646   2.839   3.892  14.984  0.3443 -0.5915 -0.5446
 3744TIP3    H132647   2.832   3.985  14.964 -0.3472 -0.3623  0.6918
 3744TIP3    H232648   2.927   3.881  15.019 -0.6327  0.2876  2.5020
 3745TIP3   OH232649   1.409   2.434  11.485 -0.1751  0.5724 -0.0534
 3745TIP3    H132650   1.461   2.398  11.557 -0.4455 -0.4359 -0.3472
 3745TIP3    H232651   1.471   2.439  11.412 -0.0331  1.1213  0.0934
 3746TIP3   OH232652   3.866   0.515  15.414  0.3780  0.1213 -0.2474
 3746TIP3    H132653   3.843   0.481  15.501  0.4542 -0.0616 -0.2985
 3746TIP3    H232654   3.849   0.609  15.420 -1.0512 -0.1028 -0.5062
 3747TIP3   OH232655   1.621   5.303  14.305 -0.2092 -0.0263 -0.1405
 3747TIP3    H132656   1.528   5.282  14.309  0.1289 -1.5009  0.4489
 3747TIP3    H232657   1.662   5.225  14.268  0.9803 -0.0163  1.0839
 3748TIP3   OH232658   1.717   1.042  13.859  0.0972 -0.4858 -0.3797
 3748TIP3    H132659   1.652   1.030  13.790  1.0107 -1.0513 -1.1770
 3748TIP3    H232660   1.794   1.075  13.813  0.6539 -0.6682  0.4020
 3749TIP3   OH232661   4.838   5.687   6.087 -0.4868  0.3618  0.0410
 3749TIP3    H132662   4.748   5.718   6.086 -0.9123 -0.8169 -0.6363
 3749TIP3    H232663   4.874   5.714   6.002 -0.4323  0.2324  0.0218
 3750TIP3   OH232664   4.305   4.663   0.993 -0.4500 -0.0232  0.3128
 3750TIP3    H132665   4.333   4.589   0.939 -1.4993 -0.3698  0.2021
 3750TIP3    H232666   4.299   4.737   0.931  1.8085  0.5004  0.6593
 3751TIP3   OH232667   1.768   3.680   3.102  0.0529 -0.3586  0.6066
 3751TIP3    H132668   1.857   3.680   3.067  1.0216 -0.7326  2.8557
 3751TIP3    H232669   1.765   3.759   3.157 -1.5809  0.5340 -0.6962
 3752TIP3   OH232670   1.596   6.067   5.262  0.4467  0.5703  0.3785
 3752TIP3    H132671   1.641   5.986   5.237 -1.5069 -1.1470  2.0104
 3752TIP3    H232672   1.666   6.127   5.286  1.9739 -0.5947 -0.8977
 3753TIP3   OH232673   1.583   1.778   4.946 -0.4493  0.5774  0.0521
 3753TIP3    H132674   1.596   1.836   5.021 -2.1560  0.2401  0.6490
 3753TIP3    H232675   1.605   1.691   4.979  1.6981  0.7628 -0.7260
 3754TIP3   OH232676   6.573   1.228  12.272  0.1450  0.1285  0.1973
 3754TIP3    H132677   6.523   1.190  12.200  0.7688 -2.1053  0.8491
 3754TIP3    H232678   6.556   1.322  12.267 -1.7983 -0.2483 -1.3173
 3755TIP3   OH232679   3.050   5.772   2.816  0.2855 -0.0377 -0.1315
 3755TIP3    H132680   3.109   5.836   2.856  0.6677  0.5738 -1.5964
 3755TIP3    H232681   3.084   5.688   2.845  0.9579  0.3559  0.2768
 3756TIP3   OH232682   0.920   1.127  14.928 -0.0467  0.1751 -0.0698
 3756TIP3    H132683   0.976   1.103  14.854 -0.4328 -1.6455  0.1788
 3756TIP3    H232684   0.843   1.071  14.919 -0.6109  0.7353  1.0848
 3757TIP3   OH232685   2.580   6.371   1.937  0.2432 -0.1011 -0.0290
 3757TIP3    H132686   2.601   6.460   1.908  1.0562  0.1017  1.1419
 3757TIP3    H232687   2.528   6.383   2.016  1.7547 -0.6634  1.0751
 3758TIP3   OH232688   6.195   3.091   3.643 -0.3704  0.3285 -0.1168
 3758TIP3    H132689   6.174   3.082   3.736 -1.0711 -0.6701 -0.3503
 3758TIP3    H232690   6.131   3.154   3.611 -2.8383 -2.2421 -0.6932
 3759TIP3   OH232691   5.789   4.151  16.367 -0.2521 -0.2278 -0.0166
 3759TIP3    H132692   5.841   4.229  16.349  0.0216 -0.5674 -0.7448
 3759TIP3    H232693   5.699   4.184  16.373 -0.1013  0.1900  0.0175
 3760TIP3   OH232694   0.366   5.745  12.051  0.1474 -0.1230  0.2150
 3760TIP3    H132695   0.301   5.717  12.116  0.2907  1.0180  0.8759
 3760TIP3    H232696   0.449   5.744  12.099  0.2432  0.7967  0.0786
 3761TIP3   OH232697   4.106   5.639  14.329  0.3889 -0.0545  0.6428
 3761TIP3    H132698   4.134   5.672  14.244 -0.7137 -0.6307  0.0260
 3761TIP3    H232699   4.187   5.620  14.376  1.0421 -1.1628 -0.8534
 3762TIP3   OH232700   2.242   0.929  11.235 -0.5657  0.2595 -0.1532
 3762TIP3    H132701   2.195   0.846  11.226  0.0866 -0.3610  1.7375
 3762TIP3    H232702   2.330   0.910  11.202  0.1596 -0.4086  2.0200
 3763TIP3   OH232703   6.509   3.408   1.043 -0.6362  0.5049 -0.3828
 3763TIP3    H132704   6.545   3.495   1.060  0.7514  0.0992 -1.1590
 3763TIP3    H232705   6.529   3.358   1.122 -2.9444  1.2882  0.8134
 3764TIP3   OH232706   2.817   4.825  16.221 -0.1462 -0.7338  0.0550
 3764TIP3    H132707   2.744   4.886  16.213  0.7099  0.2044 -1.0129
 3764TIP3    H232708   2.848   4.834  16.311  0.6019  1.1938 -0.3534
 3765TIP3   OH232709   5.842   2.099  16.404 -0.4941 -0.5689  0.4493
 3765TIP3    H132710   5.778   2.054  16.349  0.4371  0.7739 -1.8404
 3765TIP3    H232711   5.892   2.028  16.444 -0.8323 -1.5996 -0.8836
 3766TIP3   OH232712   3.877   5.890   2.505  0.3366 -0.3631 -0.2369
 3766TIP3    H132713   3.826   5.906   2.426 -0.2900 -2.1390 -0.2419
 3766TIP3    H232714   3.939   5.963   2.510 -1.0757  0.9524 -1.1472
 3767TIP3   OH232715   1.466   2.790  13.172  0.3127 -0.3464  0.0189
 3767TIP3    H132716   1.527   2.846  13.220 -1.2950  1.5920 -0.0626
 3767TIP3    H232717   1.520   2.746  13.106  1.7335  0.6431  0.4742
 3768TIP3   OH232718   5.450   3.412  17.511 -0.0474  0.6980  0.0942
 3768TIP3    H132719   5.373   3.366  17.477  0.6504 -0.0734 -0.5107
 3768TIP3    H232720   5.517   3.398  17.443  1.7447 -1.8408  2.1648
 3769TIP3   OH232721   0.811   4.577  14.202 -0.2852  0.1508 -0.0856
 3769TIP3    H132722   0.778   4.559  14.114 -1.2916 -0.4467  0.3994
 3769TIP3    H232723   0.839   4.668  14.199  1.3955 -0.3541 -1.5295
 3770TIP3   OH232724   4.595   3.161   3.016 -0.4169  0.1391  0.5568
 3770TIP3    H132725   4.520   3.107   3.041  0.5337 -0.4760  2.2968
 3770TIP3    H232726   4.613   3.214   3.094 -0.0534  1.4730 -0.4103
 3771TIP3   OH232727   1.549   6.508  13.455  0.2838 -0.5241  0.1710
 3771TIP3    H132728   1.520   6.447  13.522  1.1502 -0.3993  0.6749
 3771TIP3    H232729   1.639   6.483  13.436  0.1530 -0.3607 -0.7273
 3772TIP3   OH232730   0.938   3.470  13.323 -0.1011  0.0743  0.0762
 3772TIP3    H132731   0.890   3.545  13.360 -0.1542 -0.8398  1.9577
 3772TIP3    H232732   1.001   3.509  13.264 -3.1617  1.3620 -2.6457
 3773TIP3   OH232733   2.769   5.884  16.717  0.4003  0.3204  0.2769
 3773TIP3    H132734   2.833   5.842  16.774  1.2772 -1.6550 -1.9649
 3773TIP3    H232735   2.796   5.975  16.713  1.4608  0.0785  1.4624
 3774TIP3   OH232736   3.863   5.363  17.276 -0.4214  0.2491  0.0267
 3774TIP3    H132737   3.879   5.269  17.273 -1.0473  0.1367  0.1174
 3774TIP3    H232738   3.774   5.372  17.309 -0.4474  0.8680 -0.1855
 3775TIP3   OH232739   4.016   1.735   0.100  0.2613 -0.0275  0.3521
 3775TIP3    H132740   4.029   1.640   0.093  1.8249  0.0599  1.6394
 3775TIP3    H232741   4.082   1.764   0.162 -0.9462  1.7601  0.8733
 3776TIP3   OH232742   4.751   1.922  14.216  0.2998 -0.3808  0.2643
 3776TIP3    H132743   4.832   1.928  14.266  0.5610 -1.2642 -0.0248
 3776TIP3    H232744   4.709   1.842  14.248 -0.2900 -0.1152  0.1685
 3777TIP3   OH232745   4.641   2.163  14.483  0.5342  0.8385 -0.2479
 3777TIP3    H132746   4.646   2.083  14.535 -0.1231  1.9551  1.5961
 3777TIP3    H232747   4.713   2.217  14.513 -0.3911  1.8705  0.1870
 3778TIP3   OH232748   2.731   0.680  16.389 -0.3462  0.1938 -0.0940
 3778TIP3    H132749   2.640   0.707  16.380 -0.9222 -1.3919  0.5400
 3778TIP3    H232750   2.731   0.588  16.362  1.1705  0.2942 -0.5465
 3779TIP3   OH232751   6.206   0.493  17.283 -0.0858  0.1603 -0.0731
 3779TIP3    H132752   6.237   0.581  17.259 -1.8956  0.7973 -0.2048
 3779TIP3    H232753   6.286   0.444  17.302  1.1428  1.1922 -2.1304
 3780TIP3   OH232754   2.794   5.330  12.373 -0.6258 -0.4228 -0.0791
 3780TIP3    H132755   2.885   5.301  12.361 -0.7042 -0.6368 -0.1523
 3780TIP3    H232756   2.794   5.421  12.345 -0.9029 -1.0180 -2.1318
 3781TIP3   OH232757   6.025   1.069   3.328  0.3441 -0.6569  0.4153
 3781TIP3    H132758   6.064   0.983   3.312 -0.0736 -0.9650  1.0127
 3781TIP3    H232759   6.056   1.094   3.415  0.9561  0.0818  0.0018
 3782TIP3   OH232760   1.880   2.136  12.015 -0.0048  0.1584  0.6216
 3782TIP3    H132761   1.914   2.191  11.944  1.7654 -1.6499 -0.0376
 3782TIP3    H232762   1.896   2.047  11.985 -2.5654 -0.7549  1.7534
 3783TIP3   OH232763   2.180   1.954   6.801  0.0695 -0.5721 -0.9109
 3783TIP3    H132764   2.114   1.977   6.736 -0.9515 -1.8104 -0.3759
 3783TIP3    H232765   2.166   1.860   6.816  0.7225 -0.4526  0.5850
 3784TIP3   OH232766   1.513   2.458  14.659  0.7023 -0.2342 -0.6577
 3784TIP3    H132767   1.604   2.430  14.655  0.7849 -0.3939  1.3497
 3784TIP3    H232768   1.513   2.534  14.718 -0.3428  0.2775 -1.2889
 3785TIP3   OH232769   5.948   2.267   4.683  0.5204  0.1083  0.2287
 3785TIP3    H132770   6.014   2.228   4.626  3.5407  0.3641  3.2226
 3785TIP3    H232771   5.972   2.360   4.686 -0.3868  0.3345  0.8719
 3786TIP3   OH232772   2.431   5.602  12.333 -0.3738 -0.3747 -0.3021
 3786TIP3    H132773   2.482   5.586  12.253  0.4465 -0.2733  0.1921
 3786TIP3    H232774   2.461   5.534  12.394  0.6688  0.9225  0.6752
 3787TIP3   OH232775   0.102   6.442  13.862 -0.1457 -0.1589 -0.0888
 3787TIP3    H132776   0.045   6.448  13.786 -0.7539 -0.3576  0.3472
 3787TIP3    H232777   0.102   6.349  13.885 -0.3635 -0.0287  0.4556
 3788TIP3   OH232778   5.241   5.988   5.280 -0.0956  0.0266 -0.1748
 3788TIP3    H132779   5.197   5.999   5.364  1.3138 -0.6388  0.6972
 3788TIP3    H232780   5.186   6.035   5.217  0.3844  3.2866  1.6098
 3789TIP3   OH232781   2.311   3.900   2.485  0.8510 -0.1307  0.0138
 3789TIP3    H132782   2.282   3.976   2.434  1.0502  1.8193  2.6065
 3789TIP3    H232783   2.249   3.831   2.462 -0.4081  1.3111 -1.1516
 3790TIP3   OH232784   3.950   0.790  10.724 -0.1956  0.3187 -0.1541
 3790TIP3    H132785   3.973   0.883  10.716  0.7626  0.1108  0.1034
 3790TIP3    H232786   4.027   0.749  10.763 -1.1209 -0.3487  1.0598
 3791TIP3   OH232787   6.191   3.259   2.079 -0.6883  0.8969 -0.0013
 3791TIP3    H132788   6.186   3.304   2.163 -1.4216  0.4311  0.2172
 3791TIP3    H232789   6.235   3.320   2.021 -1.4728  1.8086  0.3458
 3792TIP3   OH232790   1.645   3.096  11.384  0.0975 -0.2140 -0.0774
 3792TIP3    H132791   1.613   3.173  11.336 -0.3859 -0.2908  0.1195
 3792TIP3    H232792   1.708   3.055  11.324 -2.2134 -1.6709 -1.7012
 3793TIP3   OH232793   5.421   5.540  13.674  0.1735  0.4767 -0.1215
 3793TIP3    H132794   5.364   5.471  13.639  0.9451 -0.2776  0.0672
 3793TIP3    H232795   5.446   5.591  13.597  1.1770 -0.6576 -0.5681
 3794TIP3   OH232796   3.409   6.225   0.891 -0.1112 -0.1659 -0.2757
 3794TIP3    H132797   3.394   6.131   0.906 -0.2466 -0.0802  0.1185
 3794TIP3    H232798   3.401   6.265   0.977 -1.7563  0.4410 -0.6793
 3795TIP3   OH232799   5.856   1.493  13.691  0.4872 -0.0363 -0.1019
 3795TIP3    H132800   5.900   1.542  13.622 -1.5088  1.1010 -0.6568
 3795TIP3    H232801   5.845   1.556  13.762 -2.1552  0.4537 -0.8437
 3796TIP3   OH232802   3.270   3.476  12.811  0.2873 -0.0119 -0.3566
 3796TIP3    H132803   3.241   3.409  12.750  0.2730 -0.5705  0.2594
 3796TIP3    H232804   3.311   3.428  12.882  1.3875  0.6920 -0.4946
 3797TIP3   OH232805   4.319   3.492   5.828  0.5404  0.8624  0.2672
 3797TIP3    H132806   4.392   3.552   5.845 -0.7637  2.3818  0.8073
 3797TIP3    H232807   4.271   3.534   5.757  0.3701 -0.3163 -0.3375
 3798TIP3   OH232808   6.664   4.406   4.843 -0.0406 -0.1251  0.0334
 3798TIP3    H132809   6.597   4.413   4.775  0.2785  1.0036 -0.1847
 3798TIP3    H232810   6.641   4.327   4.891 -0.7412 -0.4965 -0.8832
 3799TIP3   OH232811   2.519   6.279  11.617 -1.3437  0.2488  0.1407
 3799TIP3    H132812   2.503   6.349  11.680 -0.3611  0.2636  0.3888
 3799TIP3    H232813   2.476   6.202  11.654 -0.3356  0.1294  1.1104
 3800TIP3   OH232814   5.473   3.044  17.550 -0.2323  0.7988 -0.4664
 3800TIP3    H132815   5.513   3.090  17.476  0.2282 -0.0165 -0.7305
 3800TIP3    H232816   5.428   3.113  17.599  0.6041  1.5621 -0.7493
 3801TIP3   OH232817   4.751   3.306   6.043 -0.2885  0.2000  0.1854
 3801TIP3    H132818   4.815   3.235   6.050 -0.2047 -0.0376 -2.2419
 3801TIP3    H232819   4.792   3.378   6.091  0.0608 -1.0674  1.8705
 3802TIP3   OH232820   5.152   1.342  16.323 -0.1289 -0.0979 -0.0496
 3802TIP3    H132821   5.061   1.346  16.293  0.2697 -1.6931 -1.6711
 3802TIP3    H232822   5.165   1.250  16.346  0.8271  0.2908  1.0773
 3803TIP3   OH232823   6.221   1.476   4.573  0.2666 -0.6764 -0.0040
 3803TIP3    H132824   6.256   1.517   4.494  0.0769 -3.1622 -1.4569
 3803TIP3    H232825   6.131   1.508   4.578  0.7424  0.7159  0.1298
 3804TIP3   OH232826   2.864   6.326   1.028  0.1508  0.0264  0.1019
 3804TIP3    H132827   2.835   6.238   1.052 -0.1959  0.6143  2.0512
 3804TIP3    H232828   2.954   6.331   1.060  0.3980  0.1888 -0.5921
 3805TIP3   OH232829   1.693   5.574   4.669 -0.6100 -0.3804 -0.0535
 3805TIP3    H132830   1.740   5.654   4.692  2.4065 -1.3901 -2.0983
 3805TIP3    H232831   1.633   5.601   4.599  0.6477  0.1072 -0.9879
 3806TIP3   OH232832   3.267   1.700   4.147  0.0739 -0.2665 -0.0907
 3806TIP3    H132833   3.199   1.765   4.159  0.5688  0.0526  1.0922
 3806TIP3    H232834   3.348   1.745   4.171  0.5648 -0.9852 -0.3441
 3807TIP3   OH232835   0.383   2.164   5.653  0.0827  0.2417  0.1465
 3807TIP3    H132836   0.320   2.125   5.592  0.4222  0.3112 -0.2515
 3807TIP3    H232837   0.461   2.109   5.646  0.3550  0.6408  0.0200
 3808TIP3   OH232838   3.705   3.866   1.055  0.1149  0.3130 -0.9046
 3808TIP3    H132839   3.668   3.906   1.134 -0.4564  0.5535 -1.2854
 3808TIP3    H232840   3.788   3.829   1.084 -0.2270  0.1264 -0.1206
 3809TIP3   OH232841   0.496   3.020   1.601 -0.3765 -0.1422 -0.3021
 3809TIP3    H132842   0.472   2.991   1.512 -1.8406 -2.7747  0.8342
 3809TIP3    H232843   0.577   2.972   1.620 -1.0358 -0.9986  0.4078
 3810TIP3   OH232844   5.758   2.455   0.219 -0.3561 -0.0397 -0.0543
 3810TIP3    H132845   5.846   2.418   0.230 -0.6533 -0.5773  0.5557
 3810TIP3    H232846   5.763   2.542   0.259  0.4541  0.7836 -1.8374
 3811TIP3   OH232847   2.871   2.915   0.473 -0.4198 -0.9773 -0.4016
 3811TIP3    H132848   2.947   2.862   0.496  0.0985 -0.5206 -1.0466
 3811TIP3    H232849   2.796   2.862   0.500  0.1111 -1.6159 -0.1580
 3812TIP3   OH232850   1.606   4.703  15.015 -0.0214  0.0055  0.0575
 3812TIP3    H132851   1.548   4.627  15.013 -0.7638  0.5589  0.1786
 3812TIP3    H232852   1.596   4.743  14.928  1.3278 -0.7211 -0.4691
 3813TIP3   OH232853   4.472   4.661  13.577 -0.2956 -0.1406  0.0840
 3813TIP3    H132854   4.464   4.617  13.493  0.6136  1.4606 -0.8970
 3813TIP3    H232855   4.423   4.606  13.638 -0.2664 -1.7946 -1.3034
 3814TIP3   OH232856   3.191   1.711   2.106  0.3402 -0.2817  0.0352
 3814TIP3    H132857   3.228   1.728   2.193  0.0634 -0.4236  0.1846
 3814TIP3    H232858   3.132   1.785   2.090  0.3136 -0.3067  0.0156
 3815TIP3   OH232859   2.749   1.980  16.781  0.4110  0.6333 -0.2093
 3815TIP3    H132860   2.730   1.901  16.730  2.1585  0.4713 -0.6508
 3815TIP3    H232861   2.675   2.039  16.762 -0.4475 -0.5392 -0.5921
 3816TIP3   OH232862   0.854   5.835  11.594  0.1276 -0.1961  0.3038
 3816TIP3    H132863   0.945   5.825  11.567  0.0613 -0.8125  0.3103
 3816TIP3    H232864   0.831   5.925  11.569  1.1030  0.3830  1.3887
 3817TIP3   OH232865   3.078   3.195  11.666  0.4527  0.0460 -0.4406
 3817TIP3    H132866   3.097   3.103  11.680 -1.0366 -0.0165  1.6363
 3817TIP3    H232867   3.122   3.240  11.738  0.0642  0.8077 -0.6664
 3818TIP3   OH232868   6.244   2.118   4.149  0.5043 -0.3059 -0.1559
 3818TIP3    H132869   6.268   2.145   4.060 -0.4399  0.0377 -0.3146
 3818TIP3    H232870   6.190   2.040   4.136  0.7205 -0.5071  0.1427
 3819TIP3   OH232871   0.464   5.718  17.161  0.0195 -0.0417 -0.6814
 3819TIP3    H132872   0.442   5.796  17.112  1.3018 -0.1554 -1.5030
 3819TIP3    H232873   0.494   5.655  17.095  0.9579 -0.5038  0.1474
 3820TIP3   OH232874   1.824   4.940   5.708  0.2231 -0.3281  0.3669
 3820TIP3    H132875   1.897   4.907   5.654 -0.3002 -1.8241  0.5336
 3820TIP3    H232876   1.756   4.874   5.698 -1.0015  0.8855  0.4943
 3821TIP3   OH232877   2.542   6.335   2.421 -0.2160  0.1004  0.8452
 3821TIP3    H132878   2.514   6.426   2.412 -0.5231 -0.0054  0.7029
 3821TIP3    H232879   2.564   6.326   2.514  1.0798  0.6713  0.6099
 3822TIP3   OH232880   1.117   5.283  14.078  0.0370 -0.7420 -0.2295
 3822TIP3    H132881   1.053   5.355  14.080  0.0094 -0.7026 -1.5162
 3822TIP3    H232882   1.122   5.258  13.985  1.5439 -1.0515 -0.0935
 3823TIP3   OH232883   4.825   2.275   1.720 -0.5386  0.3435 -0.0338
 3823TIP3    H132884   4.747   2.322   1.691 -0.4021  0.6935  0.1602
 3823TIP3    H232885   4.800   2.182   1.716 -1.7177  0.4947  2.0568
 3824TIP3   OH232886   3.842   3.266  11.705  0.1157  0.5271 -0.2444
 3824TIP3    H132887   3.778   3.226  11.764  0.7493 -0.1204  0.0202
 3824TIP3    H232888   3.913   3.294  11.762  0.6346  0.1025 -0.6670
 3825TIP3   OH232889   4.973   3.470   6.739 -0.1325  0.5003  0.1930
 3825TIP3    H132890   4.970   3.413   6.815 -1.1977 -0.7648 -0.7356
 3825TIP3    H232891   5.019   3.419   6.672  0.7803  1.5820 -0.0324
 3826TIP3   OH232892   0.071   5.490   4.852  0.0582 -0.1196 -0.4887
 3826TIP3    H132893   0.047   5.561   4.912  0.6112 -0.4941  0.1982
 3826TIP3    H232894   0.138   5.529   4.796 -1.3100  0.6006 -1.7028
 3827TIP3   OH232895   6.635   3.466  13.774  0.4142  0.1020 -0.0468
 3827TIP3    H132896   6.588   3.414  13.840 -2.5809  0.2287 -1.8594
 3827TIP3    H232897   6.687   3.402  13.726 -0.1806 -0.6087  0.2279
 3828TIP3   OH232898   0.281   4.362   1.313 -0.1531  0.0378 -0.3108
 3828TIP3    H132899   0.234   4.351   1.231 -1.0817 -2.4560  0.4591
 3828TIP3    H232900   0.213   4.360   1.380  0.5711  2.1606  0.5690
 3829TIP3   OH232901   3.724   0.328  14.930 -0.1552  0.1354 -0.5043
 3829TIP3    H132902   3.799   0.375  14.965  0.4875 -1.6539  0.6865
 3829TIP3    H232903   3.648   0.369  14.973  0.4045 -0.0916  0.7422
 3830TIP3   OH232904   4.222   3.659  16.887 -0.2032 -0.2153  0.8590
 3830TIP3    H132905   4.202   3.752  16.899 -0.1751 -0.2454  1.1386
 3830TIP3    H232906   4.222   3.646  16.792  2.1910  0.5969  0.6943
 3831TIP3   OH232907   5.545   1.881   0.797 -0.0837  0.2669  0.9776
 3831TIP3    H132908   5.471   1.936   0.823  0.1213  0.9768  0.0881
 3831TIP3    H232909   5.530   1.862   0.705 -0.4269 -1.6312  1.3911
 3832TIP3   OH232910   4.240   0.574  16.516  0.0362 -0.0836 -0.2496
 3832TIP3    H132911   4.177   0.569  16.444 -0.8585  1.4580  0.3941
 3832TIP3    H232912   4.261   0.667  16.523  1.1583 -0.3834  0.6063
 3833TIP3   OH232913   2.379   5.302   1.613 -0.4455  0.7990 -0.1377
 3833TIP3    H132914   2.337   5.328   1.531  0.3413  0.6503 -0.5930
 3833TIP3    H232915   2.385   5.382   1.663 -0.3509  1.0161 -0.4914
 3834TIP3   OH232916   0.831   5.222  13.678 -0.0039 -0.0122 -0.4814
 3834TIP3    H132917   0.840   5.191  13.588  1.0814 -0.0426 -0.3733
 3834TIP3    H232918   0.740   5.251  13.684  0.5104  2.2881 -2.3112
 3835TIP3   OH232919   3.439   2.036  13.287 -0.3663  0.2248  0.2361
 3835TIP3    H132920   3.407   2.101  13.224 -0.8679  0.2560  0.5185
 3835TIP3    H232921   3.385   1.959  13.272  0.4120 -0.2393 -0.2873
 3836TIP3   OH232922   4.720   1.805   1.547  0.4397 -0.5424  0.2978
 3836TIP3    H132923   4.734   1.713   1.569 -0.9207 -0.6402  0.8538
 3836TIP3    H232924   4.730   1.809   1.451  0.2545 -1.3148  0.2425
 3837TIP3   OH232925   1.920   3.367   5.959 -0.4719 -0.6429  0.6082
 3837TIP3    H132926   1.971   3.414   5.892 -1.9679  0.4184  0.1537
 3837TIP3    H232927   1.946   3.406   6.042  0.1423 -0.7771  0.4810
 3838TIP3   OH232928   2.066   4.566   4.690  0.1142  0.2043 -0.1504
 3838TIP3    H132929   2.081   4.486   4.640  2.3164  0.9375 -0.7285
 3838TIP3    H232930   2.084   4.541   4.781  2.3164  0.3791 -0.5080
 3839TIP3   OH232931   1.252   0.836   4.484  0.5811 -0.4286  0.3082
 3839TIP3    H132932   1.247   0.813   4.391  2.6493  0.3492 -0.0352
 3839TIP3    H232933   1.228   0.929   4.488  1.0932 -0.3002  0.4647
 3840TIP3   OH232934   0.333   0.653  13.060 -0.6449 -0.2665 -0.5155
 3840TIP3    H132935   0.387   0.726  13.088  1.1061 -1.9852  0.8992
 3840TIP3    H232936   0.244   0.677  13.087  0.2154  0.4297  2.0110
 3841TIP3   OH232937   0.890   4.218  14.890 -0.7475  0.0025 -0.6055
 3841TIP3    H132938   0.892   4.262  14.804 -2.1458  0.2251 -0.5494
 3841TIP3    H232939   0.924   4.284  14.951 -2.1541  0.7855 -0.6319
 3842TIP3   OH232940   0.943   0.843   1.299 -1.0416  0.0579  0.6646
 3842TIP3    H132941   1.024   0.860   1.346 -0.4687  0.2525 -0.3637
 3842TIP3    H232942   0.903   0.770   1.347  0.2609 -0.7512  0.5803
 3843TIP3   OH232943   2.695   6.360   4.775  0.4563 -0.6160  0.4934
 3843TIP3    H132944   2.629   6.401   4.831  1.5874  0.3653  1.1661
 3843TIP3    H232945   2.661   6.273   4.757 -0.5778 -0.4624  1.5785
 3844TIP3   OH232946   4.279   3.924   2.897  0.1060  0.3540 -0.1451
 3844TIP3    H132947   4.322   3.876   2.827 -1.9860 -0.8921 -0.6508
 3844TIP3    H232948   4.299   3.873   2.976 -0.1020  0.0264 -0.3044
 3845TIP3   OH232949   2.824   2.337   4.398 -0.4867 -0.1327 -0.2137
 3845TIP3    H132950   2.799   2.368   4.311  1.1376  0.6418 -0.4424
 3845TIP3    H232951   2.744   2.299   4.433 -1.6306  1.0847 -1.3641
 3846TIP3   OH232952   5.860   5.862  13.386  0.2495  0.2712  0.5246
 3846TIP3    H132953   5.836   5.951  13.360 -0.6581 -0.1761 -0.2031
 3846TIP3    H232954   5.921   5.875  13.459 -0.7923  1.4772  1.2283
 3847TIP3   OH232955   6.166   6.153  10.117 -0.4172  0.0392 -0.6110
 3847TIP3    H132956   6.143   6.086  10.181 -2.1744 -0.0260 -1.2357
 3847TIP3    H232957   6.260   6.141  10.102 -0.2055 -0.6971  1.0529
 3848TIP3   OH232958   1.247   3.878   1.270  0.1510 -0.0362  0.4493
 3848TIP3    H132959   1.314   3.868   1.202 -0.1422  0.8958  0.0136
 3848TIP3    H232960   1.239   3.791   1.308  0.4788 -0.5292 -0.5696
 3849TIP3   OH232961   2.963   0.824  15.771  0.6592 -0.1872  0.1252
 3849TIP3    H132962   2.911   0.746  15.790  2.2020 -1.2080  0.3630
 3849TIP3    H232963   3.014   0.802  15.693  1.8297  0.2036  0.7503
 3850TIP3   OH232964   4.023   0.829  15.306 -0.0059 -0.6598  0.7651
 3850TIP3    H132965   3.961   0.781  15.360 -2.4628  0.5802 -0.7758
 3850TIP3    H232966   4.011   0.921  15.332  0.4702 -0.3025 -0.2323
 3851TIP3   OH232967   5.302   2.829   5.389 -0.0161  0.0891 -0.4780
 3851TIP3    H132968   5.360   2.840   5.313  0.8739  0.6787  0.2545
 3851TIP3    H232969   5.240   2.901   5.383  1.1063  1.1518  0.2380
 3852TIP3   OH232970   5.293   2.556  11.266 -0.4822 -0.3627 -0.3621
 3852TIP3    H132971   5.245   2.619  11.211  0.0093  0.1749 -0.1813
 3852TIP3    H232972   5.359   2.519  11.207  0.0079  0.1721 -0.1572
 3853TIP3   OH232973   0.220   6.126  13.642  0.7430  0.3042 -0.0919
 3853TIP3    H132974   0.198   6.154  13.731  0.5749 -1.2823  0.3982
 3853TIP3    H232975   0.170   6.183  13.585  0.4992  1.0505  0.8498
 3854TIP3   OH232976   2.818   6.228   4.031  0.1339  0.2260  0.0410
 3854TIP3    H132977   2.794   6.164   3.964  0.1802  0.4702 -0.2128
 3854TIP3    H232978   2.777   6.310   4.002  0.4856  0.4259  0.0971
 3855TIP3   OH232979   0.533   2.993  11.272  0.8306 -0.2857  0.4178
 3855TIP3    H132980   0.615   3.010  11.225  0.2282  1.3161 -0.1366
 3855TIP3    H232981   0.518   3.073  11.321 -0.5958 -0.4085  0.2097
 3856TIP3   OH232982   2.684   5.031   1.727 -0.7504 -0.6467  0.4879
 3856TIP3    H132983   2.606   5.044   1.673  0.6006 -0.9161 -1.6949
 3856TIP3    H232984   2.710   4.940   1.710 -0.2914 -0.7553  1.6685
 3857TIP3   OH232985   3.496   3.320  14.923  1.1439  0.1761  0.0850
 3857TIP3    H132986   3.585   3.312  14.956  1.1020  1.0192  0.4047
 3857TIP3    H232987   3.488   3.247  14.860  1.2433 -1.4204  1.8233
 3858TIP3   OH232988   6.445   4.242  15.745  0.0593 -0.3783  0.2043
 3858TIP3    H132989   6.467   4.198  15.827  1.6419  0.9762  0.5590
 3858TIP3    H232990   6.437   4.334  15.770 -0.4728 -0.0877 -1.0012
 3859TIP3   OH232991   5.552   0.385  12.106 -0.2909  0.1709  0.5983
 3859TIP3    H132992   5.591   0.356  12.189 -0.7659 -3.8902 -0.3643
 3859TIP3    H232993   5.462   0.410  12.129 -0.3632 -0.7416  1.3824
 3860TIP3   OH232994   3.735   4.644  14.989 -1.2358  0.2786  1.0393
 3860TIP3    H132995   3.738   4.723  14.935 -1.3847 -1.0558 -1.0630
 3860TIP3    H232996   3.655   4.654  15.041 -1.2943  1.4697  0.7568
 3861TIP3   OH232997   2.434   6.422   1.103 -0.6612  0.2360 -0.3933
 3861TIP3    H132998   2.453   6.329   1.114 -0.0658  0.6135  2.7084
 3861TIP3    H232999   2.514   6.458   1.064 -0.5263 -0.3960 -0.7156
 3862TIP3   OH233000   2.222   6.695   4.879 -0.0059  0.4491 -0.3597
 3862TIP3    H133001   2.310   6.694   4.842 -0.5864 -0.3573 -1.7668
 3862TIP3    H233002   2.178   6.620   4.839 -1.2540  0.6820  0.5297
 3863TIP3   OH233003   2.801   0.134   1.125 -0.2523  0.0986 -0.4636
 3863TIP3    H133004   2.848   0.074   1.184  1.2003  1.4787 -0.1439
 3863TIP3    H233005   2.734   0.174   1.181 -2.1069 -2.0700 -0.9837
 3864TIP3   OH233006   0.162   2.742   0.776  0.6329  0.0658 -0.1376
 3864TIP3    H133007   0.156   2.806   0.705 -1.5049  0.1017  0.0110
 3864TIP3    H233008   0.072   2.711   0.788  0.4587  1.5563  3.9161
 3865TIP3   OH233009   4.993   5.057   0.538 -0.3742 -0.6539 -0.0717
 3865TIP3    H133010   4.903   5.030   0.558 -0.5497 -0.7564 -0.9664
 3865TIP3    H233011   5.037   4.976   0.512 -0.3910 -0.4020 -0.9255
 3866TIP3   OH233012   1.571   3.863   5.592  0.2268 -0.2301 -0.3879
 3866TIP3    H133013   1.489   3.848   5.640  0.7796  1.4562  1.1780
 3866TIP3    H233014   1.585   3.958   5.597  1.7745 -0.3657 -1.4902
 3867TIP3   OH233015   0.539   0.271  13.754 -0.2324  0.0836  0.0290
 3867TIP3    H133016   0.536   0.241  13.844  1.9909  0.1738  0.1889
 3867TIP3    H233017   0.613   0.225  13.715 -1.2699 -0.1127 -1.8296
 3868TIP3   OH233018   0.220   3.348  11.824  0.3822  0.2951  0.0431
 3868TIP3    H133019   0.166   3.347  11.903 -0.5416  0.3177 -0.5774
 3868TIP3    H233020   0.169   3.299  11.760  1.9381 -1.3609 -0.0272
 3869TIP3   OH233021   1.309   5.949  12.102  0.0731  0.1545  0.4893
 3869TIP3    H133022   1.399   5.937  12.132  0.1036 -2.6326 -0.4098
 3869TIP3    H233023   1.300   5.889  12.028 -3.1676 -1.5151  2.0149
 3870TIP3   OH233024   0.279   2.957  16.700 -0.2865  0.4389  0.1116
 3870TIP3    H133025   0.238   2.909  16.772  0.5729 -0.3501  0.0865
 3870TIP3    H233026   0.350   2.900  16.670 -0.4854  0.8493 -1.2154
 3871TIP3   OH233027   3.441   3.300  12.149  0.5711  0.4020 -0.4895
 3871TIP3    H133028   3.505   3.264  12.210  0.6218  2.8331  1.0287
 3871TIP3    H233029   3.373   3.233  12.143  2.1288 -1.2701 -0.3805
 3872TIP3   OH233030   1.604   5.885   0.891 -0.8373  0.0990 -0.1601
 3872TIP3    H133031   1.681   5.831   0.907 -0.9381 -0.4290 -1.3644
 3872TIP3    H233032   1.587   5.929   0.974  0.7464  0.2113  0.1193
 3873TIP3   OH233033   6.137   4.595  13.655  0.6898 -0.3788 -0.1319
 3873TIP3    H133034   6.059   4.542  13.674  1.0324 -0.7876  0.1515
 3873TIP3    H233035   6.169   4.562  13.571  1.0718 -0.8322  0.1842
 3874TIP3   OH233036   1.494   5.713  16.728  0.4434 -0.5388 -0.7183
 3874TIP3    H133037   1.552   5.652  16.774  0.1872 -0.7183 -0.6339
 3874TIP3    H233038   1.553   5.781  16.694  0.5561  0.0600  0.6090
 3875TIP3   OH233039   2.789   6.141   2.452 -0.4439 -0.5096 -0.4689
 3875TIP3    H133040   2.772   6.234   2.466  0.8017 -0.3346 -0.0478
 3875TIP3    H233041   2.807   6.106   2.539  0.9558 -0.7443 -0.8317
 3876TIP3   OH233042   2.411   6.053   1.118 -0.3064 -0.1009 -0.3073
 3876TIP3    H133043   2.352   6.037   1.192 -1.1886 -0.1438 -1.0021
 3876TIP3    H233044   2.358   6.102   1.056  1.1406  2.1439  0.0904
 3877TIP3   OH233045   0.440   5.254  12.016  0.0850 -0.4034 -0.0315
 3877TIP3    H133046   0.454   5.242  12.110  0.7302 -2.1790 -0.3049
 3877TIP3    H233047   0.476   5.340  11.996  2.1973 -1.0001  0.9443
 3878TIP3   OH233048   0.211   1.072   0.422 -0.4091 -0.3284 -0.2979
 3878TIP3    H133049   0.199   1.086   0.328  2.0207  0.8756 -0.4901
 3878TIP3    H233050   0.131   1.106   0.461 -0.8038  0.6044 -1.8346
 3879TIP3   OH233051   4.788   2.872   0.853 -0.3296  0.0776 -0.2562
 3879TIP3    H133052   4.878   2.899   0.834 -0.0201 -0.6443  0.1336
 3879TIP3    H233053   4.764   2.920   0.933 -0.4835  0.6681 -0.6522
 3880TIP3   OH233054   4.661   2.453  11.695 -0.0214  0.2149 -0.0732
 3880TIP3    H133055   4.574   2.452  11.657  0.9038  0.3626 -2.3687
 3880TIP3    H233056   4.710   2.386  11.648  1.2546  0.4813  0.7852
 3881TIP3   OH233057   0.500   1.110  14.409 -0.5206 -0.0613  0.0394
 3881TIP3    H133058   0.567   1.171  14.379 -0.7533  0.4118  0.4547
 3881TIP3    H233059   0.510   1.033  14.353 -0.1168  0.2958 -0.3879
 3882TIP3   OH233060   2.108   0.542   3.135  0.1725  0.1060  0.0120
 3882TIP3    H133061   2.043   0.610   3.120 -4.4116 -4.2100 -2.3569
 3882TIP3    H233062   2.079   0.497   3.215  1.4975 -0.7786  0.0353
 3883TIP3   OH233063   3.581   5.888  16.609 -0.2135 -0.4245 -0.6740
 3883TIP3    H133064   3.633   5.878  16.529  0.5191 -1.0560 -0.1348
 3883TIP3    H233065   3.611   5.817  16.666 -2.0098 -1.1076 -0.5167
 3884TIP3   OH233066   5.861   1.330   2.617 -0.0566 -0.1620  0.7154
 3884TIP3    H133067   5.793   1.355   2.679 -0.9068  0.4092 -0.4154
 3884TIP3    H233068   5.904   1.412   2.593  0.6041 -0.4408  0.9115
 3885TIP3   OH233069   4.052   1.000   2.077 -0.3194 -0.1779 -0.3857
 3885TIP3    H133070   4.121   1.065   2.066  0.6666 -1.3390 -1.4489
 3885TIP3    H233071   3.980   1.031   2.021  0.8597 -0.9001 -2.4224
 3886TIP3   OH233072   6.034   4.278   2.888 -0.2430  0.1432 -0.4274
 3886TIP3    H133073   6.085   4.200   2.912  0.6737  1.1621  1.1300
 3886TIP3    H233074   6.000   4.259   2.801 -0.4537 -2.1902  0.1074
 3887TIP3   OH233075   1.934   3.639  11.791  0.1543  0.3977 -0.4931
 3887TIP3    H133076   1.987   3.703  11.744  0.5338  0.4143 -0.0541
 3887TIP3    H233077   1.917   3.570  11.727 -0.2186  0.9143 -0.9548
 3888TIP3   OH233078   6.706   5.747   3.955  0.3444 -0.0536 -0.2133
 3888TIP3    H133079   6.767   5.819   3.967  0.2830 -0.3500  2.8939
 3888TIP3    H233080   6.744   5.694   3.885  2.0384  1.3394 -0.4133
 3889TIP3   OH233081   0.856   4.202  16.775  0.0135  0.2426 -0.1362
 3889TIP3    H133082   0.920   4.212  16.705 -1.1911 -0.4040 -1.3927
 3889TIP3    H233083   0.780   4.253  16.746 -0.4454  0.0977  0.7697
 3890TIP3   OH233084   5.315   3.623  12.790  0.0293 -0.2880  0.1713
 3890TIP3    H133085   5.320   3.696  12.728  0.8199  0.1845  0.7776
 3890TIP3    H233086   5.227   3.586  12.776 -0.9726  1.6949  0.8915
 3891TIP3   OH233087   0.526   4.098   1.060 -0.1156  0.0495 -0.6878
 3891TIP3    H133088   0.614   4.122   1.028  0.0487 -0.0847 -0.3448
 3891TIP3    H233089   0.543   4.036   1.131 -0.4817  0.1760 -0.4864
 3892TIP3   OH233090   4.671   2.727  13.870  0.1081  0.1930  0.3177
 3892TIP3    H133091   4.628   2.781  13.804 -1.1412 -1.5372 -0.3542
 3892TIP3    H233092   4.614   2.651  13.880  2.9736 -2.3040 -0.6997
 3893TIP3   OH233093   2.392   2.833  15.869  0.5846  0.3201 -0.3847
 3893TIP3    H133094   2.353   2.748  15.889 -0.8502  1.1114  0.2970
 3893TIP3    H233095   2.413   2.871  15.954 -0.9011  1.5946 -0.5489
 3894TIP3   OH233096   3.028   5.198  13.723 -0.2301  0.0963 -0.0011
 3894TIP3    H133097   3.053   5.241  13.641  0.6587 -0.0390  0.1790
 3894TIP3    H233098   3.072   5.249  13.790 -0.4321 -0.1734  0.3363
 3895TIP3   OH233099   6.475   1.554   3.671  0.4956 -0.0007 -0.3734
 3895TIP3    H133100   6.512   1.554   3.583  0.0018 -3.1332 -0.7253
 3895TIP3    H233101   6.390   1.596   3.661  1.2182  1.3821 -0.9450
 3896TIP3   OH233102   0.957   3.117   1.727 -0.3477  0.5309  0.1881
 3896TIP3    H133103   0.931   3.194   1.676 -0.7611 -1.4552 -2.8113
 3896TIP3    H233104   0.893   3.114   1.799 -1.1342  2.2250 -0.3927
 3897TIP3   OH233105   3.380   6.509  12.126  0.1264  0.6512  0.6775
 3897TIP3    H133106   3.440   6.552  12.066  0.4505  1.1692  1.3505
 3897TIP3    H233107   3.425   6.429  12.153 -1.8616 -2.0697 -3.2119
 3898TIP3   OH233108   4.106   0.126  11.906  0.1053 -0.3629  0.2724
 3898TIP3    H133109   4.137   0.055  11.849  0.8413 -1.0766  1.5259
 3898TIP3    H233110   4.061   0.081  11.978  1.9139  0.3071  1.9070
 3899TIP3   OH233111   1.564   1.512  16.631  0.3292 -0.1309 -0.4371
 3899TIP3    H133112   1.616   1.549  16.559  0.7478  0.4577  0.1571
 3899TIP3    H233113   1.630   1.484  16.695 -0.0237 -1.0080 -0.4460
 3900TIP3   OH233114   2.252   0.062   3.488 -0.2110 -0.5933 -0.2333
 3900TIP3    H133115   2.312   0.131   3.462  0.8137 -1.5365 -0.4614
 3900TIP3    H233116   2.203   0.098   3.561  0.5379  0.2527 -0.1360
 3901TIP3   OH233117   4.866   2.025  16.751  0.2388  0.5251 -0.0201
 3901TIP3    H133118   4.937   2.021  16.815  0.0500  3.1671  0.4615
 3901TIP3    H233119   4.905   2.063  16.672 -0.3647  0.9677 -0.1213
 3902TIP3   OH233120   4.721   2.946  13.478  0.3202 -0.0198  0.1380
 3902TIP3    H133121   4.738   2.853  13.495 -1.6163 -0.7577 -1.4593
 3902TIP3    H233122   4.742   2.956  13.385  2.0828  1.6079  0.6517
 3903TIP3   OH233123   5.110   1.903  11.911 -0.9993 -0.0757 -0.2190
 3903TIP3    H133124   5.061   1.965  11.966  0.8292 -0.3587  1.8295
 3903TIP3    H233125   5.150   1.958  11.843 -2.9252  0.3360 -1.0911
 3904TIP3   OH233126   4.093   0.745  17.512  0.3938 -0.3464 -0.9491
 3904TIP3    H133127   4.000   0.734  17.493  0.2147  1.0399 -1.0237
 3904TIP3    H233128   4.110   0.688  17.586 -1.0387  0.9320  0.4362
 3905TIP3   OH233129   2.560   4.433  14.457 -0.0120  0.2071  0.3643
 3905TIP3    H133130   2.646   4.399  14.482  0.4130  0.9645  0.0035
 3905TIP3    H233131   2.528   4.373  14.390 -0.4003 -0.8714  1.4895
 3906TIP3   OH233132   2.844   0.999   0.041  0.1272 -0.7467  0.1044
 3906TIP3    H133133   2.913   0.977   0.103  2.7878  1.7056 -1.7071
 3906TIP3    H233134   2.872   0.960  -0.042 -0.5604  0.3641 -0.6985
 3907TIP3   OH233135   0.058   5.998   5.279  0.3320 -0.0822  0.1210
 3907TIP3    H133136   0.075   5.986   5.185  2.2308 -1.4061  0.5563
 3907TIP3    H233137   0.032   5.911   5.310 -0.8372  0.4742  0.7324
 3908TIP3   OH233138   5.028   6.077   2.917  0.0807  0.2593  0.2384
 3908TIP3    H133139   4.972   6.013   2.960 -0.7065  0.9590  0.2784
 3908TIP3    H233140   4.984   6.097   2.834  0.9423 -0.1441 -0.3335
 3909TIP3   OH233141   5.377   2.597  11.785  0.2076 -0.3311  0.5002
 3909TIP3    H133142   5.467   2.603  11.753  0.3646 -2.3715  0.3906
 3909TIP3    H233143   5.323   2.602  11.706  0.3155 -0.4632  0.4172
 3910TIP3   OH233144   4.368   4.333   0.386 -0.2543 -0.0227  0.0835
 3910TIP3    H133145   4.325   4.409   0.424  0.1412  1.1980 -1.7730
 3910TIP3    H233146   4.344   4.336   0.293  3.0100  0.1972 -0.8697
 3911TIP3   OH233147   4.321   1.466  14.978 -0.4590  0.0197 -0.2220
 3911TIP3    H133148   4.279   1.393  15.024  0.0018 -1.1891 -1.6320
 3911TIP3    H233149   4.301   1.451  14.886 -1.5192  2.4791 -0.4572
 3912TIP3   OH233150   2.526   4.565   2.522 -0.1968  0.4818  0.3918
 3912TIP3    H133151   2.598   4.565   2.585  0.0537  2.6651  0.1783
 3912TIP3    H233152   2.449   4.592   2.572 -0.5349 -0.1934  0.2573
 3913TIP3   OH233153   1.377   1.956   4.177  0.0630  0.1940 -0.3762
 3913TIP3    H133154   1.386   1.980   4.084  0.0698 -1.3464 -0.7992
 3913TIP3    H233155   1.463   1.977   4.214 -0.7123  3.3142 -0.0452
 3914TIP3   OH233156   2.138   3.712  14.959  0.0683 -0.0125 -0.5933
 3914TIP3    H133157   2.046   3.691  14.971 -0.2983  2.0780  0.9554
 3914TIP3    H233158   2.185   3.639  15.000 -0.9330 -0.4272 -0.1526
 3915TIP3   OH233159   0.012   3.830  16.788 -0.5863  0.6844 -0.0193
 3915TIP3    H133160  -0.043   3.815  16.865 -1.4775  1.4383 -0.4794
 3915TIP3    H233161   0.101   3.812  16.818 -1.0871 -0.8297  0.6818
 3916TIP3   OH233162   3.596   4.553  16.743 -0.2753 -0.3574 -0.0844
 3916TIP3    H133163   3.595   4.598  16.658  0.7506  1.2408  0.6990
 3916TIP3    H233164   3.602   4.460  16.721 -1.1566 -0.0534 -1.7631
 3917TIP3   OH233165   5.970   2.884  14.632 -0.2938 -0.0452 -0.6876
 3917TIP3    H133166   5.932   2.892  14.545  0.5723  1.9418 -0.9557
 3917TIP3    H233167   6.063   2.864  14.616  0.0370  1.0675 -0.2899
 3918TIP3   OH233168   1.830   3.859  16.747 -0.1624 -0.5721  0.4867
 3918TIP3    H133169   1.810   3.950  16.723  2.5596 -0.1219 -0.4723
 3918TIP3    H233170   1.824   3.811  16.665  0.0919 -0.9039  0.6596
 3919TIP3   OH233171   4.424   6.146  13.475  0.1277 -0.0663 -0.1182
 3919TIP3    H133172   4.382   6.212  13.531 -2.5047  0.2836 -2.2822
 3919TIP3    H233173   4.400   6.171  13.386  1.6309 -2.2517 -1.2341
 3920TIP3   OH233174   1.474   1.417  15.561 -0.5569 -0.4510 -0.4265
 3920TIP3    H133175   1.411   1.411  15.488 -0.0635 -0.1850 -0.8809
 3920TIP3    H233176   1.421   1.403  15.639 -2.0119  3.6223 -0.4423
 3921TIP3   OH233177   4.454   1.841   0.378  0.3364 -0.0722  0.4566
 3921TIP3    H133178   4.473   1.852   0.285  0.0389 -0.7834  0.3058
 3921TIP3    H233179   4.424   1.927   0.407  1.3846  0.4245  0.1353
 3922TIP3   OH233180   6.150   1.339  17.459 -0.0157 -0.1719 -0.2747
 3922TIP3    H133181   6.084   1.321  17.392  0.7306  3.2787 -2.1318
 3922TIP3    H233182   6.106   1.396  17.522  0.7962  1.2295 -0.9276
 3923TIP3   OH233183   3.922   1.926   2.446 -0.6333 -0.3200  0.4631
 3923TIP3    H133184   3.862   1.908   2.374 -0.5933  1.2236  0.0056
 3923TIP3    H233185   3.947   1.840   2.479 -3.3477 -1.0485  0.8972
 3924TIP3   OH233186   6.226   4.692  15.796  0.0478 -0.0578  0.4173
 3924TIP3    H133187   6.223   4.713  15.889 -2.3996  0.3732  0.3081
 3924TIP3    H233188   6.194   4.771  15.752  0.4854 -0.5066 -0.7472
 3925TIP3   OH233189   0.779   3.194   0.104  0.2719 -0.0493  0.0355
 3925TIP3    H133190   0.797   3.103   0.079  0.6239  0.0394 -0.0481
 3925TIP3    H233191   0.811   3.201   0.194  0.1252 -0.0450  0.0865
 3926TIP3   OH233192   2.894   1.779   1.494  0.5896 -0.0106 -0.1709
 3926TIP3    H133193   2.864   1.688   1.493  0.3061  0.0856 -0.3210
 3926TIP3    H233194   2.939   1.791   1.411 -0.7712  0.4541 -0.8715
 3927TIP3   OH233195   4.468   2.409  12.985  0.4886 -0.5942 -0.3701
 3927TIP3    H133196   4.374   2.421  12.969  0.6011  4.0427  1.0733
 3927TIP3    H233197   4.474   2.321  13.022 -3.3482 -0.9080 -0.0166
 3928TIP3   OH233198   6.559   4.445  12.655  0.1957 -0.6074 -0.4078
 3928TIP3    H133199   6.566   4.373  12.717 -0.2598 -0.0136  0.3409
 3928TIP3    H233200   6.635   4.434  12.598  1.1936 -0.5719  0.8744
 3929TIP3   OH233201   4.166   4.302   1.014  0.4916  0.0128  0.0527
 3929TIP3    H133202   4.133   4.358   1.085 -0.5905  0.7568 -1.0020
 3929TIP3    H233203   4.143   4.213   1.042 -1.7397  0.4437 -0.2482
 3930TIP3   OH233204   2.521   1.528   1.188  0.2173 -0.0053 -0.3203
 3930TIP3    H133205   2.550   1.577   1.265  0.0010  2.3680 -1.6613
 3930TIP3    H233206   2.585   1.549   1.120  1.2462 -3.2130 -0.5192
 3931TIP3   OH233207   2.689   1.554   5.358  0.1757  0.3231 -0.2882
 3931TIP3    H133208   2.669   1.646   5.340  1.4000  1.0141  1.5786
 3931TIP3    H233209   2.650   1.537   5.444  0.0183 -0.9034 -0.5830
 3932TIP3   OH233210   1.625   6.454   2.424 -0.7358 -0.0725 -0.8717
 3932TIP3    H133211   1.708   6.466   2.378 -0.9159 -0.0622 -1.2059
 3932TIP3    H233212   1.558   6.470   2.356 -1.0271  1.1943 -0.3115
 3933TIP3   OH233213   6.311   1.779  15.085  0.2165 -0.0702  0.2414
 3933TIP3    H133214   6.403   1.759  15.068  0.5683 -0.5199  2.4208
 3933TIP3    H233215   6.297   1.864  15.043  1.7100  0.1754  0.1882
 3934TIP3   OH233216   6.344   5.885  16.834 -0.2006  0.3178  0.0704
 3934TIP3    H133217   6.427   5.902  16.789 -0.2270  1.0346  0.2814
 3934TIP3    H233218   6.321   5.796  16.808 -0.5146  0.9074 -1.8165
 3935TIP3   OH233219   3.294   3.473  11.019 -0.0493  0.0246 -0.0561
 3935TIP3    H133220   3.207   3.496  11.050  0.4989  0.0499  1.5866
 3935TIP3    H233221   3.287   3.382  10.991 -0.8367  0.3527 -0.9628
 3936TIP3   OH233222   3.160   3.979  11.695  0.0817  0.2697  0.0481
 3936TIP3    H133223   3.160   3.893  11.737 -1.9911  0.5491  0.7532
 3936TIP3    H233224   3.089   3.975  11.631  1.3213  0.8148 -1.4179
 3937TIP3   OH233225   0.118   4.321   4.289  0.0516 -0.1733 -0.3332
 3937TIP3    H133226   0.212   4.312   4.278  0.1954 -1.0455  1.3942
 3937TIP3    H233227   0.104   4.415   4.299  0.4480  0.1952 -2.5480
 3938TIP3   OH233228   4.569   1.013   6.113 -0.1539 -0.6435 -0.2939
 3938TIP3    H133229   4.486   1.040   6.153  0.1372  0.4691 -0.4051
 3938TIP3    H233230   4.574   1.063   6.032  1.4413  0.6939  0.5637
 3939TIP3   OH233231   5.108   1.576  16.652 -0.3694  0.1029 -0.0345
 3939TIP3    H133232   5.107   1.547  16.743 -0.0094 -0.3361 -0.1634
 3939TIP3    H233233   5.041   1.644  16.647 -0.0721  0.4628  0.6665
 3940TIP3   OH233234   5.183   1.940   3.822 -0.6164 -0.0452  0.1621
 3940TIP3    H133235   5.217   2.023   3.789  0.5956 -0.5633  0.0716
 3940TIP3    H233236   5.153   1.893   3.744 -0.8179  0.0868  0.1591
 3941TIP3   OH233237   1.451   3.001  16.517 -0.4312 -0.0944 -0.3695
 3941TIP3    H133238   1.385   3.065  16.542 -0.2007 -0.2197  0.5876
 3941TIP3    H233239   1.494   2.976  16.599  0.8405  0.0168 -0.9667
 3942TIP3   OH233240   5.513   5.026   1.222 -0.3537 -0.2158  0.3167
 3942TIP3    H133241   5.469   5.040   1.138 -0.3677 -3.1485 -0.2661
 3942TIP3    H233242   5.576   5.098   1.229 -1.2805  0.8491 -1.5298
 3943TIP3   OH233243   6.589   3.062   5.286  0.8554 -0.0825 -0.1226
 3943TIP3    H133244   6.630   3.012   5.215  0.0969 -0.2791 -0.4443
 3943TIP3    H233245   6.538   2.996   5.334 -0.6556  0.4612 -0.9255
 3944TIP3   OH233246   5.945   5.593   6.010  0.4914 -0.0658  0.0446
 3944TIP3    H133247   6.025   5.622   5.967  0.4175 -0.9143 -0.7087
 3944TIP3    H233248   5.919   5.514   5.962 -1.1264  0.5235 -0.1361
 3945TIP3   OH233249   3.671   4.801   0.787 -0.2236 -0.2931  0.1762
 3945TIP3    H133250   3.641   4.749   0.862  0.0790  0.3369  0.7425
 3945TIP3    H233251   3.742   4.749   0.749 -0.0307 -0.3803  0.6436
 3946TIP3   OH233252   0.284   2.090   4.088  0.2995  0.3112 -0.0492
 3946TIP3    H133253   0.341   2.081   4.164  0.1092  0.6326  0.1339
 3946TIP3    H233254   0.200   2.053   4.116  0.7479 -1.3342 -0.7208
 3947TIP3   OH233255   4.238   3.729   6.325 -0.1054 -0.0888 -0.2485
 3947TIP3    H133256   4.299   3.769   6.387 -0.3366  0.7050 -0.5241
 3947TIP3    H233257   4.290   3.662   6.280  0.5635  0.5666 -0.4703
 3948TIP3   OH233258   0.421   4.859   0.209 -0.9156 -0.2518 -0.4495
 3948TIP3    H133259   0.444   4.939   0.163  1.4092 -1.2786 -1.2267
 3948TIP3    H233260   0.367   4.889   0.282  2.2596  2.4808  1.0890
 3949TIP3   OH233261   5.575   3.967  12.457 -0.1539  0.0238  0.2280
 3949TIP3    H133262   5.560   3.944  12.549  0.1119 -0.8039  0.0768
 3949TIP3    H233263   5.493   4.007  12.428  0.2812  1.7174  1.2376
 3950TIP3   OH233264   5.733   3.647   2.949 -0.5817  0.5461 -0.0618
 3950TIP3    H133265   5.749   3.699   2.871  0.0524  0.7877  0.2267
 3950TIP3    H233266   5.750   3.707   3.022  2.1388 -0.5557  0.3289
 3951TIP3   OH233267   0.580   6.402   4.113  0.0596 -0.0004 -0.1820
 3951TIP3    H133268   0.557   6.310   4.100  1.7776 -0.7976  1.8607
 3951TIP3    H233269   0.510   6.435   4.170  0.0988 -0.4105  0.1162
 3952TIP3   OH233270   2.750   5.888  13.367 -0.3103  0.9464  0.1246
 3952TIP3    H133271   2.838   5.907  13.335 -0.5656 -1.4312 -2.2934
 3952TIP3    H233272   2.763   5.824  13.437 -0.0965  0.9495  0.0865
 3953TIP3   OH233273   3.818   1.341   4.293 -0.3773  0.3888  0.3630
 3953TIP3    H133274   3.861   1.279   4.351 -0.2091 -0.9009 -1.0637
 3953TIP3    H233275   3.762   1.287   4.237 -0.8135  1.6064 -0.4325
 3954TIP3   OH233276   0.828   1.614  11.118  0.8344 -0.5292 -0.2235
 3954TIP3    H133277   0.768   1.586  11.187 -0.4776  0.8953 -0.7423
 3954TIP3    H233278   0.809   1.707  11.105  0.9945 -0.7598 -2.5540
 3955TIP3   OH233279   3.755   1.562   5.446 -0.1801  0.2357 -0.0527
 3955TIP3    H133280   3.758   1.577   5.352  1.0628 -0.2938 -0.1223
 3955TIP3    H233281   3.828   1.614   5.481  2.1395 -2.8025  0.0739
 3956TIP3   OH233282   4.354   2.736  14.872 -0.0708 -0.5828 -0.5636
 3956TIP3    H133283   4.385   2.823  14.846  0.7872 -1.1379 -1.4498
 3956TIP3    H233284   4.397   2.720  14.956  2.0635 -1.2949 -1.7188
 3957TIP3   OH233285   4.823   2.879   2.805  0.2325 -0.2689  0.1934
 3957TIP3    H133286   4.839   2.966   2.841  0.7177  0.2318 -1.1645
 3957TIP3    H233287   4.904   2.857   2.759 -0.0222 -1.2815  0.2129
 3958TIP3   OH233288   5.369   2.829   4.432 -0.6100 -0.0678  0.1950
 3958TIP3    H133289   5.444   2.770   4.442  0.0028  0.5767 -0.4436
 3958TIP3    H233290   5.300   2.788   4.484 -0.1060 -1.1692  0.0460
 3959TIP3   OH233291   4.061   1.034   4.978  0.2313  0.1624 -0.1432
 3959TIP3    H133292   4.024   0.961   4.928 -4.4009  0.4455  2.2939
 3959TIP3    H233293   4.088   0.995   5.060  1.1298  0.7001 -0.1789
 3960TIP3   OH233294   5.366   6.211  13.460  0.2412  0.2606 -0.3913
 3960TIP3    H133295   5.336   6.187  13.548 -0.5924  0.6287 -0.5652
 3960TIP3    H233296   5.462   6.207  13.465  0.2033  0.3288  0.5444
 3961TIP3   OH233297   1.022   3.215  17.385 -0.0764 -1.0654 -0.4035
 3961TIP3    H133298   1.097   3.264  17.353 -1.1094 -0.0351 -1.3263
 3961TIP3    H233299   1.030   3.129  17.343  0.8524 -1.1564 -0.0669
 3962TIP3   OH233300   6.470   1.137  13.109  0.2589 -0.5615 -0.2226
 3962TIP3    H133301   6.401   1.115  13.047 -0.5067 -0.6067  0.6212
 3962TIP3    H233302   6.426   1.189  13.177  1.3398  0.6387 -0.3900
 3963TIP3   OH233303   3.453   4.348  13.213 -0.3116 -0.2321 -0.1392
 3963TIP3    H133304   3.418   4.259  13.222 -0.3822 -0.1354  0.6284
 3963TIP3    H233305   3.381   4.399  13.174 -0.5308 -0.3458  0.1164
 3964TIP3   OH233306   0.310   1.364  14.494  0.6267 -0.1366 -0.0069
 3964TIP3    H133307   0.263   1.283  14.475  0.2127  0.0020  0.4094
 3964TIP3    H233308   0.270   1.430  14.437 -0.5758  0.2662  1.2483
 3965TIP3   OH233309   3.316   2.319   0.264  0.2631  0.1769  0.1666
 3965TIP3    H133310   3.342   2.228   0.245  0.9509  0.5083 -0.5437
 3965TIP3    H233311   3.328   2.328   0.358  0.9028 -0.2544  0.1334
 3966TIP3   OH233312   4.559   2.892  15.732 -0.5793 -0.0719  0.1456
 3966TIP3    H133313   4.500   2.884  15.658 -0.3584 -0.3557 -0.0003
 3966TIP3    H233314   4.511   2.855  15.806 -0.3419 -0.8909 -0.1037
 3967TIP3   OH233315   2.612   0.939   1.580  0.1101 -0.4180  0.0446
 3967TIP3    H133316   2.592   0.929   1.674  0.9191  1.6115  0.4948
 3967TIP3    H233317   2.696   0.985   1.579 -0.6887  1.1250 -1.6301
 3968TIP3   OH233318   0.634   4.378  16.658  0.6646  0.1650  0.4504
 3968TIP3    H133319   0.595   4.378  16.571 -2.1737  1.4615  1.5753
 3968TIP3    H233320   0.686   4.458  16.662  1.0125 -0.0275 -0.1100
 3969TIP3   OH233321   6.419   6.701  12.965 -0.0904  0.0928 -0.2871
 3969TIP3    H133322   6.346   6.640  12.968  0.4708 -0.6665 -1.2918
 3969TIP3    H233323   6.476   6.674  13.038 -0.0448 -0.3353 -0.4772
 3970TIP3   OH233324   3.755   5.134   0.516  0.0865  0.5759 -0.1675
 3970TIP3    H133325   3.785   5.076   0.446  2.1495  1.4716 -0.1033
 3970TIP3    H233326   3.787   5.093   0.596 -1.7695 -0.1449  0.2574
 3971TIP3   OH233327   0.929   1.824  12.339 -0.4638  0.1543  0.0546
 3971TIP3    H133328   0.849   1.815  12.391 -1.1920 -0.6104 -1.1496
 3971TIP3    H233329   0.902   1.802  12.250  0.7767  1.3619 -0.6403
 3972TIP3   OH233330   3.992   5.017   4.676  0.3783 -0.2936  0.3494
 3972TIP3    H133331   3.980   4.936   4.627  0.3020  0.0716 -0.2395
 3972TIP3    H233332   4.074   5.054   4.643  0.0988  0.1775  0.1827
 3973TIP3   OH233333   3.449   1.807  14.799  0.5031 -0.0743  0.1377
 3973TIP3    H133334   3.438   1.807  14.704  1.1509 -1.6442  0.0357
 3973TIP3    H233335   3.399   1.883  14.829  0.7338  0.7605 -1.4966
 3974TIP3   OH233336   6.053   3.788  13.955  0.3659 -0.3010  0.1656
 3974TIP3    H133337   6.097   3.728  13.895 -1.0770 -1.3481  0.0858
 3974TIP3    H233338   6.032   3.864  13.902 -0.0233 -0.8071 -0.4288
 3975TIP3   OH233339   5.967   3.959  12.344 -0.3259 -0.2141  0.0766
 3975TIP3    H133340   6.061   3.970  12.351 -0.2990 -0.8250  0.7194
 3975TIP3    H233341   5.931   4.037  12.387 -0.1146 -0.2352  0.2953
 3976TIP3   OH233342   1.967   2.928   1.150  0.1074 -0.3655 -0.3610
 3976TIP3    H133343   1.925   2.979   1.081 -0.1826 -1.3625 -0.9302
 3976TIP3    H233344   1.994   2.847   1.108  1.7438 -0.1624  0.2159
 3977TIP3   OH233345   4.454   1.439  13.714 -1.0497 -0.3867  0.0720
 3977TIP3    H133346   4.534   1.472  13.672 -0.4896  0.3594  1.6399
 3977TIP3    H233347   4.410   1.518  13.747 -1.2694 -0.9588  1.1856
 3978TIP3   OH233348   3.871   6.427  15.492  0.2803  0.0401  0.5145
 3978TIP3    H133349   3.837   6.505  15.450  2.7356  1.5850  1.1888
 3978TIP3    H233350   3.881   6.363  15.420  1.1714  1.4427 -0.6660
 3979TIP3   OH233351   4.557   0.006  12.032  0.3122  0.5179 -0.5781
 3979TIP3    H133352   4.551  -0.079  11.989 -0.9188  1.2274 -1.9080
 3979TIP3    H233353   4.631   0.050  11.990  1.1955 -0.0092  0.3806
 3980TIP3   OH233354   4.702   0.758   4.181 -0.6002  0.3017 -0.5854
 3980TIP3    H133355   4.607   0.757   4.168 -0.6488 -0.7224 -0.2379
 3980TIP3    H233356   4.736   0.694   4.118 -0.3451 -0.7689  0.5886
 3981TIP3   OH233357   5.041   6.307   3.065 -0.0211  0.3729  0.5543
 3981TIP3    H133358   5.029   6.246   2.992 -0.2193  0.8011  0.2219
 3981TIP3    H233359   4.986   6.271   3.136 -0.3427  0.3058  0.2748
 3982TIP3   OH233360   2.244   4.133  12.000  0.0920  0.6029 -0.1792
 3982TIP3    H133361   2.319   4.172  11.956  0.1136  0.0327 -0.6644
 3982TIP3    H233362   2.281   4.088  12.076 -0.0789  2.6436  1.2060
 3983TIP3   OH233363   4.184   4.166  13.612  0.0946  0.2279 -0.4346
 3983TIP3    H133364   4.204   4.199  13.700  0.6250  1.1170 -0.8785
 3983TIP3    H233365   4.125   4.092  13.628  1.2921 -0.5230  0.7381
 3984TIP3   OH233366   0.249   3.880  15.952  0.6983  0.2933  0.2308
 3984TIP3    H133367   0.168   3.853  15.996 -0.8685  0.7579 -2.1408
 3984TIP3    H233368   0.265   3.968  15.983 -0.6234  0.7808 -0.3761
 3985TIP3   OH233369   5.856   3.697   6.885 -0.0396 -0.7562 -0.6938
 3985TIP3    H133370   5.896   3.766   6.938  0.8367 -0.5822 -1.5489
 3985TIP3    H233371   5.799   3.650   6.946 -0.0345  0.2210  0.0910
 3986TIP3   OH233372   2.738   4.953  14.973  0.1646  0.8581  0.6521
 3986TIP3    H133373   2.798   5.023  14.946 -1.0185  1.8354  0.4257
 3986TIP3    H233374   2.782   4.872  14.947  0.8060  1.6015 -0.7055
 3987TIP3   OH233375   6.608   2.856  16.273  0.1774  0.4908  0.1918
 3987TIP3    H133376   6.702   2.843  16.265 -0.0243 -1.0123  0.0625
 3987TIP3    H233377   6.596   2.950  16.258  1.6868  0.7922  0.6615
 3988TIP3   OH233378   6.475   0.375   1.726 -0.0276 -0.6029  0.1344
 3988TIP3    H133379   6.432   0.379   1.811 -1.3421  1.1679 -0.5384
 3988TIP3    H233380   6.563   0.344   1.745 -0.0966  0.2881  2.2188
 3989TIP3   OH233381   5.733   3.846  10.294  0.5268 -0.1718 -0.6658
 3989TIP3    H133382   5.806   3.847  10.356  0.1902 -0.9615 -0.2419
 3989TIP3    H233383   5.654   3.843  10.349  0.2102 -0.3947 -1.1210
 3990TIP3   OH233384   1.859   4.101  17.233 -0.0365 -0.0184 -0.0095
 3990TIP3    H133385   1.896   4.190  17.227  1.6364 -0.7357 -1.0224
 3990TIP3    H233386   1.886   4.070  17.319  1.2992 -0.3000 -0.4945
 3991TIP3   OH233387   0.937   2.645   5.442 -0.1075  0.5257  0.4166
 3991TIP3    H133388   0.889   2.712   5.394  0.4460  1.9507  1.7782
 3991TIP3    H233389   0.913   2.658   5.533  0.7046 -0.5646  0.8096
 3992TIP3   OH233390   6.431   5.934  10.849 -0.6920  0.4385  0.1447
 3992TIP3    H133391   6.464   5.853  10.889 -1.3164 -0.1392 -0.5036
 3992TIP3    H233392   6.337   5.932  10.863 -0.5767  1.8051  1.4683
 3993TIP3   OH233393   2.794   1.064   4.257  0.1259  0.5100  0.5367
 3993TIP3    H133394   2.699   1.069   4.248  0.1261  0.2064  0.3499
 3993TIP3    H233395   2.807   1.014   4.338  0.1227 -0.2035  0.1060
 3994TIP3   OH233396   5.878   1.321   3.699  0.4733  0.4861  0.3089
 3994TIP3    H133397   5.927   1.258   3.751 -0.3256 -1.6599 -1.3764
 3994TIP3    H233398   5.786   1.296   3.710  0.2210  0.5521 -1.3140
 3995TIP3   OH233399   5.306   2.696   3.023 -0.6637  0.0760 -0.2489
 3995TIP3    H133400   5.278   2.605   3.013 -1.1557 -0.0567  1.9598
 3995TIP3    H233401   5.378   2.693   3.086 -0.5658  1.2019 -0.2754
 3996TIP3   OH233402   4.252   5.733   0.149  0.2531  0.3152  0.0378
 3996TIP3    H133403   4.239   5.642   0.175 -1.0117 -0.4006 -2.7411
 3996TIP3    H233404   4.184   5.781   0.196 -0.8038 -0.6175 -0.4969
 3997TIP3   OH233405   0.952   0.220  15.693 -0.1780 -0.7862  0.1445
 3997TIP3    H133406   0.932   0.234  15.786 -1.8614 -1.0229 -0.1426
 3997TIP3    H233407   1.041   0.252  15.683 -0.5991  1.0179  1.4604
 3998TIP3   OH233408   0.518   6.628  12.417 -0.5129 -0.0269  0.1460
 3998TIP3    H133409   0.525   6.587  12.503  0.1256 -2.3922 -0.9457
 3998TIP3    H233410   0.603   6.672  12.405 -0.2646 -0.4350  0.3788
 3999TIP3   OH233411   1.859   1.581   3.181  0.4960 -0.1175  0.1008
 3999TIP3    H133412   1.810   1.504   3.210  1.0492 -0.0687  1.2332
 3999TIP3    H233413   1.858   1.640   3.257 -0.2752  1.1870 -0.8822
 4000TIP3   OH233414   1.004   4.574   3.262 -0.3956  0.3663 -0.4729
 4000TIP3    H133415   1.089   4.560   3.221  0.1034 -0.5264  0.8052
 4000TIP3    H233416   0.967   4.650   3.216  0.2452 -0.3926 -2.3409
 4001TIP3   OH233417   0.232   3.400  17.385  0.1044  0.2156 -0.0939
 4001TIP3    H133418   0.261   3.488  17.411 -0.2660  0.1573  0.5664
 4001TIP3    H233419   0.311   3.354  17.359  0.4849  0.3473  0.7903
 4002TIP3   OH233420   5.796   4.693  15.682  0.3998  0.5339  0.3205
 4002TIP3    H133421   5.801   4.597  15.677 -1.6084  0.3610  0.5094
 4002TIP3    H233422   5.804   4.713  15.775  0.8350  0.5563  0.2800
 4003TIP3   OH233423   3.015   4.071   1.088  0.0864 -0.1537 -0.9552
 4003TIP3    H133424   2.972   4.128   1.023  0.1095  1.9344  0.7682
 4003TIP3    H233425   3.025   3.987   1.042 -0.0035  1.1673 -3.6068
 4004TIP3   OH233426   4.961   3.242  11.709  0.4930 -0.0532 -0.1061
 4004TIP3    H133427   4.877   3.281  11.686  0.0786 -0.5596  0.5105
 4004TIP3    H233428   5.023   3.315  11.705 -0.0960  0.4735  0.1070
 4005TIP3   OH233429   0.113   6.030   4.974  0.4106 -0.2786 -0.6353
 4005TIP3    H133430   0.198   6.067   4.953  0.2500  0.0737 -0.6783
 4005TIP3    H233431   0.061   6.042   4.894 -0.1424  0.8792 -0.1182
 4006TIP3   OH233432   5.090   0.573   5.559 -0.5626  0.3416 -0.2098
 4006TIP3    H133433   5.060   0.482   5.557  2.5176 -0.8093  0.8500
 4006TIP3    H233434   5.080   0.600   5.650 -1.8513  1.2946 -0.5927
 4007TIP3   OH233435   1.541   6.347  12.526  0.0970  0.1612 -0.1622
 4007TIP3    H133436   1.605   6.382  12.465  1.0878  0.6473  1.1031
 4007TIP3    H233437   1.570   6.257  12.543 -1.5603 -0.8561 -2.2090
 4008TIP3   OH233438   1.238   4.722  15.587 -0.5208  0.2006  0.5098
 4008TIP3    H133439   1.223   4.815  15.574 -0.9348  0.0272 -0.3532
 4008TIP3    H233440   1.163   4.693  15.638 -1.3189  0.0242 -0.7182
 4009TIP3   OH233441   2.603   4.177  12.134  0.4952 -0.3067 -0.5660
 4009TIP3    H133442   2.537   4.163  12.201  0.8327  0.4432 -0.0633
 4009TIP3    H233443   2.554   4.179  12.052  0.0685 -1.1277 -0.3472
 4010TIP3   OH233444   5.004   3.933   4.223  0.1086 -0.0840  0.0392
 4010TIP3    H133445   5.008   3.940   4.319 -1.4498 -0.9576  0.2029
 4010TIP3    H233446   5.096   3.927   4.196  0.6083  0.7808  1.4183
 4011TIP3   OH233447   3.480   0.777  16.692  0.5386  0.2739 -0.0632
 4011TIP3    H133448   3.574   0.782  16.712  0.9747  0.5004 -1.9546
 4011TIP3    H233449   3.452   0.868  16.689  0.0423  0.1883  1.2769
 4012TIP3   OH233450   1.856   3.829  15.913  0.4013 -0.3126  0.0272
 4012TIP3    H133451   1.866   3.795  16.003  2.3620 -0.4681 -0.1975
 4012TIP3    H233452   1.774   3.877  15.915  0.0407 -0.8986  1.7233
 4013TIP3   OH233453   4.406   3.420  16.908 -0.2755  0.0846  0.2733
 4013TIP3    H133454   4.494   3.455  16.893 -0.4727 -0.4277 -2.6551
 4013TIP3    H233455   4.348   3.475  16.854 -1.6949  0.0171  1.6477
 4014TIP3   OH233456   5.177   3.264   2.297  0.2394 -0.1963  0.4301
 4014TIP3    H133457   5.212   3.332   2.239  1.0197  0.2285  1.3530
 4014TIP3    H233458   5.084   3.286   2.307  0.5132  0.8578  0.8473
 4015TIP3   OH233459   5.368   5.684   2.761 -0.0417 -0.4862  0.4274
 4015TIP3    H133460   5.346   5.705   2.851 -0.6568 -0.0882  0.1911
 4015TIP3    H233461   5.317   5.746   2.709  1.3966  0.2651 -0.1516
 4016TIP3   OH233462   3.537   5.404  11.331 -0.4838 -0.5183  0.0308
 4016TIP3    H133463   3.532   5.378  11.423  0.5564  0.3716  0.3552
 4016TIP3    H233464   3.524   5.499  11.332  0.7591 -0.3210 -0.5914
 4017TIP3   OH233465   6.366   0.871  14.982 -0.0124 -0.6156 -0.5726
 4017TIP3    H133466   6.455   0.839  14.998 -0.2001 -0.5901  0.6754
 4017TIP3    H233467   6.309   0.800  15.013 -0.4210  0.0241  0.1855
 4018TIP3   OH233468   4.429   5.343  15.356  0.3117  0.9827  0.7393
 4018TIP3    H133469   4.365   5.412  15.340 -1.4325 -0.8941 -0.9090
 4018TIP3    H233470   4.376   5.264  15.369  2.1904 -1.1061 -2.7930
 4019TIP3   OH233471   0.880   5.185  16.158  0.2522 -0.1907  0.4815
 4019TIP3    H133472   0.973   5.164  16.161  0.9366  2.4958  0.9573
 4019TIP3    H233473   0.857   5.204  16.249 -0.5347 -0.0281  0.2529
 4020TIP3   OH233474   0.700   5.412  15.762 -0.5746  0.4128 -0.5107
 4020TIP3    H133475   0.727   5.431  15.852  0.2532 -0.0162 -0.6550
 4020TIP3    H233476   0.610   5.381  15.770 -1.0780  1.9173 -0.0073
 4021TIP3   OH233477   5.619   0.457  13.945  0.1786 -0.0792 -0.7439
 4021TIP3    H133478   5.665   0.527  13.991 -0.1572 -1.0490  1.1805
 4021TIP3    H233479   5.531   0.492  13.930  0.6698  0.7286 -1.8894
 4022TIP3   OH233480   3.563   1.757   6.626  0.5217 -0.7587 -0.1881
 4022TIP3    H133481   3.502   1.814   6.580  0.5194 -0.2557  0.4185
 4022TIP3    H233482   3.512   1.679   6.647 -0.0492 -0.1742  0.6733
 4023TIP3   OH233483   5.047   0.202  15.485  0.4366  0.3278  0.5486
 4023TIP3    H133484   4.957   0.223  15.462  0.5746 -0.0681 -0.3881
 4023TIP3    H233485   5.093   0.286  15.481  0.4581  0.2725 -0.6738
 4024TIP3   OH233486   4.236   5.142   0.146  0.3218  0.1453  0.8577
 4024TIP3    H133487   4.187   5.127   0.227 -0.1221  0.5094  0.6605
 4024TIP3    H233488   4.180   5.198   0.094  0.8146  0.3051  0.4895
 4025TIP3   OH233489   5.695   0.009  11.178 -0.2273  0.0094  0.3483
 4025TIP3    H133490   5.734  -0.056  11.121  0.7663  0.0861  0.9267
 4025TIP3    H233491   5.705  -0.026  11.267 -1.8226 -0.1479  0.4896
 4026TIP3   OH233492   1.668   1.565  15.190 -0.6315 -0.2434 -0.6520
 4026TIP3    H133493   1.632   1.477  15.180 -2.8817  0.3677  1.1615
 4026TIP3    H233494   1.606   1.622  15.146 -1.0502  0.7004  1.0742
 4027TIP3   OH233495   2.519   1.586  12.627  0.7764 -0.0810  0.1874
 4027TIP3    H133496   2.480   1.511  12.582 -0.7180  0.5165  0.3950
 4027TIP3    H233497   2.599   1.605  12.580  0.3123 -0.7793 -0.9085
 4028TIP3   OH233498   2.744   2.506  17.562  0.2723 -0.7745  0.0977
 4028TIP3    H133499   2.679   2.572  17.586  2.7803  1.5017  1.3096
 4028TIP3    H233500   2.725   2.431  17.617 -1.9093 -0.6368 -0.3878
 4029TIP3   OH233501   0.952   2.571  14.617  0.7356  0.1846 -0.3877
 4029TIP3    H133502   0.896   2.493  14.607 -0.1530  0.8610 -0.8439
 4029TIP3    H233503   0.939   2.620  14.537  0.5369  1.2753  0.2968
 4030TIP3   OH233504   5.666   6.100   3.234  0.3683 -0.2276  0.3567
 4030TIP3    H133505   5.572   6.092   3.246  0.3313 -2.2596 -0.6705
 4030TIP3    H233506   5.700   6.012   3.254  1.5835 -0.5268 -2.5052
 4031TIP3   OH233507   2.498   0.871  11.119  0.0651  0.2414  0.1376
 4031TIP3    H133508   2.444   0.856  11.041  0.4751 -0.7422  0.0282
 4031TIP3    H233509   2.588   0.859  11.088  0.1765 -1.4622  1.0088
 4032TIP3   OH233510   6.206   2.611   1.334 -0.0060 -0.8594 -0.4372
 4032TIP3    H133511   6.204   2.658   1.417 -1.5444 -0.0195 -0.9122
 4032TIP3    H233512   6.184   2.521   1.357  1.0951 -0.9660  0.2448
 4033TIP3   OH233513   6.615   0.478  13.270 -0.5676  0.1781  0.2357
 4033TIP3    H133514   6.525   0.499  13.293  0.1296  1.4841  1.9672
 4033TIP3    H233515   6.629   0.390  13.304 -1.2503 -0.1114 -0.2290
 4034TIP3   OH233516   2.758   5.605   5.362 -0.3453  0.2832  0.1265
 4034TIP3    H133517   2.818   5.586   5.290 -0.3679 -0.4808  0.2997
 4034TIP3    H233518   2.703   5.527   5.369  0.7432 -0.3834  2.0232
 4035TIP3   OH233519   5.070   2.261  14.416  0.4602  0.4360 -0.3160
 4035TIP3    H133520   4.996   2.256  14.356 -0.7643  1.1153  1.0681
 4035TIP3    H233521   5.050   2.336  14.472  0.2070 -1.6561  2.6221
 4036TIP3   OH233522   4.564   2.544  17.052  0.0409  0.6254 -0.4132
 4036TIP3    H133523   4.625   2.528  17.124 -1.9489  0.2091  1.2924
 4036TIP3    H233524   4.556   2.460  17.008 -1.8276 -0.3148  1.5271
 4037TIP3   OH233525   5.966   3.138  17.138 -0.3350 -0.1403 -0.0265
 4037TIP3    H133526   6.024   3.062  17.139 -1.0175 -0.6754  0.5452
 4037TIP3    H233527   6.005   3.198  17.075  0.8780 -0.4417  0.4158
 4038TIP3   OH233528   4.597   4.029  17.307 -0.1057 -0.6100  0.4523
 4038TIP3    H133529   4.653   4.091  17.260 -2.2388  0.8546 -0.2684
 4038TIP3    H233530   4.618   3.944  17.269  3.4363 -0.6259  1.9610
 4039TIP3   OH233531   1.638   1.730   4.444  0.0158 -0.2225 -0.1628
 4039TIP3    H133532   1.551   1.705   4.477 -0.2572  1.1239  0.2011
 4039TIP3    H233533   1.631   1.825   4.429  1.7128  0.0764  0.7716
 4040TIP3   OH233534   6.689   3.993  15.135  0.0747  0.0991 -0.9205
 4040TIP3    H133535   6.616   3.946  15.176  0.1711 -0.8311 -1.7694
 4040TIP3    H233536   6.693   4.076  15.181 -1.7945  0.3329 -1.1152
 4041TIP3   OH233537   2.701   1.384   2.370 -0.3480  0.1073 -0.3906
 4041TIP3    H133538   2.716   1.430   2.453  0.7745 -0.7746 -0.0810
 4041TIP3    H233539   2.651   1.307   2.394 -0.2294 -0.0259 -0.5709
 4042TIP3   OH233540   0.554   1.599   1.514  0.0355  0.6634  0.7110
 4042TIP3    H133541   0.475   1.559   1.478  2.0300 -1.9590 -1.1942
 4042TIP3    H233542   0.532   1.619   1.605 -2.6531 -0.3160  0.3672
 4043TIP3   OH233543   6.298   1.023  15.525  0.1611 -0.0169  0.1210
 4043TIP3    H133544   6.225   1.003  15.467  0.8707 -2.6178 -0.0086
 4043TIP3    H233545   6.369   0.967  15.494  1.8996  1.6808  0.8696
 4044TIP3   OH233546   4.477   4.662  15.995 -0.1192  0.2471  0.6648
 4044TIP3    H133547   4.523   4.746  15.988 -2.1784  1.3347 -0.7986
 4044TIP3    H233548   4.523   4.616  16.066  2.1537  1.8689  0.3720
 4045TIP3   OH233549   2.977   5.896   3.977 -0.4820 -0.4518 -0.0330
 4045TIP3    H133550   2.942   5.950   3.905  1.7236  0.1024 -0.7725
 4045TIP3    H233551   2.996   5.960   4.046 -0.3222 -0.6586  0.1117
 4046TIP3   OH233552   1.973   1.632  15.674 -0.0200 -0.1804 -0.5544
 4046TIP3    H133553   2.036   1.568  15.640  0.1728 -0.4678  0.3111
 4046TIP3    H233554   1.942   1.594  15.756  0.0705  0.8149 -0.0437
 4047TIP3   OH233555   5.794   1.853   4.158 -0.1159 -0.5141 -0.2344
 4047TIP3    H133556   5.794   1.940   4.198 -1.8310  0.0831 -1.3876
 4047TIP3    H233557   5.758   1.795   4.225  0.5049 -0.2488  0.3399
 4048TIP3   OH233558   5.195   4.195  16.498 -0.5586  0.2406  0.6729
 4048TIP3    H133559   5.156   4.212  16.583  0.6861 -0.9652  1.5416
 4048TIP3    H233560   5.248   4.273  16.479 -0.5555  0.3654  1.1890
 4049TIP3   OH233561   3.229   4.177   2.670 -0.7670  0.3481  0.3808
 4049TIP3    H133562   3.310   4.189   2.621 -1.8782 -0.0330 -1.6293
 4049TIP3    H233563   3.250   4.109   2.734  0.4027 -0.0147 -0.3548
 4050TIP3   OH233564   4.103   3.686   0.632  0.4509 -0.0936 -0.2667
 4050TIP3    H133565   4.070   3.737   0.706  2.0287  0.0015  0.4044
 4050TIP3    H233566   4.136   3.605   0.671  1.5126  0.0599 -0.8240
 4051TIP3   OH233567   2.701   4.997  10.898  0.2528  0.0298 -0.2746
 4051TIP3    H133568   2.619   5.013  10.944  0.8362  0.5041  0.6172
 4051TIP3    H233569   2.678   4.933  10.830 -0.5961 -0.7717  0.7341
 4052TIP3   OH233570   4.233   0.232  16.549  0.0672  0.7628 -0.4126
 4052TIP3    H133571   4.163   0.291  16.578  0.1671 -0.0334  1.5782
 4052TIP3    H233572   4.188   0.152  16.522  0.1570  0.3898  0.5057
 4053TIP3   OH233573   4.195   6.289  15.855 -0.2691  0.0335 -0.1080
 4053TIP3    H133574   4.220   6.366  15.804  1.2457 -0.8367 -0.7430
 4053TIP3    H233575   4.228   6.214  15.805 -0.2628 -0.9553  1.2917
 4054TIP3   OH233576   0.038   0.835  15.905 -0.0137  0.6279  0.1397
 4054TIP3    H133577   0.061   0.846  15.997  1.9711  1.2620 -0.3953
 4054TIP3    H233578   0.107   0.779  15.869 -2.8987 -3.1759 -0.1362
 4055TIP3   OH233579   0.391   4.934   5.304 -0.1041  0.4081  0.1294
 4055TIP3    H133580   0.344   4.937   5.388 -0.1582 -1.8395  0.2389
 4055TIP3    H233581   0.372   4.847   5.269  3.6494 -0.5571  0.0133
 4056TIP3   OH233582   3.793   4.368  14.573 -0.0163  0.5876 -0.2972
 4056TIP3    H133583   3.753   4.322  14.499 -0.7697  0.0420  0.4367
 4056TIP3    H233584   3.771   4.315  14.650  1.9606  0.3663  0.1623
 4057TIP3   OH233585   4.234   3.247   1.967  0.3961  0.4790  0.2856
 4057TIP3    H133586   4.278   3.328   1.992 -0.1086  1.8854 -2.8494
 4057TIP3    H233587   4.141   3.264   1.979  0.3542 -0.7381  2.2393
 4058TIP3   OH233588   0.704   6.454   3.763  0.7603  0.7879 -0.3713
 4058TIP3    H133589   0.650   6.384   3.800  1.8254 -0.1561 -0.5689
 4058TIP3    H233590   0.640   6.519   3.732 -0.1984  0.8413  1.5774
 4059TIP3   OH233591   3.319   4.556  13.393 -0.0031  0.0526 -0.5724
 4059TIP3    H133592   3.240   4.561  13.340 -0.5540  1.5708  0.3513
 4059TIP3    H233593   3.319   4.466  13.427 -0.6982 -0.3181 -1.5109
 4060TIP3   OH233594   0.452   1.788  11.525  0.5091  0.3666  0.2247
 4060TIP3    H133595   0.456   1.859  11.590  0.6657  0.6810 -0.1243
 4060TIP3    H233596   0.405   1.826  11.451  1.4233  0.4150 -0.3452
 4061TIP3   OH233597   0.362   5.728  10.953  0.3707  0.2584 -0.1650
 4061TIP3    H133598   0.420   5.662  10.917 -1.8977 -1.5275 -0.7960
 4061TIP3    H233599   0.368   5.802  10.893  0.0261 -0.9348 -1.7262
 4062TIP3   OH233600   5.240   1.004   5.778  0.9791 -0.6833  0.7382
 4062TIP3    H133601   5.316   0.958   5.813  0.1389 -1.0671  2.1785
 4062TIP3    H233602   5.211   1.060   5.850  0.5088  0.2234 -0.1399
 4063TIP3   OH233603   4.989   6.361   1.840 -0.0500  0.1232 -1.0238
 4063TIP3    H133604   4.988   6.268   1.864  0.4545  0.3141 -0.2236
 4063TIP3    H233605   5.047   6.366   1.764  2.6344  0.2080  0.9082
 4064TIP3   OH233606   1.787   5.241   5.739  0.6759 -0.5690 -0.5693
 4064TIP3    H133607   1.844   5.165   5.729  1.3291 -0.1315 -0.2438
 4064TIP3    H233608   1.724   5.216   5.806  1.0579 -0.7225 -0.2694
 4065TIP3   OH233609   3.259   4.309  15.538  0.2674 -0.0475  0.2878
 4065TIP3    H133610   3.251   4.219  15.504  1.8827  0.1134 -0.6382
 4065TIP3    H233611   3.169   4.336  15.554 -0.3281 -1.4948 -0.3549
 4066TIP3   OH233612   6.312   2.841   0.344  0.3141  0.4443  0.5282
 4066TIP3    H133613   6.255   2.918   0.353 -1.5995 -0.7532 -0.6511
 4066TIP3    H233614   6.287   2.802   0.261  0.4611 -2.0344  1.5608
 4067TIP3   OH233615   4.503   0.200  10.605 -0.0829 -0.3989 -0.2153
 4067TIP3    H133616   4.423   0.196  10.657 -0.2458 -0.4943 -0.4711
 4067TIP3    H233617   4.544   0.283  10.630 -0.8507  0.2222 -0.9369
 4068TIP3   OH233618   6.538   5.460  12.521  0.2029  0.2294  0.1214
 4068TIP3    H133619   6.524   5.515  12.444 -0.9327 -0.8943 -0.5245
 4068TIP3    H233620   6.478   5.495  12.587 -0.6215 -0.2926 -0.3350
 4069TIP3   OH233621   6.201   3.019   4.283 -0.3831  0.1914 -0.0803
 4069TIP3    H133622   6.264   3.051   4.347 -1.6770  0.8180  0.9434
 4069TIP3    H233623   6.141   3.093   4.270  0.8012  0.7326 -3.3706
 4070TIP3   OH233624   0.779   4.620   6.078  0.1755  0.1651  0.4304
 4070TIP3    H133625   0.819   4.604   6.164 -0.0138 -0.7106  0.3663
 4070TIP3    H233626   0.688   4.594   6.089  0.5208 -1.5439 -0.4676
 4071TIP3   OH233627   3.115   0.447   3.897  1.0065  0.7498 -0.1451
 4071TIP3    H133628   3.124   0.502   3.975 -1.0787  1.5927 -0.4055
 4071TIP3    H233629   3.175   0.486   3.833  1.8780  0.7587  0.6632
 4072TIP3   OH233630   0.682   3.600  14.410 -0.2249 -0.2997 -0.4810
 4072TIP3    H133631   0.650   3.631  14.326  0.3612  0.1719 -0.5368
 4072TIP3    H233632   0.669   3.675  14.469 -1.1267 -0.8000 -0.0172
 4073TIP3   OH233633   1.976   1.244   5.614  0.2965  0.2652 -0.2837
 4073TIP3    H133634   1.964   1.154   5.582  0.2241 -0.2460  1.0735
 4073TIP3    H233635   1.930   1.245   5.699  0.9301  1.3657  0.0665
 4074TIP3   OH233636   3.877   2.474  17.178  0.0874  0.2565  0.1724
 4074TIP3    H133637   3.972   2.477  17.188  0.0803  0.5399  0.1618
 4074TIP3    H233638   3.862   2.503  17.088  0.0638 -0.9266 -0.2275
 4075TIP3   OH233639   2.290   1.498  15.244 -0.7832  0.0291  1.1006
 4075TIP3    H133640   2.256   1.562  15.306 -1.0475  2.2612 -1.1904
 4075TIP3    H233641   2.276   1.537  15.158  1.0822 -2.1523 -0.3332
 4076TIP3   OH233642   0.859   4.065   1.532 -0.0052  0.1408  0.1887
 4076TIP3    H133643   0.806   4.139   1.560  0.2786  0.6117 -0.4863
 4076TIP3    H233644   0.813   4.028   1.457  1.4782  1.6618 -1.5624
 4077TIP3   OH233645   3.692   0.170  14.465 -0.6398 -0.1978  0.0476
 4077TIP3    H133646   3.620   0.232  14.475 -0.4842 -0.1231  0.7180
 4077TIP3    H233647   3.755   0.195  14.532  1.0010  1.0780 -1.8486
 4078TIP3   OH233648   1.773   6.131  13.572  0.5494 -0.0441 -0.0739
 4078TIP3    H133649   1.795   6.216  13.611  0.8974 -0.0389 -0.2867
 4078TIP3    H233650   1.738   6.080  13.645  0.8306  0.1029  0.1653
 4079TIP3   OH233651   4.379   3.558   3.856 -0.2730  0.5985 -0.1925
 4079TIP3    H133652   4.315   3.627   3.837 -2.0127 -0.5993  1.0417
 4079TIP3    H233653   4.434   3.595   3.925  0.5260  1.6897 -1.3586
 4080TIP3   OH233654   3.582   3.471   5.274  0.0910 -0.4488  0.6162
 4080TIP3    H133655   3.557   3.562   5.258  1.2322  0.3398  2.7572
 4080TIP3    H233656   3.672   3.477   5.307  0.7255 -2.5224 -0.5580
 4081TIP3   OH233657   0.363   3.206  14.861 -0.2347  0.0974 -0.5818
 4081TIP3    H133658   0.358   3.196  14.956  0.9195 -1.4028 -0.6377
 4081TIP3    H233659   0.445   3.252  14.845  0.3612 -1.0348 -0.8969
 4082TIP3   OH233660   6.456   3.906   2.437  0.2173 -0.1315  0.1633
 4082TIP3    H133661   6.442   3.954   2.355 -2.2568 -2.0024 -0.6578
 4082TIP3    H233662   6.369   3.901   2.476  0.9259 -1.3645  1.6821
 4083TIP3   OH233663   6.716   0.319   3.811  0.1724  0.3812  0.0188
 4083TIP3    H133664   6.698   0.336   3.719  1.3267  0.4212 -0.2108
 4083TIP3    H233665   6.774   0.390   3.839  0.6968 -0.2134  0.4846
 4084TIP3   OH233666   1.865   2.784  12.103  0.2481  0.2657  0.7379
 4084TIP3    H133667   1.814   2.726  12.047  0.8076 -0.6099  1.1174
 4084TIP3    H233668   1.956   2.769  12.079  0.4625  0.2766  1.4938
 4085TIP3   OH233669   4.617   4.332  10.474 -0.4210  0.0877 -0.6315
 4085TIP3    H133670   4.608   4.244  10.511  2.2073  0.3573  0.8922
 4085TIP3    H233671   4.540   4.379  10.505 -0.6539 -1.0358  0.5639
 4086TIP3   OH233672   3.816   6.697   4.447  0.6275 -1.0921 -0.2517
 4086TIP3    H133673   3.733   6.737   4.418  1.5919  1.4502  0.1715
 4086TIP3    H233674   3.836   6.632   4.381 -1.7523 -1.8708 -0.2967
 4087TIP3   OH233675   6.214   5.522  12.484 -0.2607  0.0521 -0.2461
 4087TIP3    H133676   6.154   5.450  12.504  1.2311 -0.8431  1.3668
 4087TIP3    H233677   6.198   5.542  12.392 -2.8756 -0.2196  0.0703
 4088TIP3   OH233678   6.640   3.701  13.900  0.3388  0.1115 -0.0360
 4088TIP3    H133679   6.702   3.688  13.972  2.6591  1.1616 -1.7417
 4088TIP3    H233680   6.655   3.628  13.841 -1.0695 -0.3735  0.1698
 4089TIP3   OH233681   0.644   0.137   0.804  1.2005  0.4380  0.3160
 4089TIP3    H133682   0.683   0.068   0.859 -1.2994  0.5452  2.4150
 4089TIP3    H233683   0.613   0.203   0.867 -2.4523  0.2421 -1.0494
 4090TIP3   OH233684   5.021   2.474  14.912 -0.5264  0.3332  0.2136
 4090TIP3    H133685   5.044   2.381  14.907 -1.9312 -0.0327  0.2078
 4090TIP3    H233686   5.066   2.506  14.990  1.9283  0.2568 -1.0830
 4091TIP3   OH233687   5.208   6.308   3.263  0.1422 -0.2679  0.3736
 4091TIP3    H133688   5.146   6.330   3.333  0.5303  1.2054  0.2769
 4091TIP3    H233689   5.158   6.320   3.182  0.1051 -0.6116  0.3437
 4092TIP3   OH233690   2.125   3.902  12.506 -0.8017 -0.2840  0.0352
 4092TIP3    H133691   2.123   3.930  12.415  1.2217 -1.5369 -0.4734
 4092TIP3    H233692   2.212   3.862  12.517 -0.8376  0.1489  2.6133
 4093TIP3   OH233693   2.162   6.429   4.999 -0.1415  0.0122  0.5793
 4093TIP3    H133694   2.096   6.482   5.044  0.0129  0.1299  0.6704
 4093TIP3    H233695   2.154   6.453   4.907  1.5938  2.0705  0.8912
 4094TIP3   OH233696   3.509   2.129   5.986  0.2021 -0.7099 -0.2998
 4094TIP3    H133697   3.602   2.108   5.995  0.4595 -0.0265 -1.2098
 4094TIP3    H233698   3.470   2.051   5.947  0.1275 -1.4929  1.2417
 4095TIP3   OH233699   1.595   3.059  15.869 -0.4198 -0.7409 -0.1247
 4095TIP3    H133700   1.658   3.027  15.934 -0.8523 -2.3199 -0.4217
 4095TIP3    H233701   1.622   3.149  15.852 -0.2375 -0.2995  2.1453
 4096TIP3   OH233702   1.089   4.279   4.298 -0.9077 -0.1842  0.0622
 4096TIP3    H133703   1.146   4.324   4.360  0.1138 -0.6985 -0.4827
 4096TIP3    H233704   1.121   4.188   4.298 -1.5343 -0.4142 -0.4810
 4097TIP3   OH233705   2.849   0.833   6.734 -0.8084  0.1163 -0.0219
 4097TIP3    H133706   2.899   0.877   6.802  0.2830  0.1054 -0.7998
 4097TIP3    H233707   2.890   0.860   6.652 -1.6313 -0.4581 -0.6466
 4098TIP3   OH233708   3.541   5.677  11.605  0.1239 -0.0268  0.1211
 4098TIP3    H133709   3.548   5.685  11.509  0.6119  1.4456  0.2528
 4098TIP3    H233710   3.482   5.749  11.630 -2.4262 -2.1518  0.6856
 4099TIP3   OH233711   6.464   4.827   0.290 -0.3857  0.0089  0.1534
 4099TIP3    H133712   6.507   4.837   0.205 -0.8791  0.0684 -0.0943
 4099TIP3    H233713   6.531   4.789   0.347 -0.2308 -0.5865 -0.4157
 4100TIP3   OH233714   6.277   1.536  12.326 -0.3591  0.0124 -0.1711
 4100TIP3    H133715   6.262   1.555  12.419  0.3367 -1.8859  0.3831
 4100TIP3    H233716   6.189   1.525  12.290 -0.6209 -0.1245  0.4900
 4101TIP3   OH233717   6.616   0.339  16.830 -0.3041  0.0982 -0.2770
 4101TIP3    H133718   6.574   0.421  16.803  1.4280  0.7045 -1.2262
 4101TIP3    H233719   6.558   0.271  16.796 -1.5812  0.8832  0.2107
 4102TIP3   OH233720   2.054   4.234  14.984 -0.1469  0.2685  0.0575
 4102TIP3    H133721   2.092   4.158  14.939  0.1977  0.6996 -0.3834
 4102TIP3    H233722   1.960   4.229  14.964  0.0553  0.6637 -1.0235
 4103TIP3   OH233723   1.084   4.005   3.966 -0.1156  0.6306 -0.5771
 4103TIP3    H133724   1.078   3.972   4.056  0.8192  1.5471 -0.1477
 4103TIP3    H233725   1.062   3.930   3.911  1.3515 -0.5524  0.3594
 4104TIP3   OH233726   2.349   1.766   5.571 -0.9185  0.1304  0.0019
 4104TIP3    H133727   2.432   1.726   5.596 -0.7864  0.4285  0.0497
 4104TIP3    H233728   2.316   1.805   5.651 -1.4156 -0.5254  0.1240
 4105TIP3   OH233729   0.957   2.315   2.771 -0.1489  0.0450 -0.2025
 4105TIP3    H133730   0.975   2.409   2.762 -0.9110  0.2140 -0.0033
 4105TIP3    H233731   1.007   2.288   2.848  2.3037 -0.3193 -1.8141
 4106TIP3   OH233732   1.973   6.501  16.947  0.0533 -0.3113  0.3860
 4106TIP3    H133733   1.881   6.527  16.953  0.2021  0.3473 -0.1117
 4106TIP3    H233734   2.019   6.580  16.919  0.5919 -0.9857 -0.6913
 4107TIP3   OH233735   0.105   3.692  12.792 -0.1967  0.5840 -0.3060
 4107TIP3    H133736   0.012   3.669  12.801  0.1391 -0.5690  0.3623
 4107TIP3    H233737   0.151   3.631  12.849  1.0564  0.6265 -1.2214
 4108TIP3   OH233738   6.251   6.330  11.066  0.1225 -0.1674 -0.3984
 4108TIP3    H133739   6.160   6.359  11.076 -0.4634 -2.2248  1.0487
 4108TIP3    H233740   6.253   6.284  10.982 -0.9205 -2.3384  0.6809
 4109TIP3   OH233741   1.331   3.682  12.760  0.6365 -0.3971  0.3992
 4109TIP3    H133742   1.251   3.694  12.810  0.2525 -2.1589  0.2993
 4109TIP3    H233743   1.357   3.770  12.733  0.7315  0.6204  3.4533
 4110TIP3   OH233744   4.325   6.612   1.163 -0.4303 -0.2401 -0.6113
 4110TIP3    H133745   4.365   6.525   1.162  1.8006  0.7152 -2.6009
 4110TIP3    H233746   4.291   6.622   1.252  1.5964 -2.1128  0.4578
 4111TIP3   OH233747   3.881   5.102   0.779  0.2143 -0.3409 -0.1618
 4111TIP3    H133748   3.939   5.171   0.747  1.9722 -1.2178  0.9379
 4111TIP3    H233749   3.916   5.021   0.741 -1.3379 -0.7310 -0.8213
 4112TIP3   OH233750   0.973   6.196   0.029 -0.1085 -0.2959  0.3470
 4112TIP3    H133751   0.923   6.243  -0.037  0.9693  0.5639  0.1072
 4112TIP3    H233752   0.996   6.263   0.093 -0.3145 -0.9254  1.0988
 4113TIP3   OH233753   0.426   4.901   1.056 -0.1598  0.5959 -0.2661
 4113TIP3    H133754   0.475   4.980   1.078  0.2493  0.5255 -0.8835
 4113TIP3    H233755   0.487   4.849   1.004 -0.4163 -0.1450  0.1568
 4114TIP3   OH233756   2.607   1.674   1.397  0.2530 -0.0847 -0.0646
 4114TIP3    H133757   2.587   1.585   1.427  2.7974 -0.3859  0.9591
 4114TIP3    H233758   2.560   1.731   1.459 -0.1713 -0.7104  0.1961
 4115TIP3   OH233759   0.259   5.322   2.432  0.2609 -0.4672  0.0043
 4115TIP3    H133760   0.258   5.388   2.502 -0.1538  0.0118 -0.4427
 4115TIP3    H233761   0.303   5.246   2.471  1.4969  0.3553  0.2833
 4116TIP3   OH233762   1.987   0.784  12.871  0.5378 -0.2586  0.0990
 4116TIP3    H133763   1.946   0.749  12.950  1.3111  1.4499  1.3139
 4116TIP3    H233764   2.071   0.818  12.901 -1.0765  4.9693 -0.3066
 4117TIP3   OH233765   3.708   3.255   4.318  0.2250  0.1796  0.0636
 4117TIP3    H133766   3.704   3.282   4.410  1.4688 -0.9811  0.4951
 4117TIP3    H233767   3.751   3.328   4.273  1.2837  0.0086  0.7578
 4118TIP3   OH233768   4.004   1.788  13.945  0.5426 -0.0285 -0.3420
 4118TIP3    H133769   4.073   1.827  13.998  0.1107  1.2691 -0.7062
 4118TIP3    H233770   4.019   1.694  13.951  0.0921  0.0129  2.6550
 4119TIP3   OH233771   2.994   2.873   2.155 -0.5200  0.2929  0.1374
 4119TIP3    H133772   2.952   2.933   2.093  1.1888 -0.9975 -2.4647
 4119TIP3    H233773   3.088   2.881   2.135  0.0401 -0.6946  2.1421
 4120TIP3   OH233774   5.592   5.403  16.240  0.6269 -0.1423 -0.7084
 4120TIP3    H133775   5.670   5.355  16.268  0.4626  0.4734  0.8769
 4120TIP3    H233776   5.604   5.491  16.275 -0.9301 -0.1199 -0.1596
 4121TIP3   OH233777   0.068   2.449   0.553 -0.1349 -0.8323  0.1878
 4121TIP3    H133778   0.088   2.411   0.639 -1.5508 -0.0399  0.9203
 4121TIP3    H233779   0.011   2.524   0.574 -0.1415 -0.3589 -1.4251
 4122TIP3   OH233780   0.771   3.108  13.167 -0.3478  0.3328 -0.3687
 4122TIP3    H133781   0.851   3.154  13.145 -0.4435  2.4457  2.9099
 4122TIP3    H233782   0.799   3.021  13.194  0.3547 -0.1713 -2.5735
 4123TIP3   OH233783   4.937   5.747  17.468  0.6531 -0.1056 -0.1417
 4123TIP3    H133784   4.910   5.826  17.422  1.6743  0.1920 -0.2568
 4123TIP3    H233785   4.855   5.702  17.490  0.1424 -0.2176 -2.1516
 4124TIP3   OH233786   0.908   4.996   4.699 -0.1648 -0.2818 -0.0591
 4124TIP3    H133787   0.960   4.979   4.778  0.5068 -0.2663 -0.4879
 4124TIP3    H233788   0.882   4.909   4.668 -1.1795 -0.2503  0.6585
 4125TIP3   OH233789   1.682   5.904   4.034  0.3510  0.2500 -0.2955
 4125TIP3    H133790   1.775   5.891   4.017  0.2611  0.0906 -0.6709
 4125TIP3    H233791   1.637   5.848   3.970  0.0146 -0.5735  0.6251
 4126TIP3   OH233792   4.878   6.041   0.219  0.2082  0.3431  0.0484
 4126TIP3    H133793   4.970   6.045   0.192  0.6484 -1.7108  1.1083
 4126TIP3    H233794   4.877   5.982   0.294 -1.7773  1.5509  1.0690
 4127TIP3   OH233795   3.922   1.943  14.618  0.2698  0.0433  0.3355
 4127TIP3    H133796   3.866   1.865  14.609  1.1924 -1.0312  3.0264
 4127TIP3    H233797   3.982   1.938  14.544 -0.3732 -1.2234 -0.1305
 4128TIP3   OH233798   0.323   5.644  16.881 -0.1572  0.0285 -0.3172
 4128TIP3    H133799   0.279   5.577  16.829  0.0046  0.0269 -0.4536
 4128TIP3    H233800   0.408   5.606  16.902  0.1028  0.3612 -0.7558
 4129TIP3   OH233801   0.132   0.335   2.311  0.1397 -0.7076 -1.3198
 4129TIP3    H133802   0.049   0.287   2.317 -0.2959  0.1968  0.9455
 4129TIP3    H233803   0.110   0.417   2.267 -0.1043 -0.6043 -1.0047
 4130TIP3   OH233804   4.251   2.359  13.406  0.3296  0.2571  0.4813
 4130TIP3    H133805   4.166   2.383  13.443  0.4014  0.8451  0.2687
 4130TIP3    H233806   4.239   2.268  13.378 -0.0616  0.1602  0.9476
 4131TIP3   OH233807   4.720   4.074  13.347  0.5540  0.9224 -0.1368
 4131TIP3    H133808   4.665   4.009  13.392  0.3080  0.4365 -1.1225
 4131TIP3    H233809   4.804   4.070  13.393  0.0441  1.0610  0.8332
 4132TIP3   OH233810   2.317   4.298   3.502  0.5346  0.1270  0.0126
 4132TIP3    H133811   2.356   4.214   3.480 -1.7403 -0.6705 -1.1929
 4132TIP3    H233812   2.391   4.351   3.533  1.8725 -2.6009  1.8961
 4133TIP3   OH233813   5.977   1.714  15.484  0.0643  0.3870 -0.0847
 4133TIP3    H133814   5.972   1.735  15.577 -0.0788  2.1717 -0.4599
 4133TIP3    H233815   5.953   1.622  15.479 -1.1481  0.5725  1.5156
 4134TIP3   OH233816   3.749   3.646   6.326 -0.4610  0.6765 -0.3499
 4134TIP3    H133817   3.756   3.550   6.329 -3.7226  0.3467  0.8962
 4134TIP3    H233818   3.757   3.673   6.418  0.7238  1.6706 -0.7231
 4135TIP3   OH233819   0.955   1.050  11.394 -0.6576 -0.2551 -0.2888
 4135TIP3    H133820   0.904   1.126  11.423 -0.6108 -0.7205  1.0919
 4135TIP3    H233821   0.891   0.980  11.384 -0.6191 -0.1940 -0.9755
 4136TIP3   OH233822   6.624   4.567  12.294 -0.6200 -0.0225  0.0037
 4136TIP3    H133823   6.680   4.592  12.367 -1.5648 -1.8914  1.4326
 4136TIP3    H233824   6.567   4.642  12.280 -0.8527  0.1214  1.6194
 4137TIP3   OH233825   0.042   1.729  16.616 -0.0762  0.0864  0.5044
 4137TIP3    H133826   0.128   1.768  16.634 -0.2375 -0.6004  3.2664
 4137TIP3    H233827  -0.018   1.773  16.677 -1.1854 -1.1148  0.3248
 4138TIP3   OH233828   5.920   5.346  15.810 -0.3209  0.3043 -0.0737
 4138TIP3    H133829   5.845   5.296  15.843 -0.1966 -0.3232 -0.7197
 4138TIP3    H233830   5.948   5.298  15.732  0.6506  0.6228  0.0679
 4139TIP3   OH233831   0.702   1.524   5.468  0.1719 -0.1328 -0.5092
 4139TIP3    H133832   0.704   1.584   5.393 -0.8220  1.0901  0.4047
 4139TIP3    H233833   0.791   1.528   5.504 -0.0094  1.1724 -0.1810
 4140TIP3   OH233834   6.612   4.276  12.879  0.1767 -0.0431 -0.4214
 4140TIP3    H133835   6.613   4.209  12.810  0.1803 -0.1797 -0.2905
 4140TIP3    H233836   6.568   4.233  12.953  2.6068 -0.8937  0.6450
 4141TIP3   OH233837   6.383   2.801  15.610  0.1613 -0.1826  0.4144
 4141TIP3    H133838   6.439   2.870  15.575 -0.7595  0.0928 -0.5901
 4141TIP3    H233839   6.427   2.772  15.690  1.5394  0.2441 -0.1648
 4142TIP3   OH233840   4.334   5.111   4.338  0.7372 -0.6836 -0.2223
 4142TIP3    H133841   4.325   5.124   4.244  1.3519  0.9402 -0.0837
 4142TIP3    H233842   4.429   5.114   4.354  0.6861 -1.7434  0.3521
 4143TIP3   OH233843   3.386   4.534   0.989 -0.3627  0.2088  0.1893
 4143TIP3    H133844   3.338   4.453   1.008 -0.1973  0.1686  0.4489
 4143TIP3    H233845   3.319   4.600   0.977 -0.5183 -0.0726 -0.5123
 4144TIP3   OH233846   6.019   3.574   6.682 -0.2946  0.1137 -0.2962
 4144TIP3    H133847   5.945   3.514   6.691  0.4318 -0.6946  0.6905
 4144TIP3    H233848   6.003   3.642   6.747  0.2831 -0.5931  0.6157
 4145TIP3   OH233849   0.910   5.534  15.350 -0.2542  0.2050 -0.1919
 4145TIP3    H133850   0.952   5.613  15.315  1.4760  0.1453  1.5612
 4145TIP3    H233851   0.883   5.559  15.439 -0.0067 -1.0394  0.2502
 4146TIP3   OH233852   1.068   0.996  11.652  0.3769  0.3704 -0.2194
 4146TIP3    H133853   1.040   0.932  11.718  0.5530  0.7407  0.2178
 4146TIP3    H233854   1.027   0.966  11.571 -0.3449  0.2609  0.1805
 4147TIP3   OH233855   4.086   2.756   0.836 -0.5931  0.2814 -0.1873
 4147TIP3    H133856   4.146   2.830   0.844 -0.4708  0.1151  0.5405
 4147TIP3    H233857   4.083   2.718   0.924 -0.0745 -1.0186 -0.6935
 4148TIP3   OH233858   5.427   5.531  16.770  0.7064  0.1504 -0.1067
 4148TIP3    H133859   5.388   5.446  16.792  1.1437  0.1386  0.6761
 4148TIP3    H233860   5.433   5.576  16.855  1.0321  0.7254 -0.4320
 4149TIP3   OH233861   1.552   5.289   4.313 -0.3364 -0.5552 -0.2326
 4149TIP3    H133862   1.599   5.232   4.252 -0.0317  0.4350 -0.9516
 4149TIP3    H233863   1.582   5.261   4.399 -0.7113 -1.9251 -0.5240
 4150TIP3   OH233864   1.244   2.027  12.643  0.1877  0.6699  0.4739
 4150TIP3    H133865   1.257   1.994  12.732 -0.9474  0.8260  0.7094
 4150TIP3    H233866   1.198   1.956  12.597  0.5835  0.6724  0.0595
 4151TIP3   OH233867   1.955   2.336  12.457  0.0604 -0.1725 -0.3240
 4151TIP3    H133868   1.967   2.306  12.547 -0.0206 -0.7526 -0.5017
 4151TIP3    H233869   1.984   2.262  12.404  0.3179  0.2520 -0.7746
 4152TIP3   OH233870   0.130   0.155   4.476  0.1177  0.2421 -0.0115
 4152TIP3    H133871   0.101   0.168   4.566 -1.9678 -0.8753 -0.4531
 4152TIP3    H233872   0.133   0.059   4.466  1.8178  0.3394 -0.7008
 4153TIP3   OH233873   0.159   2.071   6.381 -0.3610 -0.2400  0.1729
 4153TIP3    H133874   0.160   1.985   6.341 -1.0380  0.1746 -0.7856
 4153TIP3    H233875   0.247   2.106   6.367 -0.8395  0.2606 -1.8111
 4154TIP3   OH233876   0.566   3.779   1.000  0.2203 -0.1000 -0.3208
 4154TIP3    H133877   0.563   3.684   1.009 -0.3792  0.0273  1.0736
 4154TIP3    H233878   0.474   3.806   0.994  0.3948  0.3799 -1.0265
 4155TIP3   OH233879   0.041   2.920  11.322  0.2443 -0.7471 -0.0986
 4155TIP3    H133880  -0.001   2.876  11.249 -1.8617  0.1289  0.5058
 4155TIP3    H233881   0.032   3.013  11.303  0.9895 -0.5225  0.5741
 4156TIP3   OH233882   4.276   5.309   1.021  0.7297 -0.1612  0.2288
 4156TIP3    H133883   4.328   5.383   1.051  0.7332 -0.9147  2.2718
 4156TIP3    H233884   4.211   5.347   0.963 -0.7017  1.8898  2.9329
 4157TIP3   OH233885   2.028   0.260  13.511  0.6349 -0.0399  0.1101
 4157TIP3    H133886   2.124   0.259  13.521  0.4198 -1.3541  3.1314
 4157TIP3    H233887   2.000   0.176  13.547 -1.6809  0.2628 -0.8603
 4158TIP3   OH233888   3.974   4.891   2.104  0.5314  0.4514 -0.1955
 4158TIP3    H133889   3.993   4.803   2.135 -0.7849 -0.5337 -2.0117
 4158TIP3    H233890   3.923   4.878   2.024 -0.1910  2.8703 -0.2027
 4159TIP3   OH233891   2.039   1.100  17.477 -0.4568  0.5435 -0.0269
 4159TIP3    H133892   2.125   1.061  17.491  0.3223  2.2512  0.2714
 4159TIP3    H233893   2.027   1.160  17.551 -1.7443  0.6214 -0.2669
 4160TIP3   OH233894   0.977   6.312  12.496  0.9112 -0.3161 -0.4956
 4160TIP3    H133895   0.921   6.327  12.573  0.1666 -1.0754 -0.8683
 4160TIP3    H233896   1.055   6.366  12.512  0.1379  0.6716  0.1040
 4161TIP3   OH233897   1.802   3.594   3.767 -0.0770  0.2415 -0.1466
 4161TIP3    H133898   1.726   3.600   3.825  0.0878 -0.1076  0.1114
 4161TIP3    H233899   1.867   3.653   3.805 -0.3879  0.9032 -0.6347
 4162TIP3   OH233900   1.869   6.059  15.205 -0.0995  0.3838  0.0301
 4162TIP3    H133901   1.789   6.055  15.153 -0.3398  1.7938  0.2395
 4162TIP3    H233902   1.896   6.151  15.201 -0.4238  0.6899  2.8004
 4163TIP3   OH233903   3.871   1.398  13.357 -0.2220  0.3662  0.6760
 4163TIP3    H133904   3.958   1.413  13.319 -0.0086 -0.0578  0.9868
 4163TIP3    H233905   3.821   1.358  13.286 -0.4552  1.4495  0.1997
 4164TIP3   OH233906   2.610   1.405   1.444  0.1466  0.3860 -0.1575
 4164TIP3    H133907   2.610   1.342   1.516  0.6568  1.4245  0.7777
 4164TIP3    H233908   2.645   1.356   1.370  0.2870 -0.5071  0.4764
 4165TIP3   OH233909   6.410   5.830   3.935 -0.0752  0.4595  0.0187
 4165TIP3    H133910   6.480   5.797   3.878  1.3249  0.7590  1.4945
 4165TIP3    H233911   6.356   5.753   3.954  1.5424 -0.4323  1.1744
 4166TIP3   OH233912   5.671   5.425  15.538 -0.3163  0.0709 -0.1661
 4166TIP3    H133913   5.599   5.363  15.537  0.0826 -0.3910 -0.4630
 4166TIP3    H233914   5.637   5.502  15.492 -0.5630 -0.2163 -0.4722
 4167TIP3   OH233915   0.589   0.494   1.448 -0.4033 -0.1141 -0.5229
 4167TIP3    H133916   0.534   0.450   1.512 -2.2922  0.1310 -1.9103
 4167TIP3    H233917   0.569   0.587   1.459  0.7611  0.1141 -0.1526
 4168TIP3   OH233918   4.015   3.730   1.736 -0.4471 -0.3014 -0.1721
 4168TIP3    H133919   4.099   3.728   1.690 -1.0315 -2.3701 -1.2703
 4168TIP3    H233920   3.970   3.806   1.699  1.2016  1.3584  1.0547
 4169TIP3   OH233921   6.183   4.465   6.737  0.5449  0.4127 -0.2577
 4169TIP3    H133922   6.092   4.473   6.709  0.4329 -1.6487 -0.6683
 4169TIP3    H233923   6.215   4.387   6.691  2.0371  0.1858  1.0868
 4170TIP3   OH233924   2.048   6.188   5.477 -0.8949 -0.0424  0.1685
 4170TIP3    H133925   2.133   6.167   5.439 -1.2221  1.0459 -1.2777
 4170TIP3    H233926   2.062   6.269   5.526 -1.5586  1.7285 -2.3324
 4171TIP3   OH233927   2.483   4.956  15.112 -0.1678  0.1507  0.2971
 4171TIP3    H133928   2.572   4.952  15.076  0.1612  2.6277  0.6798
 4171TIP3    H233929   2.494   4.999  15.196 -1.4820 -1.7019  1.4914
 4172TIP3   OH233930   6.228   6.385   3.379 -0.0775 -0.2236 -0.5311
 4172TIP3    H133931   6.218   6.360   3.471 -0.2068 -0.9524 -0.7437
 4172TIP3    H233932   6.187   6.472   3.374 -1.6727 -0.9222 -0.2772
 4173TIP3   OH233933   3.019   0.337   2.997 -0.1282 -0.1243 -0.0211
 4173TIP3    H133934   3.079   0.279   3.044 -1.6087 -1.0856  0.7316
 4173TIP3    H233935   3.062   0.350   2.912  0.3910 -2.1096 -0.1200
 4174TIP3   OH233936   1.201   2.404  17.166 -0.4788 -0.1628  0.2640
 4174TIP3    H133937   1.122   2.458  17.156 -1.1376 -1.1433 -0.0008
 4174TIP3    H233938   1.243   2.406  17.080 -0.0419  0.6010  0.4861
 4175TIP3   OH233939   6.361   4.072  15.327  0.1232 -0.0569 -0.5393
 4175TIP3    H133940   6.341   3.978  15.322 -0.9266  0.1245 -0.0153
 4175TIP3    H233941   6.341   4.106  15.240  1.3796 -0.4579 -1.0145
 4176TIP3   OH233942   3.605   0.368   4.321 -0.5258 -0.2713  0.3429
 4176TIP3    H133943   3.560   0.437   4.272  0.6844 -1.0841 -2.0699
 4176TIP3    H233944   3.698   0.380   4.300 -0.1007 -1.5553  1.3165
 4177TIP3   OH233945   6.617   4.303   0.786  0.0320 -0.3099 -0.3293
 4177TIP3    H133946   6.666   4.229   0.823  0.0973 -1.6658 -2.8661
 4177TIP3    H233947   6.555   4.262   0.725 -1.8299  1.6006  0.1707
 4178TIP3   OH233948   5.383   6.508   0.173  0.4932 -0.2351 -0.3026
 4178TIP3    H133949   5.414   6.421   0.150  0.7293  0.1506 -1.5761
 4178TIP3    H233950   5.397   6.560   0.093 -0.3892  0.7643  0.1622
 4179TIP3   OH233951   4.378   1.360  13.076  0.1524  0.9102 -0.2835
 4179TIP3    H133952   4.442   1.293  13.102  0.6675  1.0475 -1.1505
 4179TIP3    H233953   4.391   1.431  13.138 -2.6701 -0.9953  2.8371
 4180TIP3   OH233954   5.937   2.609  11.696 -0.0262  0.1635 -0.4689
 4180TIP3    H133955   6.012   2.560  11.730 -0.4042  0.4343  0.7877
 4180TIP3    H233956   5.976   2.672  11.635  0.6554 -0.3873 -0.6239
 4181TIP3   OH233957   6.707   5.277  15.106  0.2181 -0.2658  0.2897
 4181TIP3    H133958   6.678   5.338  15.173 -1.3082  0.9315 -1.3551
 4181TIP3    H233959   6.802   5.275  15.115  0.1059  0.3473  2.0341
 4182TIP3   OH233960   3.511   1.790  14.522  0.2431 -0.2684 -0.4067
 4182TIP3    H133961   3.557   1.848  14.461 -0.4785 -1.8718 -2.5943
 4182TIP3    H233962   3.511   1.705  14.479 -1.4356 -1.1996  1.2851
 4183TIP3   OH233963   6.295   3.357  15.628  0.5237  0.4306 -0.6759
 4183TIP3    H133964   6.260   3.411  15.557  1.7338  0.7088 -1.0775
 4183TIP3    H233965   6.220   3.344  15.686 -0.2579  0.9795 -1.5193
 4184TIP3   OH233966   6.534   6.062  13.364 -0.2760  0.2489  0.6504
 4184TIP3    H133967   6.622   6.040  13.333 -1.2871  0.2016 -2.4747
 4184TIP3    H233968   6.489   5.978  13.367 -1.0408  0.5908 -0.7066
 4185TIP3   OH233969   4.841   1.939   4.074  0.2289  0.7128  0.1417
 4185TIP3    H133970   4.830   2.033   4.060  2.1717  0.7764 -1.3989
 4185TIP3    H233971   4.935   1.926   4.081 -0.0451 -1.0103  1.4496
 4186TIP3   OH233972   0.457   3.302  12.751 -0.5478  0.6114  0.0011
 4186TIP3    H133973   0.488   3.211  12.757  0.1715  0.8118 -0.5527
 4186TIP3    H233974   0.463   3.335  12.841 -0.8869  0.0850  0.2172
 4187TIP3   OH233975   6.254   0.836  15.919 -0.8087 -0.0557  0.3357
 4187TIP3    H133976   6.198   0.772  15.873  0.2001 -0.3169 -0.5704
 4187TIP3    H233977   6.209   0.851  16.002 -1.6049 -1.1771  0.1394
 4188TIP3   OH233978   0.945   0.720  17.386 -0.0966  0.9144 -0.2168
 4188TIP3    H133979   0.947   0.769  17.468 -1.7811 -1.6406  1.4976
 4188TIP3    H233980   1.023   0.664  17.390 -0.5417  0.3069 -0.0389
 4189TIP3   OH233981   5.376   6.354  16.853  0.0514 -0.0401 -0.4301
 4189TIP3    H133982   5.413   6.400  16.928  0.4167  0.2427 -0.7767
 4189TIP3    H233983   5.307   6.298  16.889 -0.1028  0.4602  0.0469
 4190TIP3   OH233984   2.223   1.398  16.533 -0.1360 -0.1993 -0.2532
 4190TIP3    H133985   2.170   1.328  16.495  0.3833 -1.1146  0.6563
 4190TIP3    H233986   2.195   1.402  16.625  1.3931 -0.7860  0.2843
 4191TIP3   OH233987   1.465   6.598   3.214  0.9090 -0.0842  0.1149
 4191TIP3    H133988   1.473   6.511   3.253  0.0424  0.6704  2.1258
 4191TIP3    H233989   1.484   6.585   3.121  1.3386 -2.3070  0.4642
 4192TIP3   OH233990   0.693   6.594  13.571 -0.1143 -0.4170  0.2509
 4192TIP3    H133991   0.750   6.666  13.543 -0.2847 -0.0629  0.7954
 4192TIP3    H233992   0.753   6.531  13.611  0.0915 -0.7865 -0.6057
 4193TIP3   OH233993   0.819   2.045  14.826  0.3182  0.6833  0.4777
 4193TIP3    H133994   0.765   2.041  14.905  0.5894  1.6821  0.7187
 4193TIP3    H233995   0.904   2.076  14.856  0.4820  0.8745 -0.1739
 4194TIP3   OH233996   2.504   4.653  12.499 -0.1282 -0.2851 -0.0636
 4194TIP3    H133997   2.526   4.671  12.591 -1.3984 -0.7587  0.3651
 4194TIP3    H233998   2.411   4.676  12.492 -0.5236 -1.9525 -0.7476
 4195TIP3   OH233999   2.970   5.522  17.495 -0.5126 -0.2195  0.0381
 4195TIP3    H134000   2.973   5.531  17.400  0.8797  0.5173  0.1395
 4195TIP3    H234001   2.895   5.464  17.510  0.1336 -1.5661 -1.5926
 4196TIP3   OH234002   6.551   5.432  11.476 -0.1635  0.3011 -0.3644
 4196TIP3    H134003   6.548   5.353  11.421  0.6158  1.0397 -1.5232
 4196TIP3    H234004   6.626   5.418  11.534 -0.4895 -0.1332 -0.0403
 4197TIP3   OH234005   5.665   1.037   3.893  0.1497 -0.1923 -0.8446
 4197TIP3    H134006   5.612   0.998   3.962  1.6713  1.7094  1.5450
 4197TIP3    H234007   5.714   0.963   3.856  0.8651 -1.0334  1.5907
 4198TIP3   OH234008   3.522   4.898   1.164  0.2215  0.2132  0.2069
 4198TIP3    H134009   3.531   4.930   1.074 -2.2099  0.2618 -0.0729
 4198TIP3    H234010   3.609   4.865   1.186  1.0613  0.8534 -1.8975
 4199TIP3   OH234011   1.869   3.218  15.032 -0.2755 -0.3147 -0.2062
 4199TIP3    H134012   1.783   3.215  14.991  0.1350 -1.2097 -1.0310
 4199TIP3    H234013   1.898   3.127  15.036 -0.6358 -0.3856  2.8513
 4200TIP3   OH234014   3.808   2.953  14.923 -0.1634  0.0550 -0.1795
 4200TIP3    H134015   3.848   3.035  14.952 -0.5547  0.8237 -1.6905
 4200TIP3    H234016   3.818   2.893  14.997 -0.3150  1.6167  1.1425
 4201TIP3   OH234017   2.676   0.749  13.628  0.2870  0.6361 -0.0378
 4201TIP3    H134018   2.733   0.785  13.696  1.3109 -3.1823  1.3542
 4201TIP3    H234019   2.591   0.741  13.670  0.6215 -0.5876  0.4403
 4202TIP3   OH234020   5.438   1.148  17.598  0.4440  0.6238 -0.7504
 4202TIP3    H134021   5.516   1.200  17.579  2.0109 -1.3625 -0.0850
 4202TIP3    H234022   5.450   1.067  17.549 -0.0461 -0.6676  1.1297
 4203TIP3   OH234023   4.489   6.222  13.843 -0.1684  0.4573  0.4873
 4203TIP3    H134024   4.509   6.131  13.822 -1.8236 -0.1352  1.3566
 4203TIP3    H234025   4.532   6.237  13.927 -0.0361  0.4331  0.4245
 4204TIP3   OH234026   4.829   4.803  16.941  0.0710  0.1288 -0.8140
 4204TIP3    H134027   4.818   4.786  16.847  2.2436 -1.0521 -0.9309
 4204TIP3    H234028   4.782   4.732  16.984  2.3834 -1.7388 -1.1650
 4205TIP3   OH234029   3.902   2.605   5.810  0.0954 -0.4296 -0.1334
 4205TIP3    H134030   3.878   2.565   5.893 -0.9126  0.7554  0.1766
 4205TIP3    H234031   3.819   2.634   5.772  0.6871  0.3598 -0.8592
 4206TIP3   OH234032   0.954   1.232   5.504 -0.2146 -0.5069  0.0534
 4206TIP3    H134033   0.911   1.313   5.531  0.0581 -0.0691 -0.7858
 4206TIP3    H234034   0.969   1.184   5.586  0.8049  0.8765  0.7279
 4207TIP3   OH234035   0.374   1.085   2.545  0.1522  0.0970 -0.0118
 4207TIP3    H134036   0.312   1.142   2.499 -0.6838 -1.9221 -1.5082
 4207TIP3    H234037   0.441   1.065   2.480  0.0685 -1.1358  0.2634
 4208TIP3   OH234038   0.808   5.231  15.181 -0.2028 -0.5566  0.6593
 4208TIP3    H134039   0.728   5.182  15.159 -0.1138  0.3267 -2.0004
 4208TIP3    H234040   0.784   5.323  15.168  0.4374 -0.0171  2.8270
 4209TIP3   OH234041   0.576   2.803   0.677  0.3880 -0.1161 -0.3451
 4209TIP3    H134042   0.613   2.888   0.653 -2.2654  2.0683  2.5012
 4209TIP3    H234043   0.515   2.782   0.606  1.0847  0.3150 -1.0855
 4210TIP3   OH234044   3.145   1.439   1.574  0.0156 -0.4235  0.3977
 4210TIP3    H134045   3.147   1.517   1.630 -0.4046  0.7961 -1.1986
 4210TIP3    H234046   3.235   1.408   1.574  0.6216  1.1822 -0.3536
 4211TIP3   OH234047   4.351   5.508   5.582  0.1869 -0.3601  0.3259
 4211TIP3    H134048   4.408   5.509   5.505 -0.5246 -0.1105 -0.2173
 4211TIP3    H234049   4.303   5.591   5.577  1.0946  0.2894  1.7946
 4212TIP3   OH234050   1.942   0.645  10.538  0.4605  0.0120  0.5824
 4212TIP3    H134051   1.880   0.620  10.470  0.3002 -0.1890  0.8004
 4212TIP3    H234052   1.977   0.561  10.569 -0.8950 -0.0361  2.0919
 4213TIP3   OH234053   5.042   0.780  13.397  0.3616 -0.0475 -0.7768
 4213TIP3    H134054   5.127   0.802  13.358  0.6697 -0.3834 -0.3070
 4213TIP3    H234055   5.030   0.846  13.465  1.4037 -1.4173  0.8047
 4214TIP3   OH234056   2.305   0.745   0.958  0.3807 -0.4493 -0.2110
 4214TIP3    H134057   2.275   0.655   0.946 -0.8903  0.0191 -0.6732
 4214TIP3    H234058   2.396   0.736   0.988  0.8427 -1.8658 -1.8480
 4215TIP3   OH234059   4.220   0.196  17.529  0.2680  0.1879  0.2955
 4215TIP3    H134060   4.136   0.174  17.569 -0.1295  0.0197 -0.5882
 4215TIP3    H234061   4.196   0.235  17.444  1.0772  0.2867  0.1013
 4216TIP3   OH234062   4.054   3.764  12.693 -0.3821  0.1526  0.3235
 4216TIP3    H134063   4.034   3.835  12.753  2.3459  1.3764 -0.0335
 4216TIP3    H234064   4.137   3.728  12.725  0.9206  0.5387 -2.3333
 4217TIP3   OH234065   5.438   5.403  14.136 -0.2940 -0.3247 -0.3334
 4217TIP3    H134066   5.362   5.390  14.079  0.4389 -0.5536 -1.2763
 4217TIP3    H234067   5.513   5.399  14.077  0.5864 -2.0527  0.8448
 4218TIP3   OH234068   4.060   5.142   0.361 -0.7948  0.1245  0.2490
 4218TIP3    H134069   3.998   5.210   0.332 -1.5781 -1.5950 -2.5431
 4218TIP3    H234070   4.021   5.060   0.332  1.8171 -1.2298  0.2446
 4219TIP3   OH234071   1.529   3.941  12.250  0.0803 -1.1576 -0.3082
 4219TIP3    H134072   1.438   3.972  12.246 -0.1615 -1.8649 -0.4743
 4219TIP3    H234073   1.522   3.846  12.242  0.8888 -1.1699 -0.9844
 4220TIP3   OH234074   1.524   1.301  13.030  0.2595 -0.2971  0.3983
 4220TIP3    H134075   1.584   1.372  13.051  3.5291 -2.5994 -0.3985
 4220TIP3    H234076   1.452   1.311  13.092  1.3832  2.6704  1.3961
 4221TIP3   OH234077   4.681   3.336   3.203 -0.4200 -0.2981  0.6336
 4221TIP3    H134078   4.768   3.315   3.169  0.2983  1.2747  1.3440
 4221TIP3    H234079   4.669   3.276   3.277 -0.1836 -0.9126  0.1733
 4222TIP3   OH234080   4.369   6.147   5.419  0.0303 -0.5847  0.0612
 4222TIP3    H134081   4.286   6.134   5.467  0.3064  3.5691  2.1793
 4222TIP3    H234082   4.346   6.133   5.328 -2.3420 -2.1150  0.7878
 4223TIP3   OH234083   0.328   0.926   2.791  0.0671 -0.2768  0.0160
 4223TIP3    H134084   0.296   0.946   2.878  1.0245 -0.0461  0.3328
 4223TIP3    H234085   0.345   1.012   2.752 -3.5106 -0.1619 -1.6976
 4224TIP3   OH234086   2.272   0.212  12.010 -0.6355 -0.4286  0.1002
 4224TIP3    H134087   2.317   0.274  11.953 -0.3816  0.8041  1.5648
 4224TIP3    H234088   2.195   0.259  12.042 -0.3870 -0.7919  1.3174
 4225TIP3   OH234089   1.583   5.292  13.012 -0.7610  0.0488  0.2789
 4225TIP3    H134090   1.602   5.385  13.008 -0.1385 -0.1123 -1.0985
 4225TIP3    H234091   1.488   5.286  12.996 -0.4546  0.3570 -2.1238
 4226TIP3   OH234092   0.389   5.099   0.084 -0.5164 -0.6469  0.1317
 4226TIP3    H134093   0.461   5.136   0.032 -0.9223 -2.9972 -2.3287
 4226TIP3    H234094   0.330   5.061   0.020 -2.4526 -1.4388  2.2416
 4227TIP3   OH234095   3.617   0.970  10.937 -0.0624  0.1452  0.2556
 4227TIP3    H134096   3.667   1.032  10.883 -1.3968  1.1064  0.0852
 4227TIP3    H234097   3.541   0.948  10.884 -0.5779 -0.1465  1.1058
 4228TIP3   OH234098   6.169   6.570  14.134 -0.1403  0.0907 -0.9565
 4228TIP3    H134099   6.192   6.478  14.120  0.7689  0.4572 -2.0262
 4228TIP3    H234100   6.242   6.604  14.187 -0.2946  0.2777 -0.8647
 4229TIP3   OH234101   3.278   6.272  15.785  0.2212  0.5986  0.0538
 4229TIP3    H134102   3.280   6.338  15.716 -1.1478 -0.8450 -1.4497
 4229TIP3    H234103   3.351   6.213  15.764 -0.0046  0.3269  0.0326
 4230TIP3   OH234104   5.969   0.706   1.446 -0.4561  0.0968  0.4508
 4230TIP3    H134105   6.013   0.767   1.505 -0.5250  0.7676 -0.1848
 4230TIP3    H234106   5.909   0.657   1.503 -1.4604  1.6045  0.7448
 4231TIP3   OH234107   2.820   0.869  11.038  0.3653 -0.5335 -0.1718
 4231TIP3    H134108   2.810   0.802  10.970  1.9662 -1.0107  0.0150
 4231TIP3    H234109   2.907   0.906  11.022  0.2779  0.1754  0.8987
 4232TIP3   OH234110   4.515   3.677   1.223 -0.1107 -0.7321 -0.5185
 4232TIP3    H134111   4.470   3.724   1.153 -0.5040  1.0711  0.8985
 4232TIP3    H234112   4.546   3.745   1.282  1.7565 -2.1128  0.1900
 4233TIP3   OH234113   6.419   6.404  11.915  0.3041 -0.4815  0.5883
 4233TIP3    H134114   6.421   6.312  11.941  0.1411 -0.8255 -0.5617
 4233TIP3    H234115   6.343   6.440  11.960 -0.8693 -1.4280 -0.5781
 4234TIP3   OH234116   1.717   5.767  16.934 -0.0861 -0.0025  0.4061
 4234TIP3    H134117   1.745   5.704  16.869 -0.3369  0.5633 -0.2612
 4234TIP3    H234118   1.795   5.819  16.953  0.3319 -0.9862  1.5416
 4235TIP3   OH234119   6.461   0.149   0.455  0.3054  0.0046  0.4766
 4235TIP3    H134120   6.417   0.090   0.393  0.8109  0.4754 -0.3490
 4235TIP3    H234121   6.508   0.090   0.514 -0.5160 -0.4648  0.6851
 4236TIP3   OH234122   1.631   4.268   1.789 -0.1716 -0.0619  0.2163
 4236TIP3    H134123   1.625   4.177   1.760  0.5178  0.4277 -1.5547
 4236TIP3    H234124   1.633   4.262   1.885  1.2051 -2.0077  0.1202
 4237TIP3   OH234125   3.709   1.259  14.209 -0.3961 -0.7303  0.2181
 4237TIP3    H134126   3.721   1.261  14.114 -0.2787 -0.2542  0.2431
 4237TIP3    H234127   3.750   1.177  14.236  2.0102  0.3763  0.1825
 4238TIP3   OH234128   1.735   1.139   2.027  0.1659 -0.8403 -0.1631
 4238TIP3    H134129   1.720   1.044   2.020  1.5204 -1.0937  0.0215
 4238TIP3    H234130   1.821   1.146   2.067  0.7826  0.4540 -1.6010
 4239TIP3   OH234131   1.477   2.163   6.042 -0.0787  0.4164  0.7092
 4239TIP3    H134132   1.443   2.139   5.956 -1.6580  0.1318  1.3875
 4239TIP3    H234133   1.399   2.183   6.094  0.8428  0.4463  2.1238
 4240TIP3   OH234134   3.724   6.374   3.054  0.0660 -0.4591  0.3106
 4240TIP3    H134135   3.814   6.395   3.029 -0.3560  2.2478  0.8136
 4240TIP3    H234136   3.714   6.282   3.029  2.7596 -0.6795 -0.3088
 4241TIP3   OH234137   4.275   0.518  11.468 -0.0289  0.0350 -0.0348
 4241TIP3    H134138   4.340   0.583  11.493 -0.5933  0.3935  0.5412
 4241TIP3    H234139   4.237   0.554  11.387  0.0817  0.1197 -0.0498
 4242TIP3   OH234140   1.603   1.380   0.139  0.0471 -0.0524  0.1362
 4242TIP3    H134141   1.670   1.351   0.200  0.4064 -0.5890 -0.4957
 4242TIP3    H234142   1.535   1.313   0.143  0.7412 -0.8812 -1.1040
 4243TIP3   OH234143   2.283   6.646   1.168 -0.3267  0.0825  0.4407
 4243TIP3    H134144   2.213   6.642   1.103  1.2212  2.0443 -1.4967
 4243TIP3    H234145   2.338   6.570   1.148  0.4962  1.0370 -1.0374
 4244TIP3   OH234146   1.937   6.672   4.407 -0.2822 -0.4720 -0.1733
 4244TIP3    H134147   1.938   6.588   4.362 -1.7883  0.5803 -2.3078
 4244TIP3    H234148   1.850   6.709   4.390 -0.1240  0.9900  1.7599
 4245TIP3   OH234149   5.819   0.116   5.601  0.3749  0.0699  0.0631
 4245TIP3    H134150   5.882   0.047   5.624  1.4700  1.6675  2.1336
 4245TIP3    H234151   5.846   0.145   5.514  2.8970  1.0271  1.0788
 4246TIP3   OH234152   2.596   0.527   0.521 -0.3268 -0.0344 -0.0515
 4246TIP3    H134153   2.660   0.597   0.506 -0.3996 -0.2577 -1.5565
 4246TIP3    H234154   2.539   0.530   0.444 -0.4760 -1.5968 -0.0300
 4247TIP3   OH234155   1.861   5.812   3.033 -0.1415  0.1575  0.5235
 4247TIP3    H134156   1.883   5.753   3.105  2.3951  0.7590  0.3224
 4247TIP3    H234157   1.886   5.899   3.065 -0.8885  0.7122 -0.3539
 4248TIP3   OH234158   1.310   4.936  12.018 -0.0841 -0.8407  0.2159
 4248TIP3    H134159   1.401   4.926  12.047  0.4344 -1.9735 -1.6018
 4248TIP3    H234160   1.317   4.958  11.926 -1.6579 -1.5399 -0.1079
 4249TIP3   OH234161   2.829   6.369  14.259  0.1905  0.6948 -0.2262
 4249TIP3    H134162   2.795   6.369  14.169  2.3636  1.6954 -1.1366
 4249TIP3    H234163   2.844   6.277  14.279 -2.3993  0.2734  0.0082
 4250TIP3   OH234164   3.300   5.482   5.659  0.0159  0.1431  0.0245
 4250TIP3    H134165   3.353   5.462   5.737 -0.7912 -1.0514  0.2958
 4250TIP3    H234166   3.355   5.453   5.586 -0.6582 -2.1842  0.3614
 4251TIP3   OH234167   6.001   3.860   3.367  0.0671 -1.1192 -0.1950
 4251TIP3    H134168   6.047   3.917   3.305 -0.5799  0.2975  0.5768
 4251TIP3    H234169   6.068   3.835   3.431 -0.0385  0.3262  0.5066
 4252TIP3   OH234170   0.398   1.502   1.215 -0.5593 -0.2276 -0.2739
 4252TIP3    H134171   0.360   1.555   1.145  0.4364  0.7613 -0.1024
 4252TIP3    H234172   0.493   1.513   1.205 -0.3838  0.8643  1.8798
 4253TIP3   OH234173   1.048   6.668   2.211 -0.4852  0.1053 -0.4957
 4253TIP3    H134174   1.065   6.590   2.159  0.4908 -1.0687  1.4853
 4253TIP3    H234175   0.955   6.662   2.234 -0.3134 -0.7198  0.0118
 4254TIP3   OH234176   3.988   2.412  16.927 -0.6287 -0.0441 -0.4696
 4254TIP3    H134177   3.944   2.334  16.962  0.4935 -0.1285  0.8476
 4254TIP3    H234178   4.027   2.382  16.845  0.2049 -1.0441  0.2628
 4255TIP3   OH234179   3.794   3.216  13.415  0.1504 -0.1825  0.3013
 4255TIP3    H134180   3.798   3.262  13.499 -0.8845  0.4991  0.0074
 4255TIP3    H234181   3.806   3.286  13.350 -1.8328 -0.2141 -0.1663
 4256TIP3   OH234182   1.703   0.004   4.651  0.0623  0.3497  0.0208
 4256TIP3    H134183   1.680   0.013   4.558  3.7744  0.1930 -1.0969
 4256TIP3    H234184   1.687  -0.087   4.671 -0.6702  0.3527 -0.5109
 4257TIP3   OH234185   3.580   4.880   4.365 -0.2704 -0.5423  0.4955
 4257TIP3    H134186   3.577   4.940   4.440  0.7572  0.6186 -0.3506
 4257TIP3    H234187   3.641   4.812   4.393  0.6090  0.2247  0.4996
 4258TIP3   OH234188   6.517   4.457   5.378 -0.0394  0.1311  0.6024
 4258TIP3    H134189   6.588   4.507   5.337 -0.4647  2.6625  2.7476
 4258TIP3    H234190   6.437   4.505   5.355 -0.9361 -1.6220 -0.1895
 4259TIP3   OH234191   2.300   3.167   2.710  0.2785 -0.0679 -0.1568
 4259TIP3    H134192   2.213   3.134   2.734  0.6599  0.0093  1.3901
 4259TIP3    H234193   2.287   3.203   2.622 -1.0463 -0.8308 -0.3162
 4260TIP3   OH234194   1.598   1.408  17.208 -0.6662 -0.0885 -0.2585
 4260TIP3    H134195   1.617   1.423  17.301 -0.5636  1.8378 -0.5473
 4260TIP3    H234196   1.511   1.445  17.195 -0.8112 -0.6317 -0.8776
 4261TIP3   OH234197   3.133   1.420   1.075  0.3498  0.4285 -0.4709
 4261TIP3    H134198   3.057   1.476   1.086 -0.9340 -1.3294  0.0792
 4261TIP3    H234199   3.106   1.355   1.011  0.9369 -0.9370  0.6113
 4262TIP3   OH234200   4.751   6.277   2.597 -0.5628 -0.2249  0.7389
 4262TIP3    H134201   4.839   6.265   2.562 -0.6967  0.0126  0.3148
 4262TIP3    H234202   4.756   6.245   2.687 -0.1407 -0.5626  0.5952
 4263TIP3   OH234203   2.543   3.981  16.714 -0.1550  0.1891  0.5798
 4263TIP3    H134204   2.557   4.074  16.735  0.9380 -0.0428  0.9365
 4263TIP3    H234205   2.450   3.967  16.731 -0.1061  0.9628  1.6116
 4264TIP3   OH234206   5.945   2.174  13.768 -0.0983  0.7058  0.0004
 4264TIP3    H134207   5.969   2.253  13.816  2.0895 -0.6754  1.3495
 4264TIP3    H234208   5.970   2.193  13.677 -0.3627  1.8293  0.1418
 4265TIP3   OH234209   2.973   4.320  11.573  0.2534  0.1089 -0.2537
 4265TIP3    H134210   2.969   4.299  11.666 -0.1336  0.1435 -0.2627
 4265TIP3    H234211   3.066   4.334  11.556  0.3863 -0.4227  0.0112
 4266TIP3   OH234212   4.015   1.526  13.561 -0.6097  1.0595 -0.0668
 4266TIP3    H134213   3.975   1.587  13.623 -0.7701  1.9456 -1.0126
 4266TIP3    H234214   3.944   1.504  13.500 -0.5180  0.0167  0.1876
 4267TIP3   OH234215   1.559   4.895  12.131 -0.0733 -0.0852  0.2502
 4267TIP3    H134216   1.618   4.967  12.152  0.4949  0.1132 -1.8122
 4267TIP3    H234217   1.603   4.817  12.164  0.0785  0.3242  1.0360
 4268TIP3   OH234218   6.277   1.119   2.024  0.0296  0.1986  0.0743
 4268TIP3    H134219   6.314   1.063   2.092 -1.0142 -0.3626  0.1946
 4268TIP3    H234220   6.353   1.162   1.984  0.8193 -1.0115  0.2389
 4269TIP3   OH234221   0.697   2.841   1.658 -0.5733  0.4314  0.1380
 4269TIP3    H134222   0.711   2.807   1.747 -0.6306 -1.2517 -0.4662
 4269TIP3    H234223   0.757   2.790   1.604 -1.6108  0.4004 -1.0092
 4270TIP3   OH234224   3.011   2.846  15.875  0.1145 -0.4729  0.3537
 4270TIP3    H134225   3.038   2.876  15.788  0.3523 -0.0915  0.5532
 4270TIP3    H234226   2.965   2.764  15.859 -0.8254  0.1480 -0.2416
 4271TIP3   OH234227   3.284   5.038   2.968 -0.0692 -0.0694 -0.3928
 4271TIP3    H134228   3.290   4.944   2.982 -1.4844 -0.4609 -2.0383
 4271TIP3    H234229   3.211   5.066   3.023  1.8612  0.5907  2.0248
 4272TIP3   OH234230   6.240   0.042   1.945 -0.2131 -0.1965 -0.4241
 4272TIP3    H134231   6.202  -0.041   1.973 -1.5895  0.0548 -1.4472
 4272TIP3    H234232   6.184   0.071   1.873 -0.2234  1.9760  0.3686
 4273TIP3   OH234233   5.294   3.543  13.975 -0.9528  0.3968  0.0755
 4273TIP3    H134234   5.258   3.572  14.059  0.4252  1.7977  0.2443
 4273TIP3    H234235   5.382   3.513  13.996 -1.1893 -0.8444 -0.6379
 4274TIP3   OH234236   0.419   0.207  14.780 -1.0243 -0.4635  0.2115
 4274TIP3    H134237   0.443   0.276  14.719 -0.8357 -0.8859 -0.1983
 4274TIP3    H234238   0.483   0.215  14.852 -0.1797 -1.0314 -0.4571
 4275TIP3   OH234239   4.248   6.650   2.270 -0.5739  0.1444  0.4634
 4275TIP3    H134240   4.300   6.571   2.253  0.3326  0.8480 -0.0844
 4275TIP3    H234241   4.311   6.715   2.300 -0.9109  1.4093 -1.4246
 4276TIP3   OH234242   0.523   3.239   3.750  0.0915  0.1546  0.4859
 4276TIP3    H134243   0.428   3.248   3.740  0.0456 -0.4720  0.3218
 4276TIP3    H234244   0.534   3.161   3.803  0.5937 -2.0449 -2.5884
 4277TIP3   OH234245   5.267   1.274  11.929 -0.2472  0.1661  0.5081
 4277TIP3    H134246   5.310   1.190  11.910  0.7482  0.5268  1.1157
 4277TIP3    H234247   5.245   1.269  12.022  0.2327  0.7559  0.6595
 4278TIP3   OH234248   3.285   4.644  16.469  0.8297 -0.1220  0.1324
 4278TIP3    H134249   3.323   4.681  16.390  2.3063 -2.4203 -0.3351
 4278TIP3    H234250   3.199   4.612  16.442  1.1354 -0.4705 -0.4341
 4279TIP3   OH234251   1.003   0.402  15.021 -0.1072  0.5295  0.0448
 4279TIP3    H134252   1.000   0.362  14.934  2.5362 -0.5238  0.3537
 4279TIP3    H234253   0.990   0.329  15.081  0.0904  0.9138  0.5584
 4280TIP3   OH234254   1.001   5.458  15.001  0.7565 -1.0035 -0.1453
 4280TIP3    H134255   0.994   5.504  15.085  1.8890  0.1791 -0.6679
 4280TIP3    H234256   0.911   5.454  14.968  0.3937 -0.8785  0.7937
 4281TIP3   OH234257   0.022   0.586  14.312 -0.2403 -0.1613 -0.5432
 4281TIP3    H134258   0.040   0.670  14.354  1.0444 -0.9208  0.4993
 4281TIP3    H234259   0.059   0.594  14.225 -0.6235  0.5407 -0.6463
 4282TIP3   OH234260   5.765   6.608   2.375 -0.0778  0.3629 -0.6789
 4282TIP3    H134261   5.747   6.638   2.286  0.6885 -1.0948 -1.3511
 4282TIP3    H234262   5.854   6.576   2.373 -0.5082 -0.9928  0.2555
 4283TIP3   OH234263   5.970   1.844   5.569  0.0061 -0.2946  0.0630
 4283TIP3    H134264   6.012   1.930   5.567 -1.1435  0.3194  1.1470
 4283TIP3    H234265   6.043   1.782   5.575  0.8865  0.8190  4.3478
 4284TIP3   OH234266   5.935   4.065  14.765  0.0780 -0.1676  0.0627
 4284TIP3    H134267   5.933   4.159  14.783  1.5996 -0.1020  0.0403
 4284TIP3    H234268   5.847   4.045  14.735 -0.3950  1.1696  0.4530
 4285TIP3   OH234269   5.370   2.517   5.337  0.0421  0.0455 -0.0727
 4285TIP3    H134270   5.367   2.592   5.397  0.5736 -0.3377  0.4462
 4285TIP3    H234271   5.463   2.501   5.322 -0.0737 -0.2406 -0.5295
 4286TIP3   OH234272   0.987   1.583   5.450  0.1855  0.3460 -0.7045
 4286TIP3    H134273   1.001   1.642   5.376 -1.3166 -0.2656 -1.5310
 4286TIP3    H234274   1.069   1.534   5.457  1.2232  2.0582 -0.3997
 4287TIP3   OH234275   5.073   1.250   0.954  0.2727  0.2277 -0.2651
 4287TIP3    H134276   4.985   1.277   0.929  0.6954  1.6243 -0.3449
 4287TIP3    H234277   5.131   1.293   0.891  0.9804 -1.4432 -0.8157
 4288TIP3   OH234278   0.322   0.945  15.896  0.1595 -0.5485  0.1443
 4288TIP3    H134279   0.294   0.886  15.966 -0.9837 -2.4404 -1.7683
 4288TIP3    H234280   0.316   0.892  15.816  3.2522  0.9045 -1.2201
 4289TIP3   OH234281   2.268   4.582   1.661  0.6481 -0.3416 -0.2897
 4289TIP3    H134282   2.317   4.521   1.606  1.2104  0.1538 -0.3503
 4289TIP3    H234283   2.335   4.623   1.717  0.1414 -0.5276  0.4686
 4290TIP3   OH234284   0.747   1.418   4.373 -0.2468 -0.4224  0.0246
 4290TIP3    H134285   0.742   1.325   4.395 -2.6198 -0.7727 -1.6471
 4290TIP3    H234286   0.677   1.431   4.310 -0.0210  2.5569  0.2842
 4291TIP3   OH234287   0.786   2.784   4.986  0.0423 -0.4274  0.2043
 4291TIP3    H134288   0.801   2.841   4.910 -0.0615 -1.1990 -0.4117
 4291TIP3    H234289   0.874   2.763   5.017  0.0951 -0.3901  0.0831
 4292TIP3   OH234290   0.661   5.028   5.559 -0.2571  0.3043  0.5493
 4292TIP3    H134291   0.751   5.008   5.586 -0.6924  1.0282  2.7630
 4292TIP3    H234292   0.663   5.024   5.463  1.8120 -0.9463  0.5875
 4293TIP3   OH234293   0.823   3.478   0.894 -0.2732 -0.0584 -0.0732
 4293TIP3    H134294   0.839   3.573   0.897 -2.0005  0.2593  0.2334
 4293TIP3    H234295   0.830   3.450   0.985  0.2719 -0.2548 -0.1683
 4294TIP3   OH234296   3.757   3.702  17.194  0.2250  0.6968  0.0290
 4294TIP3    H134297   3.839   3.655  17.202  0.5146  1.3530  1.1697
 4294TIP3    H234298   3.692   3.644  17.233  0.6383  1.3484  1.7544
 4295TIP3   OH234299   1.607   1.185  15.878 -0.4888 -0.3152 -0.8903
 4295TIP3    H134300   1.583   1.278  15.881  0.2454 -0.1341  0.6942
 4295TIP3    H234301   1.668   1.178  15.805 -1.8413  0.0989 -2.0924
 4296TIP3   OH234302   4.875   4.766  11.455  0.2099  0.2318  0.4156
 4296TIP3    H134303   4.838   4.792  11.370  0.8906  3.0504  0.8780
 4296TIP3    H234304   4.924   4.686  11.436  1.2033  1.3210 -2.1104
 4297TIP3   OH234305   4.654   4.911  16.036  0.4357 -0.1867  0.3041
 4297TIP3    H134306   4.585   4.972  16.063 -0.1465 -0.1098 -1.2535
 4297TIP3    H234307   4.734   4.946  16.077  0.7452  3.4819 -2.8653
 4298TIP3   OH234308   6.654   2.828   1.576  0.0309  0.4618  0.0993
 4298TIP3    H134309   6.699   2.758   1.623 -3.0933 -0.1351  2.5624
 4298TIP3    H234310   6.655   2.902   1.636 -1.1011  0.8313 -0.3057
 4299TIP3   OH234311   4.505   2.604   2.615  0.7426  0.3319  0.0095
 4299TIP3    H134312   4.585   2.552   2.616  0.9519  0.4957 -2.4302
 4299TIP3    H234313   4.533   2.692   2.593  0.0520  0.8504  1.0693
 4300TIP3   OH234314   6.303   4.289   1.047 -0.1554 -0.3158 -0.0526
 4300TIP3    H134315   6.373   4.241   1.090 -1.7404 -1.2697  1.6004
 4300TIP3    H234316   6.283   4.361   1.107 -0.5600 -0.0401 -0.5096
 4301TIP3   OH234317   0.284   5.591  13.501  0.5108 -0.1098  0.1114
 4301TIP3    H134318   0.247   5.550  13.579  0.5091 -1.2848 -0.4774
 4301TIP3    H234319   0.309   5.678  13.529  0.8363 -0.6297  1.5153
 4302TIP3   OH234320   1.336   5.195   4.756 -0.3022  0.7201  0.2596
 4302TIP3    H134321   1.356   5.177   4.848  2.8581  2.3045  0.0093
 4302TIP3    H234322   1.262   5.255   4.760 -0.5737  0.3410  1.7437
 4303TIP3   OH234323   2.716   1.438  11.709 -0.1382 -0.1161 -0.5807
 4303TIP3    H134324   2.716   1.383  11.788  2.4437 -0.6894 -0.9090
 4303TIP3    H234325   2.750   1.380  11.640 -1.2380  0.7281 -1.8777
 4304TIP3   OH234326   0.363   0.316  12.664 -0.3910  0.0782 -0.0424
 4304TIP3    H134327   0.300   0.325  12.735 -0.5848  1.4496 -0.3675
 4304TIP3    H234328   0.312   0.284  12.590 -0.4692  0.0430  0.0275
 4305TIP3   OH234329   2.070   2.483   4.435  0.0770  0.4158  0.5196
 4305TIP3    H134330   2.138   2.546   4.458  0.2927 -0.9957  4.4505
 4305TIP3    H234331   2.113   2.398   4.445 -1.4003 -0.4341 -0.1974
 4306TIP3   OH234332   4.426   5.871   1.156 -0.0221  0.0086 -0.3895
 4306TIP3    H134333   4.355   5.817   1.190  0.2835 -1.2438 -1.6571
 4306TIP3    H234334   4.396   5.899   1.070 -0.0404  1.6645  0.1152
 4307TIP3   OH234335   6.008   5.325   5.522  0.6109  0.2369 -0.4991
 4307TIP3    H134336   5.965   5.404   5.489 -0.0502  0.0912  0.0204
 4307TIP3    H234337   5.980   5.256   5.462  1.1318  0.3650 -0.9094
 4308TIP3   OH234338   4.796   6.037  15.611 -0.0636  0.1499  0.3703
 4308TIP3    H134339   4.722   5.999  15.563 -2.3159  0.9687  2.9202
 4308TIP3    H234340   4.836   5.964  15.658  1.7941 -0.5533 -2.1030
 4309TIP3   OH234341   4.551   5.461  16.405  0.7395 -0.0452 -0.2628
 4309TIP3    H134342   4.557   5.399  16.477 -0.3051 -0.3792 -0.4416
 4309TIP3    H234343   4.628   5.444  16.351  0.8091 -0.7222  0.0506
 4310TIP3   OH234344   1.903   1.569  14.286  0.1988 -0.6120  0.4045
 4310TIP3    H134345   1.973   1.556  14.222  1.1957  0.9233  1.1356
 4310TIP3    H234346   1.930   1.521  14.363 -1.1071 -2.6419 -0.3194
 4311TIP3   OH234347   0.363   2.780   3.281  0.1868  0.2711  0.2600
 4311TIP3    H134348   0.272   2.764   3.258 -0.3898  2.3811  0.8406
 4311TIP3    H234349   0.398   2.831   3.208  1.1819 -1.1776 -0.3373
 4312TIP3   OH234350   1.079   6.152   1.344  0.3304 -0.3237 -0.4600
 4312TIP3    H134351   1.137   6.077   1.329 -0.3506 -1.1854  0.9586
 4312TIP3    H234352   0.993   6.123   1.314 -0.2234 -0.6631  1.3299
 4313TIP3   OH234353   5.996   3.570   4.166 -0.9234  0.1587  0.0349
 4313TIP3    H134354   6.086   3.597   4.188 -0.7611 -1.2687  1.2962
 4313TIP3    H234355   5.966   3.637   4.104 -0.1543  2.5059  2.0352
 4314TIP3   OH234356   3.569   0.649   2.482  0.0010  0.1421 -0.2873
 4314TIP3    H134357   3.520   0.729   2.503 -0.2566  0.3021 -1.4201
 4314TIP3    H234358   3.563   0.642   2.387 -0.2693 -1.4215 -0.1823
 4315TIP3   OH234359   5.666   3.524  13.475  0.1004 -0.8223 -0.4558
 4315TIP3    H134360   5.625   3.447  13.436 -0.2692 -0.9675  0.1962
 4315TIP3    H234361   5.711   3.491  13.552 -1.4972 -0.1641  0.8172
 4316TIP3   OH234362   4.704   1.071  12.101 -0.1837  0.4621 -0.0280
 4316TIP3    H134363   4.795   1.094  12.121  0.3096 -2.4471  1.7545
 4316TIP3    H234364   4.711   1.006  12.031 -0.8792  0.2852  0.0587
 4317TIP3   OH234365   3.277   2.901   6.475 -0.3735 -0.6680 -0.6979
 4317TIP3    H134366   3.349   2.877   6.533  1.2632  2.0272 -1.4093
 4317TIP3    H234367   3.207   2.929   6.534  0.4831  0.0370  0.0084
 4318TIP3   OH234368   2.030   0.865   6.062  0.1157 -0.3829  0.6078
 4318TIP3    H134369   2.093   0.814   6.113 -1.9751 -3.6405  0.2881
 4318TIP3    H234370   2.057   0.853   5.971 -0.5547 -1.3007  0.5104
 4319TIP3   OH234371   1.511   3.968   5.012 -0.0740  0.6059 -0.0916
 4319TIP3    H134372   1.480   3.882   5.040  4.5765 -0.6460  2.2081
 4319TIP3    H234373   1.479   4.028   5.079  1.6283 -0.5046  1.8214
 4320TIP3   OH234374   1.178   3.288   6.527 -0.6179 -0.2612  0.5871
 4320TIP3    H134375   1.094   3.285   6.481 -0.2780 -1.6239  0.0160
 4320TIP3    H234376   1.163   3.348   6.600 -1.7259  0.4681 -0.2089
 4321TIP3   OH234377   5.486   0.155  10.919 -0.3322  0.5552 -0.0109
 4321TIP3    H134378   5.513   0.186  11.006 -1.0575  0.3236  0.3041
 4321TIP3    H234379   5.503   0.230  10.862 -0.1565  0.8278  0.3891
 4322TIP3   OH234380   1.054   6.569   4.298  0.2251  0.8362 -0.0072
 4322TIP3    H134381   0.963   6.560   4.268  0.2379 -2.4882  0.5599
 4322TIP3    H234382   1.048   6.569   4.393  0.8365 -0.2529  0.0431
 4323TIP3   OH234383   5.896   4.465  13.014 -0.1760 -0.0103  0.4351
 4323TIP3    H134384   5.893   4.449  13.108  3.5004  0.2912  0.7451
 4323TIP3    H234385   5.951   4.395  12.980  1.1099  1.5925 -0.9637
 4324TIP3   OH234386   1.772   0.619  15.609  0.1422 -0.2574 -0.8486
 4324TIP3    H134387   1.700   0.678  15.630  1.2487  0.9775 -0.3570
 4324TIP3    H234388   1.730   0.535  15.590 -1.2826 -0.1710  1.5261
 4325TIP3   OH234389   1.453   4.122  15.574 -0.0085  0.2088  0.2834
 4325TIP3    H134390   1.378   4.136  15.632 -1.1100  1.7076 -1.4007
 4325TIP3    H234391   1.462   4.204  15.526  1.6516 -0.5456 -0.8052
 4326TIP3   OH234392   0.715   1.306  10.798 -0.1774 -0.1026 -0.5291
 4326TIP3    H134393   0.784   1.338  10.856 -0.4631 -0.3768 -0.0319
 4326TIP3    H234394   0.761   1.284  10.716  0.8175 -2.7442  0.6296
 4327TIP3   OH234395   2.821   6.256   3.078 -0.0789 -0.7219  0.1035
 4327TIP3    H134396   2.729   6.272   3.058 -0.0707 -1.0499 -0.2106
 4327TIP3    H234397   2.854   6.208   3.003  0.2122 -1.0820  0.4537
 4328TIP3   OH234398   1.312   1.950   4.776  0.1021  0.3160  0.0470
 4328TIP3    H134399   1.246   2.019   4.764 -0.5586 -0.2303  0.4965
 4328TIP3    H234400   1.388   1.996   4.813  0.0991  1.0039 -0.7519
 4329TIP3   OH234401   6.019   2.146   3.544 -0.1020  0.4722 -0.2067
 4329TIP3    H134402   5.974   2.111   3.468  2.5069  0.3003 -1.8100
 4329TIP3    H234403   6.051   2.232   3.516 -0.4480  1.1141  1.2744
 4330TIP3   OH234404   4.616   0.161   4.347  0.1893 -0.5356  0.6529
 4330TIP3    H134405   4.540   0.166   4.289  0.4016 -0.3385  0.3940
 4330TIP3    H234406   4.656   0.248   4.343  0.1249 -0.4729  1.2036
 4331TIP3   OH234407   1.214   5.778   4.377  0.2391 -0.1114  0.2348
 4331TIP3    H134408   1.230   5.852   4.436 -1.2420  0.2976  0.1807
 4331TIP3    H234409   1.125   5.793   4.344 -0.2176 -2.0623  0.4291
 4332TIP3   OH234410   3.264   2.750   6.176 -0.0727  0.0206  0.0089
 4332TIP3    H134411   3.188   2.806   6.159  0.2224  0.2880 -0.4512
 4332TIP3    H234412   3.330   2.810   6.209 -0.0529 -0.2077  0.3809
 4333TIP3   OH234413   1.898   6.071  11.456  0.5207 -0.3254  0.1328
 4333TIP3    H134414   1.847   6.060  11.375  0.3552  0.8375  0.0566
 4333TIP3    H234415   1.982   6.105  11.426  0.5180 -0.0522  0.4314
 4334TIP3   OH234416   3.452   0.675   2.203  0.7078  0.5573 -0.5200
 4334TIP3    H134417   3.532   0.678   2.149  0.3587  0.5834 -1.0468
 4334TIP3    H234418   3.386   0.720   2.150  0.3697  0.6342 -0.0374
 4335TIP3   OH234419   4.112   2.461  12.898  0.0719 -0.1152 -0.0863
 4335TIP3    H134420   4.077   2.447  12.985 -0.1087  1.0583  0.0511
 4335TIP3    H234421   4.175   2.532  12.908  0.0723  0.0175 -0.8930
 4336TIP3   OH234422   3.673   0.456   2.673  0.2568 -0.0504 -0.4301
 4336TIP3    H134423   3.629   0.496   2.599 -0.8189 -0.1850  0.1095
 4336TIP3    H234424   3.699   0.529   2.729 -0.4152 -0.0133 -0.1507
 4337TIP3   OH234425   4.320   0.377   1.781 -0.4756  0.1991 -0.5612
 4337TIP3    H134426   4.335   0.447   1.844 -0.8235 -0.9919  0.9062
 4337TIP3    H234427   4.408   0.353   1.751 -0.1414 -0.3855  0.8153
 4338TIP3   OH234428   3.092   2.431   1.754 -0.3788 -0.1060 -0.4879
 4338TIP3    H134429   3.078   2.398   1.665  1.7647 -1.3734 -0.4016
 4338TIP3    H234430   3.163   2.494   1.745 -0.1320 -0.2611  0.3431
 4339TIP3   OH234431   1.715   6.551   5.383 -0.5058  0.5253  0.1004
 4339TIP3    H134432   1.757   6.605   5.450  0.1147  1.1550 -0.7648
 4339TIP3    H234433   1.632   6.523   5.422 -0.8066  2.0432  0.6053
 4340TIP3   OH234434   4.484   4.045  16.290  0.0022  0.3581 -0.1727
 4340TIP3    H134435   4.410   3.986  16.277 -0.0201  0.1524  0.8022
 4340TIP3    H234436   4.560   3.994  16.261 -0.1380  0.2586 -0.3703
 4341TIP3   OH234437   3.094   3.840   3.864  0.2977  0.4453 -0.3270
 4341TIP3    H134438   3.074   3.883   3.947  0.8684 -0.7446  0.4503
 4341TIP3    H234439   3.061   3.900   3.797 -0.7086  1.1431  0.7689
 4342TIP3   OH234440   0.364   6.528   4.529 -0.2980  0.2800  0.4080
 4342TIP3    H134441   0.428   6.580   4.480  0.2660 -0.5562  0.2502
 4342TIP3    H234442   0.415   6.490   4.601 -0.1648 -1.9487 -0.8022
 4343TIP3   OH234443   3.843   2.298   2.152 -0.3922 -0.9044  0.3544
 4343TIP3    H134444   3.873   2.338   2.234 -0.0364  0.6827 -0.5167
 4343TIP3    H234445   3.861   2.205   2.164  2.4180 -0.3847  0.9634
 4344TIP3   OH234446   1.883   3.672  14.551 -0.8672 -0.2133  0.4654
 4344TIP3    H134447   1.942   3.742  14.579 -0.3363 -1.0032  1.3860
 4344TIP3    H234448   1.918   3.643  14.467 -1.0515  0.5749  0.1133
 4345TIP3   OH234449   2.400   3.631  16.165 -0.0551 -0.1315 -0.0553
 4345TIP3    H134450   2.311   3.609  16.138  0.4523 -1.8113 -0.4532
 4345TIP3    H234451   2.389   3.677  16.248 -1.2612 -1.1038  0.3455
 4346TIP3   OH234452   2.831   5.175  11.285  0.2006 -0.3963 -0.4189
 4346TIP3    H134453   2.850   5.256  11.332 -1.4673 -1.0770  1.5597
 4346TIP3    H234454   2.749   5.144  11.323  0.7125 -2.9459 -1.2258
 4347TIP3   OH234455   3.236   4.600   3.688  0.8507  0.4182 -0.0706
 4347TIP3    H134456   3.163   4.572   3.633  1.0112  1.0726 -0.6304
 4347TIP3    H234457   3.211   4.572   3.776  0.7548 -0.9704 -0.5082
 4348TIP3   OH234458   3.128   1.489  16.825 -0.5330 -0.1372 -0.4518
 4348TIP3    H134459   3.132   1.438  16.744  0.1151 -0.4692 -0.2164
 4348TIP3    H234460   3.208   1.466  16.872  0.3212  1.9085 -0.8174
 4349TIP3   OH234461   0.372   0.112   1.140 -0.0008 -0.1226 -0.0615
 4349TIP3    H134462   0.331   0.146   1.219  0.0421 -2.0731  0.8610
 4349TIP3    H234463   0.301   0.072   1.090  0.2349 -0.3933 -0.1851
 4350TIP3   OH234464   4.954   4.984  17.116 -0.1166 -0.4891 -0.4600
 4350TIP3    H134465   4.888   4.951  17.054 -0.9313 -0.7555  0.5217
 4350TIP3    H234466   4.998   5.054  17.068 -0.1334 -1.2569 -1.6450
 4351TIP3   OH234467   4.634   0.957   5.532 -0.3168 -0.7964  0.4482
 4351TIP3    H134468   4.553   0.967   5.582  0.4164  1.0339  1.3750
 4351TIP3    H234469   4.674   0.878   5.567 -0.8421 -0.7089  1.2789
 4352TIP3   OH234470   0.569   2.630  12.547 -0.1859  0.2707  0.0466
 4352TIP3    H134471   0.587   2.717  12.513  1.2567 -0.1878 -0.4353
 4352TIP3    H234472   0.486   2.605  12.507  0.4818  0.5385 -1.5936
 4353TIP3   OH234473   2.630   6.369  13.571 -0.1435  0.1132  0.2655
 4353TIP3    H134474   2.712   6.319  13.567 -0.6646 -0.6879 -1.4118
 4353TIP3    H234475   2.648   6.448  13.522 -0.7319 -0.6623 -1.2457
 4354TIP3   OH234476   0.033   3.079  16.615  0.2624  0.2042  0.1490
 4354TIP3    H134477  -0.044   3.096  16.670 -1.7132 -0.1775 -2.2756
 4354TIP3    H234478   0.082   3.013  16.663 -0.9641  0.3905  1.7691
 4355TIP3   OH234479   6.601   1.823   5.994 -0.0335  0.3058 -0.1692
 4355TIP3    H134480   6.594   1.918   5.981 -0.8005  0.3325  0.3486
 4355TIP3    H234481   6.570   1.809   6.084  2.7358 -0.1340  0.8165
 4356TIP3   OH234482   1.287   4.807   5.586 -0.8183  0.3222 -0.5555
 4356TIP3    H134483   1.213   4.792   5.527  0.1077  1.0526 -1.9666
 4356TIP3    H234484   1.328   4.721   5.595 -1.2088  0.1235 -0.6219
 4357TIP3   OH234485   5.237   2.323  15.739  0.4162  0.0839 -0.1657
 4357TIP3    H134486   5.230   2.319  15.643 -1.0387 -0.6172 -0.0507
 4357TIP3    H234487   5.177   2.393  15.764  2.2873  1.6548  0.1286
 4358TIP3   OH234488   2.896   0.087  15.670  0.0962 -0.2905 -0.3666
 4358TIP3    H134489   2.966   0.026  15.647  0.4379 -0.0243 -0.0655
 4358TIP3    H234490   2.841   0.092  15.592  0.7884  0.0004 -0.8537
 4359TIP3   OH234491   0.408   6.417  17.538 -0.0129  0.4011 -0.3192
 4359TIP3    H134492   0.410   6.346  17.473  0.9706 -0.6005  0.7653
 4359TIP3    H234493   0.483   6.472  17.515  0.6913 -0.2806  0.2947
 4360TIP3   OH234494   3.446   4.307   1.348 -0.2607  0.5376 -0.9234
 4360TIP3    H134495   3.522   4.321   1.292  0.8096 -1.9235 -0.2493
 4360TIP3    H234496   3.459   4.366   1.423  1.5662 -0.5166 -0.3425
 4361TIP3   OH234497   4.743   3.616  17.587 -0.1446  0.3342  0.6252
 4361TIP3    H134498   4.777   3.576  17.667  2.9629 -1.1811 -1.2703
 4361TIP3    H234499   4.675   3.556  17.557  0.8849 -0.8170  0.5174
 4362TIP3   OH234500   5.726   1.939   1.355  0.2379 -0.0677 -0.4060
 4362TIP3    H134501   5.647   1.960   1.404  0.2703  0.8921 -0.7433
 4362TIP3    H234502   5.740   2.014   1.297  1.7432  0.0656  0.0848
 4363TIP3   OH234503   2.701   0.388  14.155 -0.4636  0.3776  0.3860
 4363TIP3    H134504   2.718   0.311  14.101  1.0681  0.0480  1.2836
 4363TIP3    H234505   2.649   0.354  14.228 -2.4625  0.8082 -0.7664
 4364TIP3   OH234506   0.124   5.954   5.564 -0.0357 -0.0899  0.4844
 4364TIP3    H134507   0.210   5.948   5.607  1.2718  1.5216 -1.6820
 4364TIP3    H234508   0.144   5.990   5.478 -3.0190  1.1430  0.2127
 4365TIP3   OH234509   3.645   3.853   1.323  0.3152 -0.4508  0.2509
 4365TIP3    H134510   3.670   3.782   1.382 -0.5880  1.3686  2.9914
 4365TIP3    H234511   3.713   3.919   1.335 -0.3004  0.2677 -0.1596
 4366TIP3   OH234512   0.291   1.770  16.191 -0.0754 -0.1618  0.1937
 4366TIP3    H134513   0.256   1.821  16.264  0.7242 -0.0379  0.5034
 4366TIP3    H234514   0.215   1.730  16.151 -0.3481 -2.4413  2.7377
 4367TIP3   OH234515   5.778   0.999  12.061  0.2117 -0.0787 -0.3836
 4367TIP3    H134516   5.725   1.075  12.037  0.7584 -0.5190 -3.3331
 4367TIP3    H234517   5.715   0.934  12.091 -0.4188  0.9147  0.5166
 4368TIP3   OH234518   2.554   3.354  13.896 -0.4617 -0.1396  0.9517
 4368TIP3    H134519   2.503   3.292  13.843  0.6011 -0.5542  0.3696
 4368TIP3    H234520   2.645   3.332  13.877 -0.0389  1.8181  0.4829
 4369TIP3   OH234521   2.892   5.435  16.623 -0.3626 -0.9782  0.3493
 4369TIP3    H134522   2.969   5.435  16.567 -0.4723  2.3407 -0.0207
 4369TIP3    H234523   2.832   5.496  16.581 -2.9140 -2.7922  1.0880
 4370TIP3   OH234524   5.142   4.995   3.863 -0.2206  0.0394  0.1645
 4370TIP3    H134525   5.197   4.944   3.923  0.1129 -0.5175 -0.6039
 4370TIP3    H234526   5.195   5.071   3.840 -0.3761  0.2893  0.6275
 4371TIP3   OH234527   0.616   3.596  14.131 -0.0987 -0.0812  0.0422
 4371TIP3    H134528   0.676   3.631  14.066  1.6611 -0.2669  1.4760
 4371TIP3    H234529   0.540   3.654  14.128  2.2712  3.4618  1.6963
 4372TIP3   OH234530   1.514   6.695   1.244  0.2889 -0.1273  0.2541
 4372TIP3    H134531   1.489   6.698   1.337  2.5645 -0.9940  0.9658
 4372TIP3    H234532   1.473   6.615   1.211 -1.6822  0.8914  0.0829
 4373TIP3   OH234533   1.933   2.504   1.421  0.7444 -0.5609 -0.3321
 4373TIP3    H134534   2.002   2.569   1.437  0.1452 -0.0608  0.3007
 4373TIP3    H234535   1.949   2.474   1.332  0.4175  1.2475 -1.0577
 4374TIP3   OH234536   2.755   6.421  16.027  0.1050 -0.0515 -0.2279
 4374TIP3    H134537   2.752   6.428  15.932 -2.4254  0.3807 -0.1757
 4374TIP3    H234538   2.742   6.327  16.045 -1.4022  0.1080 -0.3256
 4375TIP3   OH234539   5.733   3.790  12.327  0.1827  0.3429  0.1945
 4375TIP3    H134540   5.812   3.842  12.335  1.0860 -1.1041  1.2472
 4375TIP3    H234541   5.662   3.850  12.352  1.1384  1.1847  0.9714
 4376TIP3   OH234542   2.691   6.286   5.206 -0.0644 -0.2293  0.7913
 4376TIP3    H134543   2.722   6.201   5.175 -1.8809 -0.5345 -0.3396
 4376TIP3    H234544   2.766   6.344   5.196  0.0708 -0.8005 -2.3457
 4377TIP3   OH234545   4.119   4.756  11.720  0.5556  0.1968  0.8280
 4377TIP3    H134546   4.202   4.710  11.737  0.9428  0.9283  0.9915
 4377TIP3    H234547   4.144   4.828  11.663 -0.4634 -1.2767 -1.6336
 4378TIP3   OH234548   6.307   3.169  11.837  0.6151 -0.1242  0.3248
 4378TIP3    H134549   6.267   3.251  11.865  0.9036  0.9424 -2.1374
 4378TIP3    H234550   6.372   3.195  11.772  2.8000 -2.1016  1.5645
 4379TIP3   OH234551   5.494   0.276   5.366  0.1839 -0.2693  0.4871
 4379TIP3    H134552   5.587   0.298   5.356  0.6393 -1.5675  1.4770
 4379TIP3    H234553   5.490   0.181   5.353 -0.8228 -0.3951  1.4971
 4380TIP3   OH234554   1.244   0.443  12.875  0.1420  0.7729  0.4439
 4380TIP3    H134555   1.174   0.412  12.818  0.5710 -0.3135  0.4926
 4380TIP3    H234556   1.322   0.395  12.848  0.2603 -0.1471  2.2184
 4381TIP3   OH234557   0.960   6.174   2.422 -0.6204 -0.0236  0.2676
 4381TIP3    H134558   1.046   6.133   2.407 -0.6116  0.2845 -0.6187
 4381TIP3    H234559   0.970   6.220   2.505  0.7007  1.5283 -0.6828
 4382TIP3   OH234560   3.109   1.810   0.822 -0.2581  0.1929  0.0717
 4382TIP3    H134561   3.098   1.724   0.783 -0.8225  1.2982 -2.3817
 4382TIP3    H234562   3.147   1.793   0.908  1.0981 -2.3983 -0.9523
 4383TIP3   OH234563   5.880   3.876  16.908  0.0298  0.2895 -0.0464
 4383TIP3    H134564   5.844   3.881  16.820 -0.1969  0.5933  0.0626
 4383TIP3    H234565   5.942   3.803  16.905 -1.4645 -1.0196  0.0731
 4384TIP3   OH234566   2.523   3.788  14.405 -0.2398 -0.0027 -0.0238
 4384TIP3    H134567   2.539   3.785  14.499 -0.4979  1.2145  0.0846
 4384TIP3    H234568   2.608   3.810  14.367  0.1268 -1.6025 -0.2011
 4385TIP3   OH234569   2.129   6.649  11.992 -0.1122 -0.3454 -0.2151
 4385TIP3    H134570   2.174   6.699  11.923  1.8408  0.3137  1.4266
 4385TIP3    H234571   2.193   6.583  12.019 -0.5117 -0.0841  1.4730
 4386TIP3   OH234572   6.079   3.056  16.037 -0.0310  0.0243 -0.1784
 4386TIP3    H134573   6.004   2.998  16.026 -0.9111  0.9888  0.5500
 4386TIP3    H234574   6.119   3.060  15.950 -1.1786 -0.0319 -0.7209
 4387TIP3   OH234575   1.243   6.695   3.367  0.3156  0.3769  0.5031
 4387TIP3    H134576   1.317   6.669   3.312 -0.0180  1.3201 -0.4225
 4387TIP3    H234577   1.208   6.773   3.324 -2.7295 -1.3797 -0.4804
 4388TIP3   OH234578   3.335   6.341   5.684 -0.8387 -0.2905 -0.2128
 4388TIP3    H134579   3.424   6.375   5.683 -0.7286 -0.5802 -0.6142
 4388TIP3    H234580   3.334   6.278   5.756 -0.9430  0.2850  0.2966
 4389TIP3   OH234581   3.040   2.171   1.331 -0.0655 -0.3821 -0.2880
 4389TIP3    H134582   3.132   2.144   1.337  0.1614  0.5925  2.0582
 4389TIP3    H234583   3.022   2.210   1.417 -2.5602 -0.1535 -0.8528
 4390TIP3   OH234584   5.173   3.262   1.652  0.2120 -0.1302 -0.0391
 4390TIP3    H134585   5.265   3.264   1.623  0.4361  3.6116  0.3981
 4390TIP3    H234586   5.123   3.283   1.573 -0.0592  0.0323  0.1750
 4391TIP3   OH234587   2.412   5.957   0.326  0.5661  0.2971 -0.1553
 4391TIP3    H134588   2.435   5.870   0.358 -0.4339 -0.1992 -0.7198
 4391TIP3    H234589   2.492   5.990   0.284  1.2946  0.1440  1.0792
 4392TIP3   OH234590   2.515   2.919   2.974 -0.1722  0.1899 -0.2151
 4392TIP3    H134591   2.475   2.960   3.050 -0.0961 -0.7145  0.3317
 4392TIP3    H234592   2.442   2.905   2.913 -0.4082 -0.0051  0.1116
 4393TIP3   OH234593   3.433   1.880   5.916  0.1433  0.2872 -0.3927
 4393TIP3    H134594   3.442   1.853   5.825  2.2184 -2.9424  0.6053
 4393TIP3    H234595   3.370   1.818   5.953  0.6752  0.4194  0.7734
 4394TIP3   OH234596   5.470   0.918   4.128 -0.5325  0.1415  0.0478
 4394TIP3    H134597   5.432   1.005   4.136  0.9503  0.9253 -0.8920
 4394TIP3    H234598   5.501   0.897   4.216 -0.4246  0.8063  0.1753
 4395TIP3   OH234599   6.432   2.318  16.866  0.2301 -0.4084 -0.3723
 4395TIP3    H134600   6.414   2.268  16.945  1.2692  0.2939  0.3262
 4395TIP3    H234601   6.355   2.304  16.811 -0.2043 -1.4595  0.4704
 4396TIP3   OH234602   3.762   2.930  14.293  0.3673  0.4813 -0.2327
 4396TIP3    H134603   3.727   2.957  14.378  0.6690 -0.9637  0.3986
 4396TIP3    H234604   3.856   2.947  14.299 -0.0444  3.9694 -1.7691
 4397TIP3   OH234605   6.500   6.563   4.064  0.2785  0.3999  0.3492
 4397TIP3    H134606   6.452   6.554   3.982  0.1483 -0.0404  0.4684
 4397TIP3    H234607   6.437   6.603   4.124  0.3822  0.7480  0.2280
 4398TIP3   OH234608   3.816   5.609  13.761 -0.3647  0.7587  0.7586
 4398TIP3    H134609   3.855   5.525  13.784 -1.4503  0.3123  0.9955
 4398TIP3    H234610   3.727   5.588  13.734  0.2084  1.4829 -1.9958
 4399TIP3   OH234611   3.189   1.105   1.517  0.1898 -0.0716 -0.1278
 4399TIP3    H134612   3.249   1.087   1.444 -0.2704  0.0435 -0.5381
 4399TIP3    H234613   3.244   1.099   1.595  0.3677 -1.8851 -0.3422
 4400TIP3   OH234614   4.115   2.034  15.285  0.1862  0.2968  0.3829
 4400TIP3    H134615   4.080   1.956  15.243  0.5438  0.4464 -0.2056
 4400TIP3    H234616   4.040   2.072  15.332  0.1752 -0.7621  1.2516
 4401TIP3   OH234617   4.687   4.860   0.276 -0.1758  0.5342 -0.2507
 4401TIP3    H134618   4.769   4.862   0.227 -1.1444  2.0941 -1.9530
 4401TIP3    H234619   4.652   4.949   0.268 -2.1910 -0.1711  0.1066
 4402TIP3   OH234620   1.383   5.955   6.544 -0.1060  0.0279 -0.0467
 4402TIP3    H134621   1.399   5.967   6.451  0.4172  0.2278  0.0684
 4402TIP3    H234622   1.451   5.894   6.572 -2.4773 -3.1380 -0.5653
 4403TIP3   OH234623   0.641   2.038   3.771  0.5476 -0.2281  0.8108
 4403TIP3    H134624   0.571   2.099   3.797  0.1276 -0.0872 -0.5556
 4403TIP3    H234625   0.665   1.993   3.852  0.5301  1.4023  1.7631
 4404TIP3   OH234626   3.370   3.604  15.108 -0.8430 -0.1512 -0.0798
 4404TIP3    H134627   3.349   3.511  15.100 -1.6461 -0.0596  0.7598
 4404TIP3    H234628   3.285   3.649  15.105 -0.5608  0.4606  0.6150
 4405TIP3   OH234629   1.381   2.978   0.788 -0.0936  0.1940  0.0876
 4405TIP3    H134630   1.331   2.907   0.828 -1.6510  1.6534  0.8999
 4405TIP3    H234631   1.413   3.030   0.862  0.5807  0.6337 -0.4949
 4406TIP3   OH234632   2.415   2.985  14.754  0.7839 -0.4542 -0.1757
 4406TIP3    H134633   2.385   2.962  14.842  0.6676 -0.7902 -0.3016
 4406TIP3    H234634   2.335   3.006  14.706  0.7815 -0.9537 -0.3962
 4407TIP3   OH234635   4.502   2.457  13.557 -0.5760  0.5731  0.4641
 4407TIP3    H134636   4.409   2.438  13.544 -1.0830  1.8233  1.9074
 4407TIP3    H234637   4.535   2.479  13.470 -1.7176  0.4951  0.0019
 4408TIP3   OH234638   3.541   4.074  16.430  0.0393  0.2133 -0.5008
 4408TIP3    H134639   3.538   4.077  16.334  1.0954 -0.6578 -0.5754
 4408TIP3    H234640   3.560   3.983  16.451  0.7572  0.5748  0.5064
 4409TIP3   OH234641   0.028   3.972   0.763  0.0821  0.2606  0.2173
 4409TIP3    H134642  -0.038   3.994   0.697 -0.5288 -0.9118  0.4075
 4409TIP3    H234643  -0.011   4.000   0.846 -1.2580 -2.4054  0.6263
 4410TIP3   OH234644   1.528   1.868   3.320  0.0345 -0.2781 -0.3786
 4410TIP3    H134645   1.462   1.802   3.338  0.7944 -1.8925 -2.9762
 4410TIP3    H234646   1.488   1.951   3.346 -1.8805 -1.4948  0.7047
 4411TIP3   OH234647   4.679   2.601   5.786  0.2955  0.7430  0.5983
 4411TIP3    H134648   4.771   2.579   5.798  0.2634  0.0525 -0.3272
 4411TIP3    H234649   4.632   2.522   5.811  0.0325  0.6304 -0.2351
 4412TIP3   OH234650   1.312   2.769  12.645  0.3446  0.3801 -0.0634
 4412TIP3    H134651   1.302   2.736  12.555 -1.2018  0.5243  0.0193
 4412TIP3    H234652   1.277   2.858  12.642 -0.7857  0.0021  0.8918
 4413TIP3   OH234653   2.497   0.550  16.692  0.3382 -0.1714  0.1015
 4413TIP3    H134654   2.411   0.563  16.732 -0.3696  0.8805 -1.6497
 4413TIP3    H234655   2.479   0.502  16.611  1.1007  1.8057 -1.3172
 4414TIP3   OH234656   6.643   6.280  15.274 -0.1039 -0.0845  0.0372
 4414TIP3    H134657   6.631   6.210  15.338 -1.1373 -0.4326 -0.5226
 4414TIP3    H234658   6.563   6.279  15.222 -0.0363  1.3747 -0.1223
 4415TIP3   OH234659   0.802   5.323   0.947  0.1543 -0.2487  0.9485
 4415TIP3    H134660   0.751   5.338   1.027 -3.0926 -0.6752 -0.8630
 4415TIP3    H234661   0.815   5.229   0.944 -0.4598 -0.3266  0.5931
 4416TIP3   OH234662   4.330   2.574  14.482 -1.1102  0.4351  0.2143
 4416TIP3    H134663   4.375   2.528  14.553 -1.7093 -0.5372 -0.0201
 4416TIP3    H234664   4.400   2.615  14.432 -0.6902  1.3658  1.5013
 4417TIP3   OH234665   0.827   5.124   1.462 -0.0971  0.4124 -0.3911
 4417TIP3    H134666   0.786   5.150   1.545  0.4941  1.1884 -0.3259
 4417TIP3    H234667   0.834   5.029   1.467  0.1057  0.4649  0.5395
 4418TIP3   OH234668   0.630   3.482  12.267 -0.4907  0.0332 -0.2282
 4418TIP3    H134669   0.602   3.396  12.297 -0.2887  0.2077  0.4717
 4418TIP3    H234670   0.725   3.483  12.280 -0.5861  0.6344  0.4827
 4419TIP3   OH234671   0.586   2.013  15.327 -0.4096 -0.1881  0.3651
 4419TIP3    H134672   0.526   2.073  15.283  0.0226 -1.8365 -2.8055
 4419TIP3    H234673   0.670   2.029  15.285  0.2110 -1.4299  1.0828
 4420TIP3   OH234674   6.639   1.827   3.716  0.2545 -0.0861 -0.1819
 4420TIP3    H134675   6.575   1.870   3.773 -0.3722  0.6735 -1.4217
 4420TIP3    H234676   6.670   1.753   3.767 -0.7936  0.1783  0.8832
 4421TIP3   OH234677   0.970   1.872  13.351  0.1564 -0.2850 -0.1316
 4421TIP3    H134678   0.881   1.904  13.366  0.6203  0.3950  1.4726
 4421TIP3    H234679   0.971   1.785  13.390 -0.1469 -0.8430 -1.3371
 4422TIP3   OH234680   0.069   3.380  15.581  0.3456 -0.1735  0.5874
 4422TIP3    H134681   0.132   3.339  15.641  0.7052 -1.1654 -0.4341
 4422TIP3    H234682  -0.009   3.393  15.633  1.1166  0.2959  1.6575
 4423TIP3   OH234683   3.423   3.851   1.759  0.7494 -0.3511  0.0781
 4423TIP3    H134684   3.342   3.831   1.712  1.4111  2.3132 -2.4885
 4423TIP3    H234685   3.467   3.766   1.770 -0.0190 -1.2684 -3.1235
 4424TIP3   OH234686   6.652   2.114  13.500  0.0023 -0.1580  0.1035
 4424TIP3    H134687   6.593   2.040  13.481  1.7184 -1.6709  0.4167
 4424TIP3    H234688   6.740   2.077  13.490  0.9132  1.8331  0.4317
 4425TIP3   OH234689   0.240   5.066   6.090  0.1379  0.4839 -0.0908
 4425TIP3    H134690   0.290   5.143   6.119  0.5558  1.0007 -1.9799
 4425TIP3    H234691   0.275   4.994   6.141  0.1942  1.4420  1.2766
 4426TIP3   OH234692   3.362   2.050   3.676  0.1621 -0.4106 -0.5114
 4426TIP3    H134693   3.403   1.991   3.613 -1.7479 -0.4263 -1.8046
 4426TIP3    H234694   3.355   1.998   3.756  0.4902 -1.1978 -0.9813
 4427TIP3   OH234695   1.169   0.436   0.723  0.3423 -0.3270  0.3495
 4427TIP3    H134696   1.132   0.461   0.807  1.6111  0.5129  0.6890
 4427TIP3    H234697   1.260   0.413   0.743  0.8091  0.3923 -0.8565
 4428TIP3   OH234698   4.318   0.561  16.144  0.0377  0.3585  0.2999
 4428TIP3    H134699   4.366   0.550  16.226  0.6327 -0.0267 -0.0904
 4428TIP3    H234700   4.233   0.597  16.170  1.4017  3.5873  0.8397
 4429TIP3   OH234701   4.289   4.563  15.152 -0.6945 -0.4002  0.1960
 4429TIP3    H134702   4.247   4.588  15.070  0.4962 -1.2371 -0.6943
 4429TIP3    H234703   4.216   4.538  15.210 -1.4885 -0.8048 -0.9442
 4430TIP3   OH234704   2.438   0.790  12.514 -0.7877  0.3457 -0.2442
 4430TIP3    H134705   2.396   0.856  12.460 -0.0425  1.5876  0.6489
 4430TIP3    H234706   2.383   0.784  12.592 -0.6371  0.1894 -0.1485
 4431TIP3   OH234707   3.610   1.315   5.011 -0.3139  0.0808 -0.2026
 4431TIP3    H134708   3.686   1.282   4.963 -0.6732 -2.6720  0.9370
 4431TIP3    H234709   3.534   1.281   4.963 -0.6991 -0.9331  1.0548
 4432TIP3   OH234710   5.146   0.970   0.092  0.1480  0.2869  0.2448
 4432TIP3    H134711   5.140   0.903   0.025 -1.2335 -0.3943  0.9976
 4432TIP3    H234712   5.061   1.015   0.089  0.5442  1.0884  0.6707
 4433TIP3   OH234713   4.751   5.089  11.146  0.0075  0.3354 -0.0449
 4433TIP3    H134714   4.774   4.997  11.159  0.8169  0.3964 -0.9315
 4433TIP3    H234715   4.663   5.087  11.109 -0.7677  0.0157  1.6973
 4434TIP3   OH234716   6.117   6.690   4.437 -0.1891 -0.4810  0.4513
 4434TIP3    H134717   6.155   6.778   4.445 -1.4858 -0.0867  3.6717
 4434TIP3    H234718   6.024   6.705   4.419 -0.2931 -1.2384  0.3051
 4435TIP3   OH234719   2.638   1.466  12.135  0.1825  0.2159  0.3363
 4435TIP3    H134720   2.554   1.503  12.163 -0.9470 -0.0911 -2.3825
 4435TIP3    H234721   2.694   1.542  12.120 -0.4409  0.5804 -0.1999
 4436TIP3   OH234722   6.437   1.939  13.462 -0.0499 -0.0231 -0.1056
 4436TIP3    H134723   6.400   1.921  13.548  0.4432  0.6043  0.2477
 4436TIP3    H234724   6.379   1.894  13.401 -1.0437  0.4324  0.4751
 4437TIP3   OH234725   0.174   0.620  13.461 -0.2686 -0.0022  0.0547
 4437TIP3    H134726   0.261   0.628  13.501  2.0314 -1.0691 -4.1612
 4437TIP3    H234727   0.167   0.527  13.439 -1.4232  0.4526 -1.6707
 4438TIP3   OH234728   0.588   3.686   2.792  0.3912 -0.3416 -0.6802
 4438TIP3    H134729   0.635   3.603   2.790  3.3581  1.1248  1.2950
 4438TIP3    H234730   0.580   3.706   2.886 -1.3005  1.1023 -1.0775
 4439TIP3   OH234731   0.330   4.525  12.477 -0.1776  0.2668  0.0053
 4439TIP3    H134732   0.327   4.488  12.389 -1.4795  1.1440 -0.3505
 4439TIP3    H234733   0.418   4.560  12.486  0.3927 -0.9797 -0.4445
 4440TIP3   OH234734   4.317   0.790   1.541 -1.1871  0.6259  0.6580
 4440TIP3    H134735   4.384   0.748   1.595 -1.8378 -0.0161  0.9885
 4440TIP3    H234736   4.339   0.883   1.543 -0.4666  0.4530  0.9861
 4441TIP3   OH234737   0.954   1.924   4.027  0.6721 -0.3674 -0.0479
 4441TIP3    H134738   0.939   1.989   4.096  0.5906 -0.3746 -0.0585
 4441TIP3    H234739   1.041   1.889   4.045  0.8184 -0.0763 -0.1861
 4442TIP3   OH234740   3.045   0.781   3.850  0.3559 -0.0175 -0.9614
 4442TIP3    H134741   3.137   0.797   3.831  1.1750 -2.5839  0.4454
 4442TIP3    H234742   3.023   0.843   3.920  1.8163 -1.1148  0.5311
 4443TIP3   OH234743   1.789   4.697   2.489  0.2759  0.6215  0.4734
 4443TIP3    H134744   1.702   4.659   2.473  0.8017 -0.1396 -0.6621
 4443TIP3    H234745   1.827   4.706   2.402  2.3742 -1.5150  1.0768
 4444TIP3   OH234746   3.146   4.411   3.903  0.2792  0.3365  0.1894
 4444TIP3    H134747   3.131   4.376   3.815  0.4776  1.2147 -0.2032
 4444TIP3    H234748   3.098   4.352   3.961  2.2985 -1.8819 -0.2142
 4445TIP3   OH234749   0.002   6.654   2.828 -0.0486  0.0820  0.5815
 4445TIP3    H134750   0.020   6.695   2.913  1.5021 -0.8497  0.7408
 4445TIP3    H234751  -0.059   6.583   2.848 -0.5530  0.5391  0.7201
 4446TIP3   OH234752   6.336   2.704   5.163 -0.9106 -0.3399  0.3513
 4446TIP3    H134753   6.341   2.636   5.095 -0.9416  0.2313 -0.2284
 4446TIP3    H234754   6.243   2.728   5.166 -0.5318  1.7094 -1.5084
 4447TIP3   OH234755   0.668   4.889  17.474  0.6671  0.0799 -0.5274
 4447TIP3    H134756   0.645   4.928  17.558  0.4592 -0.7911 -0.1716
 4447TIP3    H234757   0.617   4.938  17.409  0.1297  0.1460 -0.0533
 4448TIP3   OH234758   2.720   1.435   6.150 -0.1443  0.4999 -0.0468
 4448TIP3    H134759   2.802   1.484   6.155  0.0348  0.1090  1.4738
 4448TIP3    H234760   2.673   1.459   6.230 -1.0290 -0.1313 -0.3558
 4449TIP3   OH234761   1.382   6.650   0.192 -0.0576 -0.5043 -0.6741
 4449TIP3    H134762   1.467   6.680   0.223  0.0013 -2.0838  0.7609
 4449TIP3    H234763   1.323   6.660   0.267 -1.1103  0.3428 -1.5721
 4450TIP3   OH234764   2.731   2.914  13.311  0.2847 -0.1613  0.0565
 4450TIP3    H134765   2.646   2.954  13.293  0.3932 -0.1992 -0.5837
 4450TIP3    H234766   2.716   2.820  13.300  0.7276 -0.0748 -1.5148
 4451TIP3   OH234767   5.226   5.336  13.988 -0.8096  0.0061  0.6611
 4451TIP3    H134768   5.190   5.424  13.984  0.7250  0.6268 -1.1849
 4451TIP3    H234769   5.229   5.307  13.897  1.3769 -0.7736  0.9175
 4452TIP3   OH234770   4.907   5.612  16.691  0.2041  0.2817  0.4781
 4452TIP3    H134771   4.880   5.598  16.600  2.5428 -1.5018 -0.0508
 4452TIP3    H234772   4.907   5.708  16.701  0.2949  0.5491 -1.5591
 4453TIP3   OH234773   2.022   6.559  14.268 -0.6891  0.5053  0.3229
 4453TIP3    H134774   2.081   6.629  14.297 -1.7422  1.0718  1.1685
 4453TIP3    H234775   1.995   6.515  14.349  1.7399 -2.4541 -0.2851
 4454TIP3   OH234776   1.388   3.537   5.908  0.2927  0.0911  0.3377
 4454TIP3    H134777   1.414   3.497   5.990 -0.1287  0.5469  0.6961
 4454TIP3    H234778   1.461   3.519   5.848 -0.4969 -2.4729  0.0404
 4455TIP3   OH234779   5.439   2.824   5.680 -0.2639  0.2891 -0.6025
 4455TIP3    H134780   5.378   2.840   5.608 -1.9575 -1.5253  0.3497
 4455TIP3    H234781   5.462   2.912   5.711 -0.2846  1.0835 -2.6391
 4456TIP3   OH234782   4.613   3.771   3.801  0.4935 -0.1505 -0.2729
 4456TIP3    H134783   4.596   3.770   3.895  1.5737  1.4646 -0.0251
 4456TIP3    H234784   4.702   3.806   3.792 -0.5916  2.5615 -1.9535
 4457TIP3   OH234785   2.609   2.754  12.664  0.0712  0.2401  0.6676
 4457TIP3    H134786   2.565   2.835  12.639  0.9291  0.6612  0.5273
 4457TIP3    H234787   2.678   2.742  12.599 -0.0385 -0.5998  0.6919
 4458TIP3   OH234788   4.588   3.473   3.649 -0.3291 -0.1143  0.4603
 4458TIP3    H134789   4.659   3.495   3.709  0.3317  0.0418 -0.3462
 4458TIP3    H234790   4.508   3.493   3.697  0.2042  1.2940  0.8257
 4459TIP3   OH234791   1.161   1.622   3.658  0.0869  0.1979 -0.6401
 4459TIP3    H134792   1.098   1.637   3.587  0.6731  0.2114 -1.1735
 4459TIP3    H234793   1.237   1.583   3.614  1.1718  1.8378 -0.3081
 4460TIP3   OH234794   5.645   1.963  12.811 -0.0731  0.0634 -0.7138
 4460TIP3    H134795   5.670   2.035  12.869 -0.9585  0.4748 -0.8157
 4460TIP3    H234796   5.586   2.003  12.747  0.1483 -0.5744 -1.3348
 4461TIP3   OH234797   3.789   4.505   1.560  0.0180  0.1750  0.2515
 4461TIP3    H134798   3.720   4.439   1.556  0.1919 -0.1806  2.1286
 4461TIP3    H234799   3.849   4.481   1.489 -0.4272 -1.1100  0.2834
 4462TIP3   OH234800   2.795   2.106   4.928 -0.3932 -0.2033 -0.2309
 4462TIP3    H134801   2.780   2.100   5.023 -1.3129 -0.5386 -0.3859
 4462TIP3    H234802   2.766   2.194   4.905  0.1521 -0.0029 -0.1430
 4463TIP3   OH234803   0.285   4.277  15.173 -0.5048  0.4615  0.1681
 4463TIP3    H134804   0.319   4.307  15.089 -1.4150 -1.9089 -1.1346
 4463TIP3    H234805   0.190   4.286  15.165 -0.7278 -1.4704  0.1688
 4464TIP3   OH234806   2.261   4.722  15.689 -0.0955 -0.2308  0.6762
 4464TIP3    H134807   2.235   4.666  15.615 -2.1127  2.0065 -0.4667
 4464TIP3    H234808   2.346   4.757  15.663 -0.2529 -0.3570 -0.0370
 4465TIP3   OH234809   3.708   4.356  17.017  0.2224 -0.1750 -0.2377
 4465TIP3    H134810   3.781   4.302  16.987  0.8263  1.1505 -1.2408
 4465TIP3    H234811   3.749   4.431  17.060 -0.5720  0.0047  0.2175
 4466TIP3   OH234812   5.795   2.036   1.090  0.1580 -1.0603  0.2527
 4466TIP3    H134813   5.802   1.999   1.002 -1.3130  0.4852 -0.5968
 4466TIP3    H234814   5.864   2.102   1.093 -0.9745  0.2323 -0.5384
 4467TIP3   OH234815   1.507   0.474  16.802 -0.4592 -0.3160 -1.1067
 4467TIP3    H134816   1.449   0.485  16.727 -1.5042 -0.5416 -0.3621
 4467TIP3    H234817   1.524   0.380  16.806 -0.7126 -0.3541 -0.8524
 4468TIP3   OH234818   6.553   0.131  14.192 -0.7923 -0.1008 -0.6631
 4468TIP3    H134819   6.470   0.162  14.156 -1.6749 -1.3967  0.1417
 4468TIP3    H234820   6.595   0.084  14.119 -1.2723 -0.3431 -0.7886
 4469TIP3   OH234821   5.753   5.662   0.434  0.1751 -0.4993  0.2752
 4469TIP3    H134822   5.840   5.674   0.473  0.5028  0.2414 -0.6293
 4469TIP3    H234823   5.705   5.608   0.497  0.8498  0.1987  1.4163
 4470TIP3   OH234824   6.571   0.227  12.239  0.0729  0.1800 -0.1954
 4470TIP3    H134825   6.534   0.243  12.325  0.9023  0.1798  0.1703
 4470TIP3    H234826   6.600   0.313  12.209  1.7014 -0.1004  0.4445
 4471TIP3   OH234827   5.989   5.650   6.270  0.0514 -0.5232 -0.9780
 4471TIP3    H134828   5.998   5.641   6.175  1.6539  0.1098 -0.9068
 4471TIP3    H234829   6.074   5.680   6.300 -0.7965  0.5130  0.5263
 4472TIP3   OH234830   6.376   0.798  17.382  0.1626 -0.4427  0.0080
 4472TIP3    H134831   6.455   0.852  17.376 -0.2936  0.4916  1.9253
 4472TIP3    H234832   6.405   0.718  17.424  0.2477 -0.4581 -0.0783
 4473TIP3   OH234833   3.544   4.736   2.222  0.0644 -0.0128 -0.5241
 4473TIP3    H134834   3.552   4.702   2.133  1.8169  0.1395 -0.4464
 4473TIP3    H234835   3.560   4.830   2.213  0.7634 -0.0761  0.0113
 4474TIP3   OH234836   0.238   2.378  16.726  0.5500  0.3847  0.0681
 4474TIP3    H134837   0.170   2.318  16.757  1.0427 -0.8609 -1.1483
 4474TIP3    H234838   0.194   2.431  16.659  0.5506  0.1712 -0.1032
 4475TIP3   OH234839   0.534   4.075  11.448  0.0418 -0.2266 -0.4598
 4475TIP3    H134840   0.522   4.116  11.534 -0.2259  0.6300 -0.8881
 4475TIP3    H234841   0.446   4.072  11.411  0.3396  0.8564 -1.3199
 4476TIP3   OH234842   0.370   0.092   0.102 -0.0283 -0.7267  0.1349
 4476TIP3    H134843   0.337   0.066   0.188 -0.9289 -0.6038 -0.1629
 4476TIP3    H234844   0.442   0.153   0.121  0.7967 -1.8597  0.8094
 4477TIP3   OH234845   3.316   2.033   0.800 -0.4352  0.2357 -0.0527
 4477TIP3    H134846   3.372   2.016   0.724 -1.1974  0.8582 -0.7760
 4477TIP3    H234847   3.253   1.962   0.800 -0.3166  0.1293  0.1196
 4478TIP3   OH234848   2.062   1.457   0.955 -0.2548 -0.3382  0.1560
 4478TIP3    H134849   2.140   1.513   0.956 -1.3100  1.2150  0.0399
 4478TIP3    H234850   2.064   1.410   1.038 -1.1054  2.5386  1.9755
 4479TIP3   OH234851   2.427   2.878  13.151  0.5571  0.5702 -0.3686
 4479TIP3    H134852   2.444   2.910  13.239  0.4454 -0.3177 -0.0098
 4479TIP3    H234853   2.462   2.945  13.093  1.6017  0.6641  0.3476
 4480TIP3   OH234854   2.141   4.175   4.196 -0.1940  0.3724 -0.2605
 4480TIP3    H134855   2.165   4.241   4.131  1.1610  1.1632  0.9807
 4480TIP3    H234856   2.203   4.103   4.182 -0.2377  0.3182 -0.1797
 4481TIP3   OH234857   4.401   0.193  15.817 -0.0290  0.1109 -0.2556
 4481TIP3    H134858   4.427   0.231  15.901  0.2994  0.8745 -0.6959
 4481TIP3    H234859   4.349   0.261  15.775  0.2495 -0.0663 -0.8955
 4482TIP3   OH234860   4.430   0.708  12.025 -0.4936  0.6377 -0.2095
 4482TIP3    H134861   4.497   0.743  12.084 -1.5798 -0.5625  1.9018
 4482TIP3    H234862   4.410   0.621  12.061 -0.9657 -0.3461 -2.6422
 4483TIP3   OH234863   5.081   3.685  11.870  0.1154  0.7140 -0.2907
 4483TIP3    H134864   5.073   3.610  11.929  1.0962 -0.2353 -1.2949
 4483TIP3    H234865   5.004   3.739  11.888 -0.2332 -0.1643  0.9680
 4484TIP3   OH234866   4.486   0.895  12.447  0.2818 -0.1564 -0.0148
 4484TIP3    H134867   4.396   0.913  12.419  0.3902  1.0745  0.3984
 4484TIP3    H234868   4.502   0.956  12.518  1.9179  0.6130 -0.9831
 4485TIP3   OH234869   3.312   2.289  15.910 -0.0212  0.3988  0.6431
 4485TIP3    H134870   3.320   2.241  15.992 -0.1981  1.1901  1.1331
 4485TIP3    H234871   3.329   2.380  15.934  0.0210  0.6227 -0.2155
 4486TIP3   OH234872   1.750   2.327   5.809  0.3082  0.0642  0.0061
 4486TIP3    H134873   1.700   2.389   5.863 -0.1755 -0.3497  0.0447
 4486TIP3    H234874   1.828   2.308   5.861  0.0509 -0.0021  0.3708
 4487TIP3   OH234875   1.492   2.626   0.319  0.2708 -0.0350 -0.4072
 4487TIP3    H134876   1.522   2.682   0.248  0.0064  2.3853  1.2592
 4487TIP3    H234877   1.539   2.658   0.396 -2.1446 -0.0692  1.1805
 4488TIP3   OH234878   4.582   3.585  15.366 -0.8472 -0.3287 -0.0379
 4488TIP3    H134879   4.494   3.563  15.336 -1.3877 -1.2683  2.0417
 4488TIP3    H234880   4.594   3.676  15.340 -1.5809 -0.7749 -2.1740
 4489TIP3   OH234881   5.058   3.230   5.096 -0.0080  0.3559  0.4934
 4489TIP3    H134882   5.137   3.219   5.149  2.5204 -1.0311 -3.1657
 4489TIP3    H234883   5.049   3.325   5.087  3.0160  0.5862 -1.2200
 4490TIP3   OH234884   1.031   6.103  11.322  0.4358  0.2294 -0.0967
 4490TIP3    H134885   1.058   6.014  11.298  2.5466  0.8934 -0.4645
 4490TIP3    H234886   1.025   6.149  11.238 -0.3012  0.5368  0.1183
 4491TIP3   OH234887   1.319   1.938   0.726 -0.5166 -0.2065 -0.2851
 4491TIP3    H134888   1.278   1.934   0.640 -0.7641  1.4899 -0.2897
 4491TIP3    H234889   1.413   1.945   0.708 -0.3978 -1.7833 -0.3437
 4492TIP3   OH234890   3.415   2.827   4.318 -0.0793 -0.0808  0.4701
 4492TIP3    H134891   3.440   2.917   4.339  0.6921 -0.3350  0.6781
 4492TIP3    H234892   3.390   2.830   4.226 -0.1367  0.3652  0.4994
 4493TIP3   OH234893   5.557   2.398  13.281 -0.0223  0.0550 -0.1774
 4493TIP3    H134894   5.471   2.413  13.243  0.0085 -0.4145 -0.4284
 4493TIP3    H234895   5.578   2.307  13.261  0.5700  0.1854 -0.1904
 4494TIP3   OH234896   5.825   0.250  15.176  0.0891  0.1771 -0.1504
 4494TIP3    H134897   5.856   0.330  15.132 -0.4031  0.2693 -0.3458
 4494TIP3    H234898   5.863   0.179  15.125 -0.7866  0.2809 -0.9763
 4495TIP3   OH234899   1.609   4.555  11.982 -0.3836 -0.0769  0.6796
 4495TIP3    H134900   1.642   4.621  11.922  0.8256 -0.4390  0.9321
 4495TIP3    H234901   1.514   4.568  11.982 -0.2956  0.6533 -0.4370
 4496TIP3   OH234902   5.766   2.370  16.159  0.4539  0.3221  0.5838
 4496TIP3    H134903   5.769   2.397  16.251 -0.1463  1.1995  0.3629
 4496TIP3    H234904   5.715   2.439  16.116  0.5092 -0.2131 -0.3606
 4497TIP3   OH234905   1.700   5.124  14.096 -0.3051 -0.3936 -0.1092
 4497TIP3    H134906   1.669   5.053  14.039 -0.3430 -0.7356  0.3280
 4497TIP3    H234907   1.675   5.204  14.051  3.0145 -0.5077 -2.5638
 4498TIP3   OH234908   3.299   0.643  14.724  0.5740 -0.0767  0.4084
 4498TIP3    H134909   3.334   0.583  14.658  0.8770  0.9174 -0.3435
 4498TIP3    H234910   3.204   0.643  14.709  0.6780  0.4352 -0.2804
 4499TIP3   OH234911   2.127   6.239  12.955  0.0591  0.1872 -0.1970
 4499TIP3    H134912   2.080   6.247  13.038  1.7512  0.2550  0.8169
 4499TIP3    H234913   2.147   6.330  12.930  0.6859  0.1229  0.0372
 4500TIP3   OH234914   2.067   2.631   6.411  0.0484 -0.5256 -0.3277
 4500TIP3    H134915   2.131   2.701   6.398 -0.3747  0.8479  3.7412
 4500TIP3    H234916   1.983   2.676   6.411 -0.6888 -1.7841 -1.8893
 4501TIP3   OH234917   5.738   3.621  14.660  0.0755 -0.1945  0.0983
 4501TIP3    H134918   5.654   3.643  14.701  0.3591 -1.7045  1.6412
 4501TIP3    H234919   5.761   3.536  14.698  2.2470  0.1170 -0.3870
 4502TIP3   OH234920   4.996   0.842   4.654 -0.2317 -0.0409 -0.7913
 4502TIP3    H134921   5.009   0.847   4.559  1.2579 -0.7126 -0.6476
 4502TIP3    H234922   4.937   0.767   4.666  0.6061 -0.7702 -1.1201
 4503TIP3   OH234923   1.362   3.820   6.538  0.3659  0.1350  0.0189
 4503TIP3    H134924   1.453   3.803   6.514  0.1895  0.0355 -0.6092
 4503TIP3    H234925   1.340   3.901   6.493 -0.5147 -0.9840 -1.6875
 4504TIP3   OH234926   2.033   2.720  16.221  0.1861 -0.0171  0.4070
 4504TIP3    H134927   2.005   2.665  16.294  1.6840 -0.0640  0.9908
 4504TIP3    H234928   2.027   2.809  16.255  1.8148 -0.0886  0.9757
 4505TIP3   OH234929   5.059   1.808   1.560 -0.4638 -0.2478 -0.2303
 4505TIP3    H134930   4.968   1.823   1.589 -0.5327 -0.0976 -0.5180
 4505TIP3    H234931   5.076   1.717   1.582 -0.2311  0.0730  1.0418
 4506TIP3   OH234932   1.736   3.691   0.695  0.3427  0.1362 -0.1374
 4506TIP3    H134933   1.658   3.746   0.697  0.1503 -0.1551  1.3430
 4506TIP3    H234934   1.808   3.753   0.680  0.0219  0.6762  0.4890
 4507TIP3   OH234935   3.667   0.184   2.078 -0.6119 -0.3965  0.1547
 4507TIP3    H134936   3.747   0.227   2.050 -0.8920 -0.9061 -1.6168
 4507TIP3    H234937   3.664   0.195   2.173  0.7847  0.9032  0.0753
 4508TIP3   OH234938   4.733   2.265  15.369 -0.0000  0.5924 -0.0516
 4508TIP3    H134939   4.798   2.262  15.439 -0.5241 -1.1876  0.4137
 4508TIP3    H234940   4.660   2.212  15.401 -1.4111  1.9453 -0.8566
 4509TIP3   OH234941   6.203   6.633   3.569 -0.3700 -0.2131 -0.1998
 4509TIP3    H134942   6.148   6.704   3.600  2.1074  1.8699 -0.2454
 4509TIP3    H234943   6.188   6.630   3.475 -1.7199 -0.9587  0.0047
 4510TIP3   OH234944   1.579   3.448   3.646 -0.3800  0.2619  0.3537
 4510TIP3    H134945   1.661   3.493   3.665 -0.0978 -0.7464  1.6400
 4510TIP3    H234946   1.594   3.358   3.673 -1.8453  0.0141  0.4187
 4511TIP3   OH234947   3.844   3.012   4.242  0.8321 -0.1625  0.3982
 4511TIP3    H134948   3.937   3.031   4.231  0.6175  0.1703 -1.1184
 4511TIP3    H234949   3.801   3.098   4.243  0.5293 -0.3093  1.1314
 4512TIP3   OH234950   3.502   0.863   1.014  0.0755  0.0266 -0.0234
 4512TIP3    H134951   3.442   0.795   1.043  0.2884 -0.5875 -0.9671
 4512TIP3    H234952   3.587   0.819   1.010  0.3738  0.5798  0.1979
 4513TIP3   OH234953   5.042   3.888   3.621 -0.2075 -0.0291 -0.0176
 4513TIP3    H134954   5.095   3.965   3.641  1.1086 -1.6408  3.4524
 4513TIP3    H234955   5.098   3.835   3.565 -0.6523  0.9267 -1.4229
 4514TIP3   OH234956   4.312   6.170  17.302 -0.2711  0.4624 -0.1732
 4514TIP3    H134957   4.377   6.239  17.317  0.7813 -0.8292  1.5368
 4514TIP3    H234958   4.233   6.200  17.348  0.4495  0.1896  1.3000
 4515TIP3   OH234959   6.105   4.824  16.059 -0.4228  0.4621  0.0038
 4515TIP3    H134960   6.124   4.905  16.011  2.7534 -0.5880 -0.7768
 4515TIP3    H234961   6.171   4.821  16.128  0.1139 -1.8025 -0.5200
 4516TIP3   OH234962   1.232   5.338   2.895 -0.0063 -0.0453 -0.3792
 4516TIP3    H134963   1.266   5.324   2.807  0.9662 -0.8437  0.0954
 4516TIP3    H234964   1.229   5.250   2.933 -2.1404  0.0573 -0.2116
 4517TIP3   OH234965   1.043   5.542   3.906  0.5956  0.1649  0.0520
 4517TIP3    H134966   1.000   5.476   3.960  1.0904 -0.5174 -0.3711
 4517TIP3    H234967   0.985   5.618   3.911 -1.0718 -0.9578 -1.1098
 4518TIP3   OH234968   0.737   2.894   3.247 -0.3227 -0.3416  0.3011
 4518TIP3    H134969   0.728   2.923   3.337 -0.8074 -0.1971  0.2092
 4518TIP3    H234970   0.663   2.835   3.233  0.3855 -1.2701  0.3453
 4519TIP3   OH234971   1.286   4.331   2.042  0.4462  0.7296 -0.0006
 4519TIP3    H134972   1.277   4.416   1.998 -0.1165 -0.0810 -1.5228
 4519TIP3    H234973   1.270   4.267   1.973  1.6835 -0.6404  0.9298
 4520TIP3   OH234974   2.693   0.598  17.491  0.6864 -0.0623 -0.6017
 4520TIP3    H134975   2.777   0.579  17.449  0.0607 -0.9256 -1.5187
 4520TIP3    H234976   2.692   0.693  17.503  2.0676 -0.1198  0.0344
 4521TIP3   OH234977   1.020   4.320  13.991 -0.1150  0.9347  0.3255
 4521TIP3    H134978   0.935   4.280  13.970 -1.0493  1.8803  2.0449
 4521TIP3    H234979   1.070   4.250  14.033  0.7794 -0.2062 -2.4285
 4522TIP3   OH234980   5.268   2.789   5.881 -0.5122  0.7202  0.1726
 4522TIP3    H134981   5.343   2.805   5.824 -0.1759 -1.1004  0.0435
 4522TIP3    H234982   5.297   2.815   5.968  1.0985 -1.9130  0.5270
 4523TIP3   OH234983   6.545   5.724  11.020 -0.1594  0.0243 -0.1177
 4523TIP3    H134984   6.641   5.723  11.025 -0.2327 -1.0374  3.0973
 4523TIP3    H234985   6.525   5.667  10.945  1.7664 -3.5971  1.8145
 4524TIP3   OH234986   4.592   4.165   2.921  0.0857  0.0556 -0.3180
 4524TIP3    H134987   4.626   4.076   2.912  0.0441 -0.0489  0.4544
 4524TIP3    H234988   4.635   4.199   3.000  0.6889  0.9999 -1.0332
 4525TIP3   OH234989   2.629   6.459   4.034  0.2705  0.2123  0.1165
 4525TIP3    H134990   2.645   6.522   4.104  1.7536  1.2757 -1.1122
 4525TIP3    H234991   2.551   6.411   4.062  0.6816  0.7628  2.3521
 4526TIP3   OH234992   3.535   5.574  13.772  0.0778 -0.2391 -0.3967
 4526TIP3    H134993   3.449   5.615  13.771 -0.1228 -0.4965  1.6748
 4526TIP3    H234994   3.530   5.509  13.842  2.2323  0.3751  0.4037
 4527TIP3   OH234995   4.629   4.281   1.280  0.4669  0.1228 -0.0226
 4527TIP3    H134996   4.689   4.334   1.229  2.2466 -0.6902  1.1363
 4527TIP3    H234997   4.681   4.250   1.355 -1.1910 -1.1897  0.6591
 4528TIP3   OH234998   2.089   4.365  13.576  0.1367  0.1039  0.1759
 4528TIP3    H134999   2.087   4.366  13.671 -1.3552  0.8258  0.1790
 4528TIP3    H235000   2.173   4.403  13.552 -0.0308  1.1604  1.2118
 4529TIP3   OH235001   0.604   0.272   1.035 -0.2095  0.2383 -0.3128
 4529TIP3    H135002   0.524   0.272   1.089 -1.7238  1.0827 -2.4342
 4529TIP3    H235003   0.650   0.352   1.060  0.0533 -0.2860  0.9745
 4530TIP3   OH235004   2.958   3.368   1.532  0.2537  0.3932  0.4934
 4530TIP3    H135005   2.976   3.349   1.624 -0.8536 -0.1246  0.6268
 4530TIP3    H235006   3.043   3.362   1.489  0.3202 -3.4978  0.7959
 4531TIP3   OH235007   1.138   2.487   3.211  0.1852 -0.3120  0.6966
 4531TIP3    H135008   1.088   2.444   3.281 -1.4253 -0.8147 -0.6770
 4531TIP3    H235009   1.099   2.574   3.204  1.8578  0.5712  1.8869
 4532TIP3   OH235010   3.405   5.956   3.408 -0.7015  0.0665 -0.4369
 4532TIP3    H135011   3.351   5.880   3.430  0.8221 -0.9066  0.0843
 4532TIP3    H235012   3.380   5.977   3.318 -3.5785  1.1221  0.4864
 4533TIP3   OH235013   4.460   0.435  14.106  0.2662  0.6007  0.5261
 4533TIP3    H135014   4.528   0.445  14.173 -0.5766  0.0484  1.4976
 4533TIP3    H235015   4.430   0.345  14.116  1.0650  0.0419 -1.5415
 4534TIP3   OH235016   1.314   1.675   3.351  0.5014  0.6964  0.0918
 4534TIP3    H135017   1.245   1.726   3.392 -0.5168 -0.7414  0.2368
 4534TIP3    H235018   1.269   1.602   3.309  1.6924  1.0159 -1.9131
 4535TIP3   OH235019   1.454   2.455   3.459 -0.4834 -0.8785 -0.3038
 4535TIP3    H135020   1.480   2.388   3.521  0.3944  0.2890  0.6369
 4535TIP3    H235021   1.529   2.464   3.400  0.1647  0.4920  0.6734
 4536TIP3   OH235022   3.199   3.749  15.446 -0.5442 -0.5065 -0.4021
 4536TIP3    H135023   3.111   3.784  15.458 -0.3768  0.0285 -0.7435
 4536TIP3    H235024   3.238   3.803  15.378  0.5193  0.1148  0.6588
 4537TIP3   OH235025   6.698   5.572   6.361 -0.7160 -0.1452 -0.1391
 4537TIP3    H135026   6.766   5.616   6.308  0.7554 -0.9013  1.0517
 4537TIP3    H235027   6.616   5.594   6.317  0.3643  0.0269 -2.1888
 4538TIP3   OH235028   5.601   3.851   1.626 -0.5870  0.1691 -0.1144
 4538TIP3    H135029   5.680   3.811   1.663  0.5709  0.8004 -1.7862
 4538TIP3    H235030   5.533   3.834   1.691  0.7696 -0.9650  1.0789
 4539TIP3   OH235031   6.517   6.019   0.481  0.9517 -0.0118 -0.4648
 4539TIP3    H135032   6.581   6.069   0.532  0.5568 -0.1055  0.1375
 4539TIP3    H235033   6.484   5.954   0.542  0.9169 -0.5290 -1.0276
 4540TIP3   OH235034   6.640   0.864   2.415  0.3878  0.0256 -0.3869
 4540TIP3    H135035   6.670   0.773   2.417  0.0422 -0.1010 -0.8637
 4540TIP3    H235036   6.692   0.908   2.483  1.1483 -0.3456 -0.7131
 4541TIP3   OH235037   6.179   5.323   4.048  0.4275 -0.6143 -0.2151
 4541TIP3    H135038   6.169   5.342   3.954  1.3665 -0.4346 -0.2895
 4541TIP3    H235039   6.226   5.399   4.083 -2.2693  0.6441  0.9665
 4542TIP3   OH235040   5.841   0.331   1.419 -0.3854 -0.1854 -0.5031
 4542TIP3    H135041   5.903   0.394   1.455  0.6511 -0.0296 -2.4154
 4542TIP3    H235042   5.895   0.273   1.364 -1.4340 -2.2007  0.4637
 4543TIP3   OH235043   0.462   2.035   0.717 -0.0600 -0.0828  0.2873
 4543TIP3    H135044   0.449   1.950   0.675  0.2814 -0.0098  0.0245
 4543TIP3    H235045   0.436   2.098   0.650  0.9183  0.0481  0.0076
 4544TIP3   OH235046   2.251   0.436  11.784 -0.1199 -0.2604 -0.9764
 4544TIP3    H135047   2.275   0.369  11.719 -2.3951 -2.7141  0.5113
 4544TIP3    H235048   2.162   0.462  11.761 -1.0595 -1.3296  1.1211
 4545TIP3   OH235049   4.502   5.424  14.015  0.0568  0.3950  0.7620
 4545TIP3    H135050   4.595   5.421  14.037 -0.4738 -1.3378  3.1420
 4545TIP3    H235051   4.471   5.506  14.055  0.1971 -0.0221  1.7592
 4546TIP3   OH235052   0.460   5.303  14.081 -0.1074  0.0365 -0.2614
 4546TIP3    H135053   0.379   5.349  14.061 -0.6566 -0.9949 -0.4737
 4546TIP3    H235054   0.447   5.214  14.048  0.8273 -0.3524  0.3485
 4547TIP3   OH235055   5.643   5.963   2.588  0.0505 -0.0413 -0.1061
 4547TIP3    H135056   5.594   6.038   2.554  0.9038  1.4916  1.8295
 4547TIP3    H235057   5.648   5.979   2.683  2.5182 -1.1714  0.0156
 4548TIP3   OH235058   1.693   2.098  14.223 -0.6655 -0.4880  0.2592
 4548TIP3    H135059   1.652   2.057  14.146  1.4312  0.3867 -1.4221
 4548TIP3    H235060   1.767   2.147  14.187  1.3253 -1.2691  3.0050
 4549TIP3   OH235061   2.105   5.295   2.902  0.2234 -0.1231  0.1553
 4549TIP3    H135062   2.065   5.232   2.963 -0.8467 -1.0934 -1.4741
 4549TIP3    H235063   2.053   5.374   2.913 -0.8297 -0.7072 -0.4030
 4550TIP3   OH235064   2.746   5.442  12.729 -0.2858 -0.2793  0.0864
 4550TIP3    H135065   2.707   5.357  12.704 -2.2457  0.2603  1.0942
 4550TIP3    H235066   2.738   5.495  12.650 -0.2917 -0.6286 -0.1516
 4551TIP3   OH235067   5.926   0.679   1.179  0.3080 -0.0707 -0.0926
 4551TIP3    H135068   5.991   0.610   1.191 -0.0715 -0.4622 -0.2548
 4551TIP3    H235069   5.883   0.687   1.265 -0.9884 -1.4215 -0.5766
 4552TIP3   OH235070   4.900   1.923  14.959  0.0829  0.0029 -0.0382
 4552TIP3    H135071   4.955   1.945  15.034 -0.2462 -1.2357  0.6033
 4552TIP3    H235072   4.812   1.954  14.983 -0.1213 -0.8287  0.3122
 4553TIP3   OH235073   5.677   5.712  16.641  0.1436 -0.5942 -0.0291
 4553TIP3    H135074   5.655   5.645  16.576 -0.3658  0.9475 -1.5306
 4553TIP3    H235075   5.596   5.763  16.650  1.1918  1.3554 -0.8947
 4554TIP3   OH235076   5.446   4.308  17.523  0.0322 -0.4914  0.2843
 4554TIP3    H135077   5.495   4.253  17.584 -0.3264  2.0133  3.0738
 4554TIP3    H235078   5.497   4.389  17.518 -1.5411  0.5049 -0.2759
 4555TIP3   OH235079   4.098   3.940  15.386 -0.5396  0.3305  0.1788
 4555TIP3    H135080   4.054   3.998  15.324  0.1477  0.5480 -0.1098
 4555TIP3    H235081   4.041   3.863  15.390 -0.2726  0.0285 -1.2349
 4556TIP3   OH235082   5.701   3.429   6.320 -0.2434  0.0783 -0.0557
 4556TIP3    H135083   5.671   3.357   6.376  0.0185 -0.3128 -0.4082
 4556TIP3    H235084   5.788   3.401   6.290 -0.5493  0.0960 -0.9763
 4557TIP3   OH235085   3.587   5.202  11.142  0.5924  0.2248  0.3120
 4557TIP3    H135086   3.561   5.267  11.208 -0.3396  1.3316 -1.0782
 4557TIP3    H235087   3.650   5.249  11.087  0.9639 -0.5208  0.0962
 4558TIP3   OH235088   4.534   3.951   2.083 -0.3586 -0.0737 -0.2010
 4558TIP3    H135089   4.562   4.041   2.100 -3.6283  1.3564 -1.5499
 4558TIP3    H235090   4.480   3.929   2.159  0.0359 -0.7258 -0.1078
 4559TIP3   OH235091   6.077   5.380   6.317 -0.2136 -0.0078  0.0252
 4559TIP3    H135092   6.018   5.455   6.318  1.0568  1.0309 -0.3694
 4559TIP3    H235093   6.128   5.388   6.398  2.2087  1.5063 -1.5157
 4560TIP3   OH235094   4.792   3.700   4.648  0.1039  0.6301 -0.0340
 4560TIP3    H135095   4.747   3.640   4.707  0.7638 -0.4742 -0.6200
 4560TIP3    H235096   4.722   3.738   4.595 -0.2784  0.0528  0.0485
 4561TIP3   OH235097   3.288   4.667  14.526 -0.1303 -0.2292  0.7291
 4561TIP3    H135098   3.240   4.656  14.608 -1.8596  0.4247 -0.1547
 4561TIP3    H235099   3.243   4.611  14.464  0.7152 -0.1613  0.0431
 4562TIP3   OH235100   3.888   5.585   5.218 -0.7394  0.0280 -0.1610
 4562TIP3    H135101   3.965   5.613   5.268  0.1454 -0.9817 -0.9060
 4562TIP3    H235102   3.843   5.523   5.274  0.4600 -1.3997 -0.6977
 4563TIP3   OH235103   6.526   1.210   1.124 -0.3405 -0.4522  0.2619
 4563TIP3    H135104   6.583   1.193   1.049 -0.1962 -1.9214  0.6753
 4563TIP3    H235105   6.439   1.183   1.096 -0.5386  0.2238  0.1989
 4564TIP3   OH235106   3.487   4.209   4.627 -0.5792 -0.2181  0.6252
 4564TIP3    H135107   3.479   4.114   4.627 -3.4657 -0.0967 -0.4824
 4564TIP3    H235108   3.486   4.234   4.719 -1.9634 -1.1947  0.9046
 4565TIP3   OH235109   0.682   4.844  12.546 -0.3827  0.4270  0.4291
 4565TIP3    H135110   0.612   4.838  12.612 -0.6869  1.5648  0.2340
 4565TIP3    H235111   0.763   4.835  12.597 -0.6226 -2.8188  0.4362
 4566TIP3   OH235112   3.537   6.289  12.219 -0.4598 -0.2319 -0.1682
 4566TIP3    H135113   3.619   6.289  12.169 -0.6644 -0.8260 -0.5169
 4566TIP3    H235114   3.496   6.205  12.198 -0.4910 -0.5560  1.1012
 4567TIP3   OH235115   3.191   4.157   4.268  0.2929  0.3748 -0.1447
 4567TIP3    H135116   3.212   4.250   4.277 -0.5369  0.6342 -0.7421
 4567TIP3    H235117   3.095   4.154   4.271  0.2236 -0.2495 -1.8191
 4568TIP3   OH235118   1.793   6.448   5.638  0.3933  0.3194  0.2554
 4568TIP3    H135119   1.714   6.404   5.606  0.5528  0.2082  0.0172
 4568TIP3    H235120   1.787   6.441   5.733  1.0164 -1.2650  0.2019
 4569TIP3   OH235121   2.163   6.198  15.157 -0.1614  0.0481  0.0765
 4569TIP3    H135122   2.218   6.174  15.083 -0.7205 -0.7210 -0.1087
 4569TIP3    H235123   2.200   6.280  15.190  1.9739 -1.1362  0.8401
 4570TIP3   OH235124   6.204   1.632   4.034  0.4989 -0.0082  0.0723
 4570TIP3    H135125   6.142   1.595   3.971  0.0800 -2.9762  2.0336
 4570TIP3    H235126   6.286   1.639   3.987  0.1056 -1.7643 -0.9423
 4571TIP3   OH235127   0.089   0.646   1.540 -0.2555 -0.2362 -0.4372
 4571TIP3    H135128   0.004   0.671   1.575 -0.5770 -1.8673  0.0221
 4571TIP3    H235129   0.152   0.683   1.601 -0.6874 -0.1947 -0.0101
 4572TIP3   OH235130   1.720   1.503   2.202 -0.1884  0.0643 -0.2262
 4572TIP3    H135131   1.805   1.516   2.161 -1.4669  0.8567 -2.8291
 4572TIP3    H235132   1.734   1.525   2.294  2.9472 -2.2319 -0.0045
 4573TIP3   OH235133   6.672   1.607  16.030 -0.2943 -0.1809 -0.3547
 4573TIP3    H135134   6.718   1.550  16.092 -2.2891  0.1145  1.4908
 4573TIP3    H235135   6.687   1.566  15.944  1.5985 -1.2243  0.4184
 4574TIP3   OH235136   1.605   1.682   0.168 -0.2109  0.1761  0.0223
 4574TIP3    H135137   1.693   1.664   0.199 -0.2174 -0.6670 -0.4007
 4574TIP3    H235138   1.557   1.600   0.182 -0.2566 -0.2153 -1.9966
 4575TIP3   OH235139   2.565   2.701   4.583  0.2024  0.6305  0.2499
 4575TIP3    H135140   2.548   2.654   4.501 -0.8147 -0.1113  0.8612
 4575TIP3    H235141   2.512   2.655   4.648  1.2905  0.9624  1.4126
 4576TIP3   OH235142   5.358   4.090  12.360 -0.0137 -0.2318  0.0583
 4576TIP3    H135143   5.349   4.173  12.313  0.4570 -0.3671 -0.2847
 4576TIP3    H235144   5.296   4.096  12.433  0.2766  0.5695  0.2502
 4577TIP3   OH235145   0.265   3.232   3.798  0.0086 -0.0195 -0.4371
 4577TIP3    H135146   0.231   3.169   3.862 -0.3000  0.2628 -0.3188
 4577TIP3    H235147   0.199   3.233   3.729 -0.1117  0.3606 -0.3175
 4578TIP3   OH235148   2.614   2.339  11.184  0.2805 -0.2438 -0.1988
 4578TIP3    H135149   2.557   2.340  11.261  0.7861 -3.4624  0.3453
 4578TIP3    H235150   2.702   2.353  11.219  0.2618  0.7029 -0.5191
 4579TIP3   OH235151   1.547   3.323  12.531  0.0071  0.5459 -0.2779
 4579TIP3    H135152   1.555   3.410  12.572  1.7029 -0.4930  1.8122
 4579TIP3    H235153   1.610   3.326  12.459  0.8980  0.7184  0.4832
 4580TIP3   OH235154   0.763   3.646  14.902  0.0532 -0.5325  0.2572
 4580TIP3    H135155   0.720   3.731  14.913 -0.4554 -0.8669  0.9664
 4580TIP3    H235156   0.746   3.622  14.811 -2.1073 -1.0578  0.7211
 4581TIP3   OH235157   0.356   3.600  12.307  0.6508 -0.6134  0.3230
 4581TIP3    H135158   0.426   3.541  12.336  0.9327  0.3452  1.7139
 4581TIP3    H235159   0.345   3.661  12.380  0.1890  0.8961 -0.9677
 4582TIP3   OH235160   2.988   3.536  11.504 -0.0442  0.8777 -0.5507
 4582TIP3    H135161   3.037   3.607  11.462  1.5530 -0.1071 -0.4432
 4582TIP3    H235162   3.036   3.457  11.481 -1.6142 -0.1683 -0.4251
 4583TIP3   OH235163   5.738   3.867   1.312 -0.3700  0.3235 -0.0355
 4583TIP3    H135164   5.826   3.843   1.282  0.0251  0.7818  0.7312
 4583TIP3    H235165   5.682   3.797   1.279 -0.0934  1.1163 -2.4160
 4584TIP3   OH235166   1.890   6.631   2.593  0.1930 -0.2722  0.3869
 4584TIP3    H135167   1.964   6.600   2.542  0.1520 -0.0845  0.2133
 4584TIP3    H235168   1.832   6.674   2.530 -1.4835 -2.9083  0.0011
 4585TIP3   OH235169   3.700   1.003  15.585 -0.3135 -0.5063  0.6851
 4585TIP3    H135170   3.676   1.021  15.676 -0.0800 -2.5307  1.1932
 4585TIP3    H235171   3.734   1.087  15.552  0.0304  0.1549  2.5967
 4586TIP3   OH235172   6.315   4.241   6.628  0.2225  0.9990 -0.3300
 4586TIP3    H135173   6.338   4.156   6.663  0.6618  0.5544 -1.6455
 4586TIP3    H235174   6.398   4.279   6.597 -0.0179  1.7384 -0.0988
 4587TIP3   OH235175   2.939   1.661   5.405 -0.6356  0.1870 -0.2902
 4587TIP3    H135176   2.908   1.683   5.493  1.3088 -1.8412  1.0205
 4587TIP3    H235177   2.865   1.618   5.363 -1.0402 -0.5349  1.0942
 4588TIP3   OH235178   6.624   3.981  15.507 -0.6407 -0.4081  0.3515
 4588TIP3    H135179   6.605   4.059  15.454  0.2248 -0.5731 -0.2118
 4588TIP3    H235180   6.620   4.013  15.598 -0.6230  0.2216  0.1377
 4589TIP3   OH235181   0.528   6.535  13.348  0.1555 -0.2097  0.8888
 4589TIP3    H135182   0.584   6.587  13.405  0.3705 -0.0937  0.5764
 4589TIP3    H235183   0.445   6.582  13.346  0.2860  0.0200  0.7672
 4590TIP3   OH235184   1.671   3.491   5.292 -0.3454 -0.5721 -0.0534
 4590TIP3    H135185   1.671   3.417   5.231  2.4409 -1.3885  0.7935
 4590TIP3    H235186   1.683   3.451   5.379 -1.0643  0.7479  0.6881
 4591TIP3   OH235187   5.234   6.105  12.480  0.1527 -0.5265 -0.1103
 4591TIP3    H135188   5.300   6.149  12.426 -0.6409  0.2562 -0.4877
 4591TIP3    H235189   5.163   6.086  12.418 -1.8753  2.6267  1.0134
 4592TIP3   OH235190   5.531   4.261  16.421  0.0423 -0.1675 -0.2164
 4592TIP3    H135191   5.490   4.286  16.504 -0.5756 -1.8024  0.0146
 4592TIP3    H235192   5.458   4.254  16.359  0.7214  3.3438 -1.6005
 4593TIP3   OH235193   2.212   6.593  11.454  0.1102 -0.4224 -0.4884
 4593TIP3    H135194   2.305   6.593  11.429 -0.2761  3.6821 -2.8110
 4593TIP3    H235195   2.173   6.525  11.400  1.5147 -1.2592 -0.5163
 4594TIP3   OH235196   4.140   0.507  15.445 -0.7302  0.3769  0.3759
 4594TIP3    H135197   4.045   0.520  15.437 -0.9499  1.3788  3.3618
 4594TIP3    H235198   4.171   0.584  15.491  1.4680 -0.2451  0.0462
 4595TIP3   OH235199   2.414   5.761  13.014  0.3481 -0.1303 -0.2029
 4595TIP3    H135200   2.499   5.767  13.057 -0.1584  2.2004  0.6355
 4595TIP3    H235201   2.367   5.695  13.065  0.1244  1.8264  2.3969
 4596TIP3   OH235202   1.929   3.534  15.572 -0.2294 -0.1466  0.6976
 4596TIP3    H135203   1.847   3.551  15.619 -0.3522 -0.0002  0.4291
 4596TIP3    H235204   1.909   3.461  15.514 -0.2279  0.0268  0.4788
 4597TIP3   OH235205   0.531   3.691   1.951  0.3645  0.5305  0.0095
 4597TIP3    H135206   0.601   3.627   1.935  0.1164  0.0247  0.8594
 4597TIP3    H235207   0.479   3.691   1.871 -0.3526 -1.2759  0.4353
 4598TIP3   OH235208   4.135   5.867  14.750  0.1973  0.3444  0.1007
 4598TIP3    H135209   4.108   5.896  14.837  1.0418 -0.0129  0.4932
 4598TIP3    H235210   4.056   5.827  14.712 -0.4150  1.2945  0.3465
 4599TIP3   OH235211   2.832   0.916   6.280 -0.1612 -0.5344  0.2351
 4599TIP3    H135212   2.853   0.822   6.282 -0.4126 -0.6390 -1.1911
 4599TIP3    H235213   2.917   0.959   6.270 -0.1631 -0.6921 -0.5052
 4600TIP3   OH235214   5.545   2.271  11.751  0.2298  0.0357  0.0248
 4600TIP3    H135215   5.537   2.204  11.684 -0.3680 -0.4994  0.6208
 4600TIP3    H235216   5.624   2.320  11.727  1.1319 -1.3773  0.0257
 4601TIP3   OH235217   1.674   2.439   0.997 -0.3468  0.1995 -0.4599
 4601TIP3    H135218   1.614   2.426   1.070 -0.0474  2.0909  0.1859
 4601TIP3    H235219   1.759   2.408   1.029 -0.2731  0.7765 -0.0704
 4602TIP3   OH235220   1.865   1.861   2.602 -0.3230 -0.0816 -0.7236
 4602TIP3    H135221   1.931   1.828   2.663 -0.3032 -0.4537 -0.9448
 4602TIP3    H235222   1.812   1.921   2.655  1.3010  1.6781 -0.9885
 4603TIP3   OH235223   5.319   5.976   3.704  0.2282  0.5196  0.4063
 4603TIP3    H135224   5.258   6.050   3.702 -2.0879 -1.2695  0.5389
 4603TIP3    H235225   5.303   5.930   3.622  1.8466  0.2715  0.1938
 4604TIP3   OH235226   4.316   3.447   0.277 -0.0048  0.5095  0.6479
 4604TIP3    H135227   4.359   3.532   0.284  1.4419  0.1137 -2.1519
 4604TIP3    H235228   4.228   3.468   0.245 -0.6949  1.0651  2.7391
 4605TIP3   OH235229   1.000   3.955  13.883 -0.3759 -0.2972 -0.6340
 4605TIP3    H135230   1.093   3.962  13.908 -0.6438  1.6245 -0.0509
 4605TIP3    H235231   1.001   3.899  13.805  1.4510  0.9037 -1.5457
 4606TIP3   OH235232   1.826   4.147  16.108  0.1192  0.4133 -0.4697
 4606TIP3    H135233   1.763   4.204  16.065 -0.9801  1.8755  2.7282
 4606TIP3    H235234   1.781   4.063  16.116 -0.4018  0.6885 -0.4821
 4607TIP3   OH235235   3.779   1.446  12.026 -0.0796 -0.1444 -0.6057
 4607TIP3    H135236   3.796   1.404  11.942 -0.0594  1.4327 -1.4066
 4607TIP3    H235237   3.712   1.391  12.067  0.1510 -1.1100 -1.4893
 4608TIP3   OH235238   3.674   4.992  16.218 -0.5093  0.4747  0.2201
 4608TIP3    H135239   3.610   4.977  16.288  0.1014  2.6502  1.3302
 4608TIP3    H235240   3.748   5.035  16.261  1.0607 -0.5289 -1.3257
 4609TIP3   OH235241   5.214   4.085   0.168 -0.5166 -0.0516  0.4331
 4609TIP3    H135242   5.253   4.026   0.103 -0.2734 -0.8710  1.3140
 4609TIP3    H235243   5.283   4.149   0.185  0.2448 -1.1332  1.5203
 4610TIP3   OH235244   2.513   1.233  13.611 -0.0689 -0.4030  0.6746
 4610TIP3    H135245   2.434   1.282  13.632  1.9174  3.3425  0.2558
 4610TIP3    H235246   2.545   1.271  13.529  2.3933 -1.3998  1.0714
 4611TIP3   OH235247   4.425   3.636   2.783  0.4838  0.0584 -0.3567
 4611TIP3    H135248   4.482   3.709   2.758  0.9045 -0.3467 -0.6046
 4611TIP3    H235249   4.482   3.576   2.830  0.1960 -0.2191 -0.3548
 4612TIP3   OH235250   3.618   5.804   1.178 -0.1197  0.2649  0.3493
 4612TIP3    H135251   3.680   5.736   1.203 -0.3142 -0.1408 -0.2335
 4612TIP3    H235252   3.541   5.756   1.147 -0.3263  0.7468  0.0997
 4613TIP3   OH235253   3.316   2.562  13.037  0.2660  0.3234  0.0396
 4613TIP3    H135254   3.314   2.491  12.974  2.6830  2.1634 -2.3410
 4613TIP3    H235255   3.232   2.606  13.027 -1.0693 -1.8001  1.2168
 4614TIP3   OH235256   4.983   6.562   3.974 -0.4408  0.4392 -0.1399
 4614TIP3    H135257   5.025   6.633   3.925 -0.8406  1.4228  0.8926
 4614TIP3    H235258   4.929   6.607   4.039 -1.5794 -0.8174 -0.1863
 4615TIP3   OH235259   3.192   1.638  13.647  0.0920 -0.6683 -0.0291
 4615TIP3    H135260   3.268   1.602  13.692  0.2422 -0.6737 -0.2875
 4615TIP3    H235261   3.133   1.563  13.635  0.1817 -0.7262 -0.1092
 4616TIP3   OH235262   0.543   6.711  16.282 -0.1824 -0.4569  0.2794
 4616TIP3    H135263   0.569   6.704  16.374 -0.2807 -1.8756  0.2213
 4616TIP3    H235264   0.447   6.710  16.284 -0.2309 -2.7107  0.0843
 4617TIP3   OH235265   3.815   0.252  15.266  0.3267 -0.1522  0.2285
 4617TIP3    H135266   3.762   0.289  15.194  1.2229  0.3389 -0.1954
 4617TIP3    H235267   3.849   0.329  15.312  1.5223 -0.4420 -0.1443
 4618TIP3   OH235268   3.376   0.781  17.574  0.2567 -0.2843  0.0599
 4618TIP3    H135269   3.363   0.781  17.479  3.0367 -4.4164 -0.5670
 4618TIP3    H235270   3.434   0.855  17.591 -2.4324  2.2006 -0.8872
 4619TIP3   OH235271   5.811   6.609  11.398 -0.0659 -0.0932  0.2900
 4619TIP3    H135272   5.833   6.661  11.475  2.2426 -1.9088  0.9984
 4619TIP3    H235273   5.826   6.518  11.426  0.7165 -0.8199 -2.2167
 4620TIP3   OH235274   3.612   6.255  15.938 -0.0634 -0.0114  0.1602
 4620TIP3    H135275   3.573   6.313  16.003 -0.8518 -0.9717  0.5679
 4620TIP3    H235276   3.705   6.280  15.936 -0.4717  1.6018 -0.0682
 4621TIP3   OH235277   1.758   2.745  15.035 -0.1272  0.0669 -0.0853
 4621TIP3    H135278   1.680   2.702  14.999 -0.3570  0.4450 -0.0415
 4621TIP3    H235279   1.818   2.673  15.055 -0.3345 -0.2032 -0.4287
 4622TIP3   OH235280   3.493   0.252  10.953  0.2523 -0.0286 -0.0550
 4622TIP3    H135281   3.434   0.179  10.936  0.0217  0.3801 -1.0933
 4622TIP3    H235282   3.436   0.327  10.970  0.4153  0.5050 -1.6396
 4623TIP3   OH235283   4.978   6.564  12.413 -0.0323  0.1156 -0.5793
 4623TIP3    H135284   4.920   6.602  12.479 -1.5532 -1.1493 -1.1111
 4623TIP3    H235285   4.983   6.471  12.436  0.4050 -0.1077 -1.5303
 4624TIP3   OH235286   2.614   4.130  14.451  0.1068  0.1040 -0.0567
 4624TIP3    H135287   2.521   4.149  14.439  0.2244  0.4024 -0.5291
 4624TIP3    H235288   2.631   4.057  14.391  0.3271  0.4908 -0.4619
 4625TIP3   OH235289   2.834   6.324  12.111 -0.1431  0.1986  0.6448
 4625TIP3    H135290   2.775   6.366  12.049  1.1439  1.2412  0.0854
 4625TIP3    H235291   2.789   6.331  12.195 -0.6825  1.2537  0.2898
 4626TIP3   OH235292   4.013   2.357  13.833 -0.1905 -0.2453 -0.0313
 4626TIP3    H135293   4.056   2.404  13.905  0.0641 -1.6167  0.7473
 4626TIP3    H235294   3.921   2.383  13.839 -0.1601 -0.2895  0.7626
 4627TIP3   OH235295   0.628   3.424   3.340  0.0173  0.5890  0.1471
 4627TIP3    H135296   0.685   3.391   3.270  1.6186  1.6901  0.8574
 4627TIP3    H235297   0.595   3.507   3.308  0.5179  0.9534  0.5445
 4628TIP3   OH235298   3.794   3.420   2.917 -0.4059  0.3040  0.2569
 4628TIP3    H135299   3.764   3.330   2.906  0.5259  0.1035 -0.8644
 4628TIP3    H235300   3.878   3.412   2.963  0.5930  0.4315 -1.4697
 4629TIP3   OH235301   6.121   5.303   1.662 -0.2955  0.5783 -0.3712
 4629TIP3    H135302   6.064   5.245   1.712 -0.3533  0.9869  0.0423
 4629TIP3    H235303   6.171   5.351   1.728  1.1696 -0.3888 -0.7329
 4630TIP3   OH235304   6.490   3.859  13.126 -0.5022  0.6261 -0.5485
 4630TIP3    H135305   6.461   3.852  13.035 -3.3245  1.1988  0.2076
 4630TIP3    H235306   6.484   3.953  13.144  0.2958  0.5405  0.1497
 4631TIP3   OH235307   1.981   2.427   1.948 -0.7217  0.4506 -0.1838
 4631TIP3    H135308   1.911   2.453   1.888 -0.6875  0.8565 -0.0520
 4631TIP3    H235309   2.061   2.431   1.895 -0.6400  1.1866 -0.0186
 4632TIP3   OH235310   4.628   6.716  14.525  0.1565  0.1987 -0.2254
 4632TIP3    H135311   4.691   6.676  14.465 -0.4917 -0.4044 -0.5227
 4632TIP3    H235312   4.583   6.782  14.472 -1.9344 -1.8136 -1.0911
 4633TIP3   OH235313   0.363   1.270   3.368 -0.7002  0.0664  0.2625
 4633TIP3    H135314   0.457   1.273   3.385 -0.6044  0.7776 -0.3563
 4633TIP3    H235315   0.340   1.178   3.377 -0.3560  0.1406  2.5522
 4634TIP3   OH235316   3.049   4.471  12.351 -0.4358  0.4766  0.3550
 4634TIP3    H135317   3.094   4.401  12.304  0.8698  0.3806  1.6569
 4634TIP3    H235318   2.959   4.439  12.362 -0.4201 -0.0527 -0.9009
 4635TIP3   OH235319   6.302   2.504   1.020 -0.3776  0.3127 -0.2406
 4635TIP3    H135320   6.330   2.442   0.952 -0.0783  0.4108 -0.2073
 4635TIP3    H235321   6.360   2.579   1.010  0.7102 -0.2965  1.1120
 4636TIP3   OH235322   0.770   3.540  12.598 -0.3955 -0.4982 -0.0344
 4636TIP3    H135323   0.800   3.534  12.507 -0.0276  1.6066 -0.1098
 4636TIP3    H235324   0.676   3.519  12.593 -0.9312  1.8605 -1.3467
 4637TIP3   OH235325   6.327   3.475   5.333  0.0342  0.6459 -0.4825
 4637TIP3    H135326   6.309   3.564   5.362 -2.1416 -0.2237  1.1511
 4637TIP3    H235327   6.377   3.436   5.405  1.8584  0.7726 -1.6173
 4638TIP3   OH235328   1.164   5.169   2.227 -0.3809 -0.1635  0.5073
 4638TIP3    H135329   1.181   5.194   2.317  0.0699 -2.0292  0.9948
 4638TIP3    H235330   1.070   5.177   2.216 -0.2829  1.5570  0.6240
 4639TIP3   OH235331   1.235   4.567   3.137  0.2566 -0.0254 -0.3357
 4639TIP3    H135332   1.284   4.599   3.212  0.9543  0.5423 -1.0121
 4639TIP3    H235333   1.288   4.495   3.102 -0.3733 -0.6985  0.0715
 4640TIP3   OH235334   5.758   1.979  11.963  0.1773 -0.0229  0.0872
 4640TIP3    H135335   5.787   1.968  12.054  1.6808  2.9070  0.0906
 4640TIP3    H235336   5.689   2.045  11.968 -0.5952 -0.7443 -0.8027
 4641TIP3   OH235337   2.672   4.800   2.325  0.6161  0.5353  0.5609
 4641TIP3    H135338   2.696   4.752   2.246 -0.0386  0.5222  0.3643
 4641TIP3    H235339   2.582   4.830   2.309  0.0317 -0.4542  1.7542
 4642TIP3   OH235340   0.081   5.450   0.577 -0.2717 -0.3860 -0.2744
 4642TIP3    H135341   0.079   5.546   0.576  1.1876 -0.3105  0.7409
 4642TIP3    H235342   0.162   5.429   0.624 -1.4807 -2.1217  1.1310
 4643TIP3   OH235343   5.028   3.508   5.065 -0.0728  0.6639 -0.4192
 4643TIP3    H135344   4.942   3.520   5.106 -0.3558  0.3989 -0.9328
 4643TIP3    H235345   5.073   3.592   5.078 -0.1444  0.5771  0.4560
 4644TIP3   OH235346   2.574   0.041   5.110 -0.2050  0.2022  0.0498
 4644TIP3    H135347   2.525   0.124   5.115  0.1282  0.3633  0.7119
 4644TIP3    H235348   2.599   0.022   5.200  0.5655 -0.1217 -0.2235
 4645TIP3   OH235349   1.205   2.191   1.489  0.3014 -0.3529 -0.4006
 4645TIP3    H135350   1.236   2.228   1.406  1.0137 -0.6906 -0.2919
 4645TIP3    H235351   1.176   2.103   1.466  0.6736 -0.5142 -0.2656
 4646TIP3   OH235352   5.641   1.400  16.258  0.1505  0.1877  0.1652
 4646TIP3    H135353   5.686   1.433  16.336 -0.7414  1.3915  0.1970
 4646TIP3    H235354   5.598   1.477  16.220 -1.3834 -0.7954 -0.1948
 4647TIP3   OH235355   6.100   1.883   4.157  0.5225  0.3979 -0.5605
 4647TIP3    H135356   6.038   1.874   4.229  1.1728  1.0571  0.0854
 4647TIP3    H235357   6.149   1.801   4.157  0.3743  0.3078 -0.3976
 4648TIP3   OH235358   2.870   4.407   4.335 -0.5003  0.2729 -0.4058
 4648TIP3    H135359   2.779   4.410   4.364 -0.3227  1.1228  0.0782
 4648TIP3    H235360   2.916   4.359   4.405 -0.1896  1.7655  0.4579
 4649TIP3   OH235361   3.852   4.494   5.657 -0.2982  0.0450  0.2442
 4649TIP3    H135362   3.917   4.557   5.688 -1.4218  1.2787  0.2315
 4649TIP3    H235363   3.881   4.410   5.692  0.7641  0.7176  1.0615
 4650TIP3   OH235364   1.245   3.126   1.680 -0.2437 -0.1824 -0.2512
 4650TIP3    H135365   1.274   3.105   1.769 -0.2753  2.0865  0.3528
 4650TIP3    H235366   1.150   3.117   1.683 -0.3185  0.6505  0.1936
 4651TIP3   OH235367   4.219   1.486   4.791  0.4466  0.0839  0.4386
 4651TIP3    H135368   4.271   1.415   4.754 -4.0552 -2.3334 -2.1418
 4651TIP3    H235369   4.174   1.447   4.866 -2.3953 -0.1265 -1.2454
 4652TIP3   OH235370   0.870   2.825  14.465  0.1821 -0.1570 -0.1506
 4652TIP3    H135371   0.951   2.858  14.427 -0.4105  1.6391  0.0760
 4652TIP3    H235372   0.882   2.837  14.560 -0.2698 -0.0876 -0.1016
 4653TIP3   OH235373   1.277   4.835  12.679  0.0953  0.2776 -0.1925
 4653TIP3    H135374   1.298   4.742  12.683 -1.3382 -0.0699 -0.0632
 4653TIP3    H235375   1.220   4.850  12.756  2.6992  1.9359  1.5791
 4654TIP3   OH235376   1.071   2.339   3.978  0.2676 -0.6282 -0.0876
 4654TIP3    H135377   0.997   2.314   4.034 -1.2090 -2.3981 -2.6599
 4654TIP3    H235378   1.124   2.259   3.972  0.5777 -0.3681 -0.9061
 4655TIP3   OH235379   6.288   5.487  17.144  0.4566  0.2563 -0.3216
 4655TIP3    H135380   6.225   5.416  17.134  2.0639 -1.1019 -1.4391
 4655TIP3    H235381   6.236   5.567  17.134 -1.4671 -0.7093  1.3298
 4656TIP3   OH235382   3.960   0.134  13.005 -0.2467  0.2997  0.5975
 4656TIP3    H135383   3.888   0.147  13.067  0.2751  1.8046  0.9365
 4656TIP3    H235384   4.038   0.131  13.059 -0.0081 -1.2263  0.2180
 4657TIP3   OH235385   6.517   6.356  14.008 -0.1679 -0.4431 -0.4760
 4657TIP3    H135386   6.568   6.405  14.073 -0.1472 -0.3686 -0.5483
 4657TIP3    H235387   6.445   6.414  13.986 -0.0274 -0.3600 -0.7178
 4658TIP3   OH235388   3.437   4.136   0.935  0.3057  0.5277  0.5022
 4658TIP3    H135389   3.531   4.119   0.937  0.2970  0.4039  2.5140
 4658TIP3    H235390   3.409   4.123   1.026 -1.3821  2.0255  0.2569
 4659TIP3   OH235391   3.819   1.205  12.524 -0.1342 -0.2625  0.1718
 4659TIP3    H135392   3.868   1.203  12.442  1.1190  1.5170  0.8220
 4659TIP3    H235393   3.783   1.294  12.529  0.8965  0.1011  2.1122
 4660TIP3   OH235394   6.407   2.638   5.455  0.2781  0.4517  0.1660
 4660TIP3    H135395   6.350   2.562   5.466 -0.1848  0.8983  0.8585
 4660TIP3    H235396   6.376   2.680   5.375  0.5975 -0.1282 -0.2758
 4661TIP3   OH235397   6.463   1.649   5.252  0.0628  0.1512 -0.2757
 4661TIP3    H135398   6.470   1.728   5.305  0.6549 -0.5346  0.7112
 4661TIP3    H235399   6.495   1.674   5.166 -0.5396  1.1937 -0.2054
 4662TIP3   OH235400   5.911   5.633  17.311  0.2843  0.1657  0.2083
 4662TIP3    H135401   5.820   5.626  17.339  0.5342 -2.1124  0.6275
 4662TIP3    H235402   5.941   5.717  17.346 -1.7001  1.0636 -0.1557
 4663TIP3   OH235403   3.345   6.539   4.656 -0.5060 -0.0956 -0.1980
 4663TIP3    H135404   3.284   6.581   4.596  0.6072  2.3843  0.2993
 4663TIP3    H235405   3.301   6.543   4.741 -0.7620 -0.7703 -0.2918
 4664TIP3   OH235406   5.752   0.391  17.373  0.1715  0.0394  0.0243
 4664TIP3    H135407   5.753   0.340  17.454  0.3470 -1.5568 -0.9365
 4664TIP3    H235408   5.838   0.433  17.370 -0.1094  0.7115  1.0130
 4665TIP3   OH235409   0.099   5.138   4.148  0.2019  0.3606  0.0190
 4665TIP3    H135410   0.125   5.080   4.220  1.5308  0.3001 -0.4839
 4665TIP3    H235411   0.033   5.195   4.186  0.7310  0.1877  1.2379
 4666TIP3   OH235412   5.694   6.264  11.888 -0.0669 -0.1585  0.3451
 4666TIP3    H135413   5.692   6.296  11.979 -0.4468  0.0270  0.2718
 4666TIP3    H235414   5.772   6.305  11.850  0.3578 -0.6007  0.7168
 4667TIP3   OH235415   0.098   0.944  11.062  0.5521  0.7067 -0.0653
 4667TIP3    H135416   0.018   0.901  11.033  1.2518 -1.7847  1.4030
 4667TIP3    H235417   0.092   0.944  11.158  2.8182 -0.7403  0.1547
 4668TIP3   OH235418   6.530   2.663   0.962  0.0321  0.0013 -0.0622
 4668TIP3    H135419   6.588   2.646   1.036  0.1832  2.3741  0.4346
 4668TIP3    H235420   6.565   2.743   0.922 -2.0606  0.7003 -0.6033
 4669TIP3   OH235421   2.490   3.841  12.790  0.2975 -0.0254  0.2592
 4669TIP3    H135422   2.582   3.831  12.817  0.4104 -0.9657 -0.3960
 4669TIP3    H235423   2.450   3.893  12.859  0.8665 -1.2593  1.5573
 4670TIP3   OH235424   6.346   2.348  15.051 -0.4602  0.0206  0.0423
 4670TIP3    H135425   6.261   2.345  15.006  0.5743 -2.3141 -1.9618
 4670TIP3    H235426   6.331   2.300  15.133 -1.4319  0.9775  0.4450
 4671TIP3   OH235427   0.685   4.536  11.284  0.5004 -0.0935  0.0938
 4671TIP3    H135428   0.604   4.544  11.334 -1.2421 -1.3703 -2.3285
 4671TIP3    H235429   0.716   4.447  11.303 -0.7409 -0.9905 -1.7064
 4672TIP3   OH235430   0.736   2.094  11.587  0.5736  1.2363 -0.6506
 4672TIP3    H135431   0.661   2.117  11.642  0.9786  0.6614  0.1623
 4672TIP3    H235432   0.702   2.095  11.497 -0.0830  2.2402 -0.3980
 4673TIP3   OH235433   5.802   4.028   2.953 -0.5252 -0.3841 -0.7243
 4673TIP3    H135434   5.725   4.045   2.900  0.5115  0.9573 -1.8753
 4673TIP3    H235435   5.844   3.953   2.910 -0.8472 -0.7239 -0.4564
 4674TIP3   OH235436   3.476   5.119   4.542 -0.5222 -0.5557  0.0278
 4674TIP3    H135437   3.402   5.126   4.482 -1.5107  1.0890  1.3608
 4674TIP3    H235438   3.448   5.166   4.621  2.5816  1.8987 -0.1003
 4675TIP3   OH235439   3.819   5.043  10.962  0.1966 -0.0029 -0.1257
 4675TIP3    H135440   3.840   5.102  11.034 -2.2164 -0.7865  1.3631
 4675TIP3    H235441   3.765   5.095  10.903  0.2146 -0.0133 -0.1511
 4676TIP3   OH235442   1.936   0.696  14.529 -0.6305 -0.3507 -0.4030
 4676TIP3    H135443   2.005   0.674  14.467 -0.6599 -0.6435 -0.3334
 4676TIP3    H235444   1.959   0.784  14.560 -0.1583 -0.5444 -0.2002
 4677TIP3   OH235445   3.842   6.109  14.754 -0.0949  0.0007  0.6463
 4677TIP3    H135446   3.802   6.094  14.839 -0.3788  0.4326  0.5903
 4677TIP3    H235447   3.769   6.128  14.696  0.1985  1.0586  0.5976
 4678TIP3   OH235448   0.352   6.247  15.444 -0.4231  0.1972  0.3172
 4678TIP3    H135449   0.355   6.157  15.478 -2.5924 -1.3092 -2.9911
 4678TIP3    H235450   0.262   6.275  15.460  0.2227  1.8329  1.2577
 4679TIP3   OH235451   1.924   5.636  13.602 -0.0301 -0.6582 -0.0283
 4679TIP3    H135452   1.877   5.701  13.549 -0.1486 -1.0545 -0.4118
 4679TIP3    H235453   2.012   5.634  13.563 -0.1054 -0.9192 -0.1889
 4680TIP3   OH235454   1.333   0.276  14.336 -0.1368 -0.6113  0.9527
 4680TIP3    H135455   1.246   0.243  14.312  0.3427 -0.3114 -1.4383
 4680TIP3    H235456   1.393   0.209  14.303  0.6433  0.5635 -0.1205
 4681TIP3   OH235457   1.544   5.339  17.267  0.2674 -0.3237  0.6528
 4681TIP3    H135458   1.528   5.247  17.287 -1.5433  0.0976  1.3457
 4681TIP3    H235459   1.578   5.376  17.348 -0.5179 -0.0535  0.8623
 4682TIP3   OH235460   1.664   1.072  12.573  0.3870  0.2796  0.2043
 4682TIP3    H135461   1.742   1.032  12.612  0.5696  1.7672  1.4826
 4682TIP3    H235462   1.656   1.156  12.618 -1.4713  0.5284 -0.5189
 4683TIP3   OH235463   1.939   2.508   3.695  0.0400 -0.3366 -0.2968
 4683TIP3    H135464   1.982   2.477   3.615 -0.7597 -2.0320 -0.1321
 4683TIP3    H235465   1.936   2.603   3.686  0.3503 -0.4583 -2.0914
 4684TIP3   OH235466   2.532   2.673   0.051 -0.5348 -0.5784  0.3001
 4684TIP3    H135467   2.518   2.742   0.115 -0.6562 -0.7690  0.4809
 4684TIP3    H235468   2.462   2.685  -0.013  1.3661  1.5639 -1.5440
 4685TIP3   OH235469   0.435   2.987   4.811  0.2318 -0.5871 -0.1799
 4685TIP3    H135470   0.440   3.022   4.722  0.9923 -1.8656 -0.6746
 4685TIP3    H235471   0.482   2.904   4.807  0.0356 -0.8149  1.3592
 4686TIP3   OH235472   0.298   5.642   3.086  0.3580  0.8313 -0.4535
 4686TIP3    H135473   0.303   5.702   3.011 -1.0878  0.7642 -0.6328
 4686TIP3    H235474   0.386   5.606   3.093  1.0651  2.4061 -0.8113
 4687TIP3   OH235475   0.247   3.879   4.922  0.1455 -0.0102  0.7940
 4687TIP3    H135476   0.339   3.905   4.925  0.3246 -0.2267 -1.2534
 4687TIP3    H235477   0.235   3.845   4.834 -1.4548 -1.7566  1.6312
 4688TIP3   OH235478   0.615   0.400   3.376 -0.4471  0.5624  0.1783
 4688TIP3    H135479   0.694   0.441   3.412  0.0623 -2.2274  2.6167
 4688TIP3    H235480   0.648   0.338   3.311 -0.8327  0.7987 -0.2509
 4689TIP3   OH235481   0.386   4.401  13.027 -0.0819  0.2551  0.1940
 4689TIP3    H135482   0.306   4.350  13.012 -1.2996  2.2773 -0.7236
 4689TIP3    H235483   0.406   4.439  12.941  1.5158  0.2971  0.5673
 4690TIP3   OH235484   4.000   1.114   5.385 -0.1383  0.0703 -0.5368
 4690TIP3    H135485   4.033   1.071   5.464 -1.1046 -0.6112 -0.4867
 4690TIP3    H235486   4.010   1.207   5.402  0.0458 -0.0842  0.2156
 4691TIP3   OH235487   6.141   0.947  14.139  0.0898  0.4033 -0.0297
 4691TIP3    H135488   6.162   0.946  14.232  0.5279  1.2483 -0.1120
 4691TIP3    H235489   6.098   0.863  14.123 -0.6824  0.5711  1.0878
 4692TIP3   OH235490   6.626   4.110  14.513  0.0800  0.5970 -0.2758
 4692TIP3    H135491   6.603   4.088  14.603  1.6298 -0.6793 -0.1488
 4692TIP3    H235492   6.711   4.154  14.520  0.5777 -0.1915 -1.1542
 4693TIP3   OH235493   1.081   6.625   3.911  0.4083  0.3865 -0.1374
 4693TIP3    H135494   1.003   6.570   3.920  1.7711 -1.7754 -0.6928
 4693TIP3    H235495   1.048   6.708   3.877 -1.6507 -0.4609 -0.3795
 4694TIP3   OH235496   2.696   6.112  16.576 -0.7516  0.0661 -0.5652
 4694TIP3    H135497   2.640   6.175  16.531 -2.7278 -0.2278  1.3398
 4694TIP3    H235498   2.663   6.027  16.548 -0.4809 -0.1194 -0.3221
 4695TIP3   OH235499   5.638   5.887  17.238 -0.4994 -0.0537 -0.1572
 4695TIP3    H135500   5.675   5.850  17.158  1.4168  0.0740  0.6089
 4695TIP3    H235501   5.589   5.964  17.209  0.7721  0.4054 -1.1558
 4696TIP3   OH235502   3.122   4.252   1.313  0.2436  0.7381 -0.0378
 4696TIP3    H135503   3.114   4.224   1.404 -0.0548 -0.2073 -0.3461
 4696TIP3    H235504   3.083   4.181   1.262 -0.9558  1.8912 -0.8204
 4697TIP3   OH235505   0.643   5.516  13.847  0.4050 -0.7562  0.2997
 4697TIP3    H135506   0.686   5.593  13.885  0.9051  0.2834 -2.1799
 4697TIP3    H235507   0.555   5.547  13.824  0.7807 -0.7078 -1.1959
 4698TIP3   OH235508   2.470   1.993   4.994  0.8540  0.0039  0.1169
 4698TIP3    H135509   2.539   1.943   5.038 -0.6238  0.0764  2.7006
 4698TIP3    H235510   2.404   1.929   4.970  1.6774 -0.0398 -2.1864
 4699TIP3   OH235511   1.908   5.475   3.442  0.2225 -0.2444  0.1972
 4699TIP3    H135512   1.912   5.419   3.520 -0.8865  1.4255  1.5119
 4699TIP3    H235513   1.870   5.557   3.473  0.9440  0.9365 -1.8599
 4700TIP3   OH235514   2.259   5.148   4.759 -0.6799 -0.5302 -0.0561
 4700TIP3    H135515   2.249   5.062   4.719 -0.0818 -0.4786 -0.3200
 4700TIP3    H235516   2.171   5.186   4.754 -0.7182 -0.6942 -0.9330
 4701TIP3   OH235517   2.815   4.496  14.174  0.5426  0.0388  0.6719
 4701TIP3    H135518   2.882   4.461  14.116  1.3161  2.5241 -0.0681
 4701TIP3    H235519   2.863   4.552  14.235 -0.5755 -0.3657  1.9654
 4702TIP3   OH235520   2.758   4.419   0.724  0.3150 -0.3895  0.4820
 4702TIP3    H135521   2.841   4.461   0.744 -0.5529  1.0507  1.2804
 4702TIP3    H235522   2.739   4.366   0.801 -0.5815  1.1238  1.3499
 4703TIP3   OH235523   4.233   0.389   1.510  0.2879  0.1787 -0.0754
 4703TIP3    H135524   4.304   0.437   1.468  0.7484  0.3125  0.8408
 4703TIP3    H235525   4.261   0.377   1.601 -0.1331 -1.2012 -0.0940
 4704TIP3   OH235526   3.991   1.141  16.044 -0.0578 -0.0536  0.1618
 4704TIP3    H135527   4.081   1.152  16.076 -0.4029  0.4076  1.0269
 4704TIP3    H235528   3.967   1.227  16.010 -0.8786  0.4671  1.8984
 4705TIP3   OH235529   4.139   0.891  12.839 -0.1798 -0.1887  0.3738
 4705TIP3    H135530   4.138   0.909  12.745  0.3621 -1.4479  0.1166
 4705TIP3    H235531   4.049   0.867  12.860 -0.7887  2.0331  0.6065
 4706TIP3   OH235532   2.162   3.974  14.851 -0.2673 -1.1045 -0.2948
 4706TIP3    H135533   2.180   3.896  14.904  1.1727 -0.4283  0.2918
 4706TIP3    H235534   2.142   3.940  14.764  2.0784 -2.1204 -0.5287
 4707TIP3   OH235535   2.929   2.591   4.099 -0.5440  0.0491  0.2595
 4707TIP3    H135536   3.014   2.558   4.070  0.1942  1.0372  1.2103
 4707TIP3    H235537   2.866   2.529   4.063  0.3474  0.6612 -2.6147
 4708TIP3   OH235538   3.962   1.498  14.670  0.8413 -0.4914  0.0648
 4708TIP3    H135539   4.026   1.451  14.617  2.0305  1.2372 -0.1265
 4708TIP3    H235540   3.997   1.587  14.676 -1.0464  0.2508  0.8238
 4709TIP3   OH235541   5.749   0.037  13.016  0.2053 -0.8794 -0.4032
 4709TIP3    H135542   5.827   0.026  12.961 -0.0784 -1.1268 -0.7664
 4709TIP3    H235543   5.723   0.128  13.002 -0.1699 -1.0848 -1.0993
 4710TIP3   OH235544   3.567   5.042   1.440  0.2206 -0.2264 -0.3271
 4710TIP3    H135545   3.567   5.032   1.535 -1.8759  1.8446 -0.0398
 4710TIP3    H235546   3.503   4.977   1.409 -2.9335  2.3092  0.2733
 4711TIP3   OH235547   4.466   1.204  15.140  0.1491  0.1136  0.2877
 4711TIP3    H135548   4.462   1.224  15.233  1.3074  1.4386  0.0908
 4711TIP3    H235549   4.375   1.194  15.113 -0.1784 -0.6927  1.6283
 4712TIP3   OH235550   5.888   1.753  14.159 -0.1843  0.2379 -0.0245
 4712TIP3    H135551   5.851   1.840  14.143  0.5666  0.6082  0.2274
 4712TIP3    H235552   5.849   1.726  14.243 -2.5637 -0.8626 -1.3776
 4713TIP3   OH235553   2.009   1.596  11.529 -0.0163 -0.2784  0.1781
 4713TIP3    H135554   2.003   1.506  11.560 -0.9960 -0.4573 -0.5175
 4713TIP3    H235555   1.923   1.616  11.494  0.8012  0.1984 -1.6743
 4714TIP3   OH235556   6.236   4.740   3.578 -0.0948  0.7766 -0.2667
 4714TIP3    H135557   6.264   4.648   3.576  1.6687  1.1832  1.8949
 4714TIP3    H235558   6.181   4.746   3.656  0.5642  1.7235  0.1377
 4715TIP3   OH235559   5.393   1.146  11.574 -0.0430  0.4320 -0.4531
 4715TIP3    H135560   5.326   1.213  11.589  0.7674  1.1774 -0.0640
 4715TIP3    H235561   5.375   1.079  11.639 -0.3519  0.6706 -0.2865
 4716TIP3   OH235562   5.638   3.801   2.724  0.1907 -0.2489  0.1418
 4716TIP3    H135563   5.577   3.823   2.795  0.4026 -0.4662  0.3975
 4716TIP3    H235564   5.630   3.873   2.662  0.7215  0.4547  0.8581
 4717TIP3   OH235565   4.524   4.375  17.086 -0.1445  0.5870  0.7339
 4717TIP3    H135566   4.437   4.362  17.048 -0.9108  3.1291  1.4273
 4717TIP3    H235567   4.509   4.376  17.181  0.6195  1.0247  0.8578
 4718TIP3   OH235568   4.511   5.828  15.206  0.3363  0.4771  0.1206
 4718TIP3    H135569   4.483   5.768  15.136 -0.2238  1.2071 -0.2974
 4718TIP3    H235570   4.603   5.844  15.188  0.3249  0.2565 -0.1548
 4719TIP3   OH235571   0.113   6.669  15.415  0.1623 -0.4791  0.0248
 4719TIP3    H135572   0.182   6.734  15.429  0.4452 -0.8217  0.2483
 4719TIP3    H235573   0.033   6.712  15.446  0.5825 -0.7636  1.6253
 4720TIP3   OH235574   4.225   0.694   1.138 -0.0012  0.8107  0.3643
 4720TIP3    H135575   4.282   0.638   1.191 -0.4868  0.9973  1.0982
 4720TIP3    H235576   4.236   0.782   1.175 -1.0880  0.7770  0.8047
 4721TIP3   OH235577   4.974   2.960  12.481 -0.4130 -0.4224 -0.0786
 4721TIP3    H135578   5.002   2.937  12.393  1.8330 -0.7769  0.6409
 4721TIP3    H235579   4.968   3.056  12.481  0.0324 -0.3901 -0.5201
 4722TIP3   OH235580   5.849   0.874   6.404  0.3435  0.4955 -0.4558
 4722TIP3    H135581   5.882   0.877   6.493 -0.9775  0.9380  0.0531
 4722TIP3    H235582   5.891   0.797   6.365  0.5437 -0.0072  0.7080
 4723TIP3   OH235583   2.369   1.677  14.223  0.3574  0.1691  0.1857
 4723TIP3    H135584   2.289   1.726  14.203 -1.4092 -2.6283 -0.1981
 4723TIP3    H235585   2.428   1.742  14.261 -1.5202  2.6755 -0.8727
 4724TIP3   OH235586   5.073   6.616  16.849  0.5233  0.5892 -0.4804
 4724TIP3    H135587   5.064   6.642  16.757  0.1346  1.6777 -0.1555
 4724TIP3    H235588   5.012   6.543  16.859  1.4956 -0.3721 -1.3824
 4725TIP3   OH235589   4.958   0.029  14.177  0.1940  0.0230  0.4794
 4725TIP3    H135590   5.017  -0.043  14.200 -0.7935 -0.7015  0.8277
 4725TIP3    H235591   4.999   0.069  14.100  1.6813  0.2325  1.3415
 4726TIP3   OH235592   4.923   1.709   5.901  0.2242 -0.2175 -0.2365
 4726TIP3    H135593   4.959   1.783   5.951 -0.1379 -1.1902  1.5609
 4726TIP3    H235594   4.830   1.731   5.890  0.4852  0.4284 -1.3659
 4727TIP3   OH235595   6.040   0.673  14.142 -0.2517 -0.2821 -0.0203
 4727TIP3    H135596   5.946   0.684  14.131 -0.7324 -2.8030  1.0261
 4727TIP3    H235597   6.051   0.647  14.234  1.2069 -2.1257 -0.6595
 4728TIP3   OH235598   0.691   5.224  11.340 -0.1964  0.5132 -0.2473
 4728TIP3    H135599   0.605   5.182  11.342 -0.1339  0.2789 -1.6710
 4728TIP3    H235600   0.688   5.287  11.411 -1.1291 -0.2913  0.4583
 4729TIP3   OH235601   5.261   6.638  14.495 -0.3518  0.3996 -0.0948
 4729TIP3    H135602   5.176   6.683  14.498 -0.9028 -0.6570  1.8514
 4729TIP3    H235603   5.305   6.666  14.575  0.8535  0.3501 -0.7219
 4730TIP3   OH235604   1.250   4.207  14.465 -0.2464 -0.1447 -0.1684
 4730TIP3    H135605   1.155   4.203  14.453 -0.1477 -0.1843 -0.9962
 4730TIP3    H235606   1.270   4.300  14.468 -0.4123 -0.1326  0.9351
 4731TIP3   OH235607   5.563   4.656   4.352  0.0735 -0.6533 -0.2572
 4731TIP3    H135608   5.657   4.639   4.360 -0.3886 -3.0958  0.7990
 4731TIP3    H235609   5.544   4.720   4.420  0.8691 -0.4921 -0.1707
 4732TIP3   OH235610   1.552   4.494   3.030 -0.4961 -0.0769  0.8595
 4732TIP3    H135611   1.530   4.520   3.119 -0.5634 -1.3412  1.2242
 4732TIP3    H235612   1.647   4.506   3.024 -0.6138  0.9487  0.7638
 4733TIP3   OH235613   5.931   3.538  11.445 -0.4142 -0.9978 -0.1588
 4733TIP3    H135614   5.961   3.603  11.509 -0.5701 -1.0706 -0.0131
 4733TIP3    H235615   5.959   3.574  11.360 -2.3675  0.3431 -0.3042
 4734TIP3   OH235616   1.580   5.186   5.124  0.4251  0.4925  0.7148
 4734TIP3    H135617   1.659   5.161   5.173  0.9851  1.1812  0.1871
 4734TIP3    H235618   1.557   5.273   5.159 -0.7798 -0.1826  1.6693
 4735TIP3   OH235619   1.266   1.746  11.306  0.4515 -0.0652 -0.0093
 4735TIP3    H135620   1.234   1.750  11.216 -0.3942  0.8059  0.3226
 4735TIP3    H235621   1.188   1.744  11.360  0.9525 -0.3136  0.7208
 4736TIP3   OH235622   1.955   0.736  12.554 -0.1243  0.0693  0.4961
 4736TIP3    H135623   1.967   0.792  12.477  0.5556 -1.1176 -0.2877
 4736TIP3    H235624   1.914   0.794  12.619  0.4325  1.4368 -0.3194
 4737TIP3   OH235625   4.862   2.052   4.505 -0.0285  0.1951 -0.2523
 4737TIP3    H135626   4.780   2.065   4.459 -0.3654  4.6494  1.1219
 4737TIP3    H235627   4.905   2.137   4.501  2.1308 -0.5217  3.4128
 4738TIP3   OH235628   1.328   2.269  12.572 -0.0031  0.0076  0.3467
 4738TIP3    H135629   1.287   2.272  12.485  0.3645 -1.8939  0.0735
 4738TIP3    H235630   1.278   2.203  12.620  1.1302 -0.5005  0.8506
 4739TIP3   OH235631   3.648   0.111  10.734  0.5799  0.0979 -0.5959
 4739TIP3    H135632   3.581   0.139  10.797 -1.1842 -2.0356 -1.4041
 4739TIP3    H235633   3.656   0.186  10.674 -0.3626  0.7842  0.0971
 4740TIP3   OH235634   4.501   4.496  17.332  0.3766 -0.7712 -0.6099
 4740TIP3    H135635   4.494   4.571  17.272 -0.6316  0.2938  0.7874
 4740TIP3    H235636   4.413   4.460  17.337  0.1767 -0.1367  1.0730
 4741TIP3   OH235637   6.308   6.612  16.386 -0.2277 -0.2111 -0.0486
 4741TIP3    H135638   6.240   6.582  16.446 -0.5815 -1.6483 -1.1162
 4741TIP3    H235639   6.340   6.693  16.424 -1.1208 -0.5812  1.5509
 4742TIP3   OH235640   2.885   1.013   1.564  0.3323  0.4249  0.1778
 4742TIP3    H135641   2.950   1.071   1.525  0.6138 -0.6038 -0.9680
 4742TIP3    H235642   2.937   0.940   1.599  0.1328  1.5289  3.0011
 4743TIP3   OH235643   4.453   2.326  14.034 -0.5385  0.9172 -0.1701
 4743TIP3    H135644   4.480   2.259  14.097 -0.3584  0.1493 -1.0321
 4743TIP3    H235645   4.441   2.278  13.952  2.1388  2.3002 -1.4923
 4744TIP3   OH235646   1.235   5.083   0.319 -0.0682 -0.3240  0.9595
 4744TIP3    H135647   1.176   5.118   0.253 -0.5388 -1.6813  0.6337
 4744TIP3    H235648   1.320   5.124   0.299 -0.4035 -0.0361  0.0765
 4745TIP3   OH235649   1.618   2.885  15.234 -0.1643 -0.1674 -0.1003
 4745TIP3    H135650   1.647   2.876  15.325  0.9050  1.1073 -0.2861
 4745TIP3    H235651   1.680   2.833  15.183 -0.9913 -1.1963 -0.0911
 4746TIP3   OH235652   1.967   4.369  13.295 -0.2880  0.1931 -0.3410
 4746TIP3    H135653   2.028   4.302  13.265 -0.2152 -0.1032  0.4473
 4746TIP3    H235654   2.007   4.405  13.374 -1.0361  0.1221  0.0822
 4747TIP3   OH235655   6.083   4.024   4.318 -0.2737  0.0591  0.1070
 4747TIP3    H135656   6.020   4.055   4.253  1.2560  0.6118 -1.1597
 4747TIP3    H235657   6.076   4.087   4.390 -0.8219  0.3867 -0.2257
 4748TIP3   OH235658   2.934   3.460   5.722 -0.2822  0.8492 -0.3507
 4748TIP3    H135659   2.900   3.416   5.800  0.6356 -0.8545 -0.8784
 4748TIP3    H235660   2.862   3.454   5.658  0.1084 -0.6690 -0.6881
 4749TIP3   OH235661   2.518   4.251  14.203 -0.0063  0.2098 -0.2111
 4749TIP3    H135662   2.452   4.292  14.148  0.5218 -0.7999 -1.6650
 4749TIP3    H235663   2.601   4.268  14.158  0.4002 -0.9237  0.0586
 4750TIP3   OH235664   3.769   1.732   4.893  0.4362 -0.7981 -0.1917
 4750TIP3    H135665   3.738   1.800   4.833  1.2484 -1.1062 -0.9904
 4750TIP3    H235666   3.699   1.722   4.957  0.5455  1.2333  0.3041
 4751TIP3   OH235667   0.420   3.460   2.934  0.4419  0.5278  0.3104
 4751TIP3    H135668   0.423   3.398   3.007 -2.0588  0.9751  0.9232
 4751TIP3    H235669   0.414   3.546   2.976 -2.5728  0.7174 -0.2330
 4752TIP3   OH235670   1.046   5.343   1.527 -0.2535  1.0523  0.2310
 4752TIP3    H135671   1.123   5.318   1.579  0.0435 -0.2961 -0.7985
 4752TIP3    H235672   0.975   5.289   1.562 -0.6471  1.9494  0.8601
 4753TIP3   OH235673   1.808   0.388  11.915  0.0028  0.3089  0.1714
 4753TIP3    H135674   1.837   0.379  12.005  0.8485 -0.7174 -0.1831
 4753TIP3    H235675   1.729   0.335  11.909 -0.0393  0.3582  0.2919
 4754TIP3   OH235676   1.010   5.934   3.707 -0.0241 -0.3394  0.4498
 4754TIP3    H135677   0.915   5.941   3.702 -0.1460 -0.7789  1.6371
 4754TIP3    H235678   1.029   5.935   3.801  1.1786  0.1244  0.2257
 4755TIP3   OH235679   4.041   2.926  14.281 -0.0848  0.4656 -0.1833
 4755TIP3    H135680   4.063   3.019  14.286  0.1289  0.4196 -0.2578
 4755TIP3    H235681   4.113   2.882  14.326 -1.1641  0.4629  1.6511
 4756TIP3   OH235682   2.398   4.417   1.203  0.1544  0.3218 -0.4041
 4756TIP3    H135683   2.373   4.327   1.181 -0.0499  0.1453  0.4932
 4756TIP3    H235684   2.346   4.438   1.281 -0.2406  1.4316 -0.9446
 4757TIP3   OH235685   4.173   3.623  11.467  0.2426 -0.5448 -0.7702
 4757TIP3    H135686   4.184   3.577  11.384 -0.5895  0.3903 -1.4155
 4757TIP3    H235687   4.123   3.561  11.522  0.5881 -1.0716 -1.0414
 4758TIP3   OH235688   0.164   6.504   3.364 -0.0102 -0.2794  0.5596
 4758TIP3    H135689   0.117   6.542   3.290 -0.6428 -3.5328 -0.9168
 4758TIP3    H235690   0.095   6.484   3.428  0.2296  0.4784  1.0636
 4759TIP3   OH235691   0.688   6.493  17.599 -0.5252 -0.3581  0.3807
 4759TIP3    H135692   0.720   6.582  17.588 -0.2508 -0.2964  1.5749
 4759TIP3    H235693   0.618   6.500  17.663 -0.9789 -0.9134 -0.0405
 4760TIP3   OH235694   3.678   5.952  15.956  0.1638  0.0480 -0.0620
 4760TIP3    H135695   3.712   5.919  16.039 -0.9142 -0.2978  0.2616
 4760TIP3    H235696   3.591   5.985  15.977 -1.0269 -1.9597 -1.4056
 4761TIP3   OH235697   2.991   2.951   0.016 -0.4057  0.4768 -0.6258
 4761TIP3    H135698   2.988   3.028  -0.040 -0.1973 -0.1938 -1.5903
 4761TIP3    H235699   3.071   2.905  -0.012 -1.1564 -0.6988 -0.9194
 4762TIP3   OH235700   5.871   1.786   0.432 -0.3617  0.4977  0.0640
 4762TIP3    H135701   5.824   1.828   0.504  1.0475  0.1757  1.2263
 4762TIP3    H235702   5.920   1.857   0.391 -0.0514  0.4421  0.3368
 4763TIP3   OH235703   4.012   5.344  17.010  0.7915  0.3119 -0.3454
 4763TIP3    H135704   4.050   5.411  16.953 -0.7534 -0.6151 -2.6337
 4763TIP3    H235705   3.918   5.358  17.004  0.5139 -1.0764  0.3727
 4764TIP3   OH235706   5.454   5.230  16.647 -0.5072 -0.1838 -0.2037
 4764TIP3    H135707   5.488   5.141  16.654  1.6479  0.1743 -3.7337
 4764TIP3    H235708   5.523   5.284  16.687  0.6755  0.1558 -2.5503
 4765TIP3   OH235709   0.404   5.248  13.029  0.0428  0.3363  0.8555
 4765TIP3    H135710   0.349   5.326  13.030 -0.0305  0.3635 -1.2632
 4765TIP3    H235711   0.464   5.262  12.955  1.1457 -0.8720  1.4768
 4766TIP3   OH235712   0.163   3.673  17.118  0.0569 -0.1037  0.4037
 4766TIP3    H135713   0.069   3.694  17.124  0.0537 -0.2066  0.7211
 4766TIP3    H235714   0.191   3.663  17.209  0.4221  0.1293  0.3192
 4767TIP3   OH235715   4.888   4.616   3.077 -0.2482 -0.1801  0.2006
 4767TIP3    H135716   4.874   4.596   3.170  0.2609  0.5199  0.4365
 4767TIP3    H235717   4.820   4.680   3.056  0.3352  0.5148  0.3978
 4768TIP3   OH235718   0.409   4.342   0.950 -0.3768  0.5275  0.1261
 4768TIP3    H135719   0.346   4.307   0.887 -1.3440 -0.5761  1.6530
 4768TIP3    H235720   0.447   4.265   0.992  2.4640  1.1405 -1.1241
 4769TIP3   OH235721   4.026   6.550  10.851 -0.4392 -0.3479 -0.0893
 4769TIP3    H135722   4.079   6.625  10.878  0.7384 -0.6851 -1.3434
 4769TIP3    H235723   4.068   6.475  10.892 -0.6669 -0.4836 -0.1049
 4770TIP3   OH235724   1.352   0.201  12.569 -0.1991  0.3137  0.1429
 4770TIP3    H135725   1.272   0.222  12.520  1.2998 -0.6867 -3.0156
 4770TIP3    H235726   1.332   0.119  12.614 -1.1497  0.4166 -0.0748
 4771TIP3   OH235727   0.132   5.657   6.141  0.1346 -0.8809  0.1548
 4771TIP3    H135728   0.092   5.648   6.055 -0.2631 -0.4502  0.2915
 4771TIP3    H235729   0.157   5.749   6.147  0.3087 -0.9425  0.4362
 4772TIP3   OH235730   5.450   2.562  17.245  0.1488 -0.0750 -0.4403
 4772TIP3    H135731   5.528   2.591  17.198 -0.6135 -0.5704 -2.1039
 4772TIP3    H235732   5.481   2.493  17.303  1.0383  0.1386 -0.6435
 4773TIP3   OH235733   5.582   6.711  16.082 -0.1699  0.1969 -0.5020
 4773TIP3    H135734   5.673   6.717  16.055  0.1929 -0.3602  0.5192
 4773TIP3    H235735   5.565   6.617  16.087 -0.5287  0.2926  0.1628
 4774TIP3   OH235736   2.975   1.499   1.884  1.1701 -0.5839  0.3520
 4774TIP3    H135737   2.973   1.435   1.812  0.6517  0.9697 -1.0825
 4774TIP3    H235738   2.897   1.478   1.936 -1.3538  1.2122 -2.3386
 4775TIP3   OH235739   0.825   0.973   1.088  0.2862 -0.1195  0.3530
 4775TIP3    H135740   0.872   0.907   1.140  2.7013  1.0064 -0.2984
 4775TIP3    H235741   0.796   1.037   1.153  0.4205 -0.3605  0.6572
 4776TIP3   OH235742   1.174   3.675  12.354  0.1560  0.1627  0.2130
 4776TIP3    H135743   1.215   3.589  12.363  0.2377  0.1504 -0.2728
 4776TIP3    H235744   1.193   3.702  12.265 -3.1990 -1.0785 -1.0507
 4777TIP3   OH235745   2.537   0.821   1.289  0.6148  0.1859  0.0600
 4777TIP3    H135746   2.481   0.745   1.300  0.5445  0.5389  2.8794
 4777TIP3    H235747   2.613   0.804   1.346  0.5009  2.2495  0.9255
 4778TIP3   OH235748   3.851   5.060  10.619 -0.0975  0.3320  0.3585
 4778TIP3    H135749   3.778   5.097  10.669 -0.4916 -0.4463  0.3704
 4778TIP3    H235750   3.819   4.975  10.589  0.7488  0.0512  0.2316
 4779TIP3   OH235751   2.421   3.437   1.950 -0.2095  0.2746  0.2562
 4779TIP3    H135752   2.329   3.414   1.962 -0.1938  0.7613  1.4156
 4779TIP3    H235753   2.451   3.379   1.879 -1.3091 -0.1203  0.0943
 4780TIP3   OH235754   1.971   4.720  11.367  0.4144  0.3265  0.0715
 4780TIP3    H135755   1.968   4.680  11.453 -0.1581 -1.2516 -0.6454
 4780TIP3    H235756   1.946   4.812  11.382  0.6334  0.1526  1.6029
 4781TIP3   OH235757   5.421   6.230   0.151 -0.0409 -0.3691  0.2981
 4781TIP3    H135758   5.396   6.151   0.105 -0.0756  1.0086 -2.2500
 4781TIP3    H235759   5.441   6.201   0.241 -0.7045 -3.0839 -0.3471
 4782TIP3   OH235760   0.323   4.058   4.673 -0.1446 -0.1712  0.4759
 4782TIP3    H135761   0.321   3.981   4.616 -2.4798 -0.1179  0.4170
 4782TIP3    H235762   0.238   4.059   4.717  0.2054  1.8319  1.2436
 4783TIP3   OH235763   4.414   2.693  10.831 -0.1306 -0.2452 -0.0053
 4783TIP3    H135764   4.446   2.762  10.889 -1.0081  0.5149 -0.3835
 4783TIP3    H235765   4.424   2.612  10.880  1.2800  0.0956  0.3053
 4784TIP3   OH235766   1.221   5.881   5.483 -0.4884 -0.4783 -0.0510
 4784TIP3    H135767   1.249   5.971   5.467 -1.2482 -0.6693 -2.9872
 4784TIP3    H235768   1.300   5.828   5.469 -0.5452 -0.4248 -0.5937
 4785TIP3   OH235769   0.162   5.838  16.968  0.0702 -0.2217 -1.1528
 4785TIP3    H135770   0.216   5.883  17.032  0.9546 -0.4804 -1.6938
 4785TIP3    H235771   0.213   5.761  16.943 -0.6705 -0.6177 -1.4824
 4786TIP3   OH235772   6.208   3.008   0.957 -0.0018  0.1225 -0.1390
 4786TIP3    H135773   6.267   3.021   1.030  1.5266  0.2864 -1.3525
 4786TIP3    H235774   6.209   2.914   0.940  1.1094  0.2886 -1.0900
 4787TIP3   OH235775   2.861   2.225   0.727 -0.4413 -0.0500  0.4641
 4787TIP3    H135776   2.788   2.251   0.783 -1.0723 -1.3100  0.2602
 4787TIP3    H235777   2.857   2.130   0.724 -0.5244 -0.0340 -1.8297
 4788TIP3   OH235778   2.782   1.921  10.889  0.3847  0.0185  0.0069
 4788TIP3    H135779   2.856   1.935  10.830 -0.4569  2.2296 -0.6285
 4788TIP3    H235780   2.735   1.847  10.852  1.3418 -0.3297 -0.5502
 4789TIP3   OH235781   3.055   1.584  12.955 -0.4613 -0.1519  0.3311
 4789TIP3    H135782   3.066   1.525  13.030  0.1605  1.7198  1.7977
 4789TIP3    H235783   3.131   1.642  12.959 -1.3980  1.1879 -0.6329
 4790TIP3   OH235784   2.795   2.987  10.505  0.2905 -0.3087  0.0590
 4790TIP3    H135785   2.817   2.919  10.570  2.0561 -0.7979 -0.9816
 4790TIP3    H235786   2.755   2.939  10.433 -2.1383  0.2982  0.9279
 4791TIP3   OH235787   4.134   4.808  12.403  0.1108  0.2601 -0.7072
 4791TIP3    H135788   4.094   4.891  12.431 -0.1657 -0.0002 -0.3119
 4791TIP3    H235789   4.186   4.780  12.478 -0.2667 -0.2154 -0.6167
 4792TIP3   OH235790   1.856   2.282  14.411  0.4440 -0.3182 -0.4348
 4792TIP3    H135791   1.801   2.220  14.459 -0.9403 -0.0154 -1.5615
 4792TIP3    H235792   1.942   2.241  14.407 -0.5506 -2.4378 -1.5902
 4793TIP3   OH235793   0.595   3.976   3.872 -0.1697 -0.9457 -0.1196
 4793TIP3    H135794   0.534   3.915   3.913  0.4554 -1.9329 -0.6189
 4793TIP3    H235795   0.540   4.039   3.827 -1.0758  1.7673  4.1507
 4794TIP3   OH235796   3.860   3.747   4.232 -0.1166 -0.0005  0.1083
 4794TIP3    H135797   3.769   3.760   4.259 -0.1034  0.6013 -0.1232
 4794TIP3    H235798   3.903   3.830   4.253  0.5440 -0.5161  0.8606
 4795TIP3   OH235799   5.976   5.721  15.352 -0.6514  0.4797 -0.1732
 4795TIP3    H135800   5.944   5.651  15.408  0.7094  0.0401  0.0905
 4795TIP3    H235801   6.070   5.703  15.343  0.1221  3.2169  1.3226
 4796TIP3   OH235802   0.469   5.043  11.791  0.0061 -0.0652  0.7247
 4796TIP3    H135803   0.411   5.112  11.823  0.0798 -0.0764  0.8864
 4796TIP3    H235804   0.531   5.030  11.862 -0.3976 -0.7489  0.9576
 4797TIP3   OH235805   3.900   1.148   1.420 -0.0274  0.0323 -0.1680
 4797TIP3    H135806   3.990   1.118   1.429  0.7877  2.1034 -0.8445
 4797TIP3    H235807   3.847   1.068   1.426  1.8052 -1.1784  0.6275
 4798TIP3   OH235808   2.821   1.098   3.271 -0.5819  0.5435 -0.2127
 4798TIP3    H135809   2.812   1.017   3.222 -1.2736 -0.1321  0.9876
 4798TIP3    H235810   2.893   1.083   3.332  0.7549  1.6314 -1.4495
 4799TIP3   OH235811   5.667   2.494  13.921 -0.0216  0.6671 -0.1187
 4799TIP3    H135812   5.679   2.584  13.891 -1.0006  0.7994 -0.1679
 4799TIP3    H235813   5.572   2.479  13.914  0.0113 -0.0574  0.7374
 4800TIP3   OH235814   5.606   5.689  12.836  0.3494  0.6074 -0.2570
 4800TIP3    H135815   5.644   5.705  12.923  1.1218  0.4554 -0.5645
 4800TIP3    H235816   5.512   5.684  12.853  0.6028 -1.3741  0.8923
 4801TIP3   OH235817   1.727   0.877   4.903  0.9174  0.4793 -0.3078
 4801TIP3    H135818   1.636   0.880   4.934  0.4837 -0.2104 -1.4714
 4801TIP3    H235819   1.740   0.963   4.862  0.6021  0.3756 -0.6348
 4802TIP3   OH235820   2.325   5.017   3.962 -0.4733  0.4001 -0.3559
 4802TIP3    H135821   2.355   5.103   3.994  0.7834  0.1006 -0.6685
 4802TIP3    H235822   2.371   5.005   3.879  0.4623 -1.1704  0.3404
 4803TIP3   OH235823   6.565   1.774   3.445 -0.1773  0.4270 -0.3684
 4803TIP3    H135824   6.567   1.769   3.540  2.0336  0.2506 -0.3897
 4803TIP3    H235825   6.558   1.683   3.416  2.5953  0.1342 -0.3543
 4804TIP3   OH235826   3.736   3.347  17.437  0.3406  0.1205  0.0738
 4804TIP3    H135827   3.721   3.260  17.401 -0.0895  0.2224  0.0101
 4804TIP3    H235828   3.664   3.400  17.404  1.7000  1.0283 -1.5986
 4805TIP3   OH235829   4.554   5.111   0.221 -0.3426  0.4913 -0.1526
 4805TIP3    H135830   4.600   5.186   0.259 -0.2974 -0.2622  1.3630
 4805TIP3    H235831   4.462   5.138   0.217 -0.4528  0.3743  1.1381
 4806TIP3   OH235832   2.894   3.083  13.164 -0.0612  0.6564 -0.2821
 4806TIP3    H135833   2.847   3.006  13.195 -0.3284  0.2805 -1.5655
 4806TIP3    H235834   2.918   3.130  13.243 -0.9973 -0.0971  0.4679
 4807TIP3   OH235835   0.543   5.736   2.165  0.1917 -0.1324  0.0886
 4807TIP3    H135836   0.629   5.712   2.131  0.2326  0.0608  0.0516
 4807TIP3    H235837   0.532   5.682   2.243  0.0015 -0.7314 -0.3484
 4808TIP3   OH235838   4.824   1.155   4.491  0.3082 -0.3831  0.2455
 4808TIP3    H135839   4.914   1.187   4.496  0.2606 -0.3706  1.0431
 4808TIP3    H235840   4.820   1.110   4.406  0.7014  0.7116 -0.3735
 4809TIP3   OH235841   3.302   0.669   3.041 -0.1672 -0.3219  0.1581
 4809TIP3    H135842   3.273   0.601   2.981 -1.5392 -1.0470  1.5779
 4809TIP3    H235843   3.380   0.634   3.083  2.6664  1.3747 -3.2069
 4810TIP3   OH235844   0.508   5.283  12.781 -0.3932 -0.6949 -0.0935
 4810TIP3    H135845   0.489   5.368  12.743 -0.8175 -0.5248  0.4729
 4810TIP3    H235846   0.545   5.232  12.710 -1.4456 -0.4813 -0.8237
 4811TIP3   OH235847   3.036   3.168  17.180  0.4147  0.5350  0.0712
 4811TIP3    H135848   3.130   3.168  17.202  0.2990 -0.5980  0.6300
 4811TIP3    H235849   3.026   3.096  17.118  0.0014  1.0195 -0.4299
 4812TIP3   OH235850   2.973   1.180  15.582 -0.0939 -0.5369 -0.6091
 4812TIP3    H135851   3.046   1.181  15.643  0.2299 -3.2368 -0.8376
 4812TIP3    H235852   2.942   1.271  15.580  0.5655 -0.1179  2.6788
 4813TIP3   OH235853   6.489   3.665  13.324 -0.1237 -0.0965 -0.3246
 4813TIP3    H135854   6.416   3.603  13.313 -0.3141  0.1939 -0.7235
 4813TIP3    H235855   6.482   3.723  13.248 -1.0691  1.5644  0.9649
 4814TIP3   OH235856   0.685   4.848   0.170 -0.1018 -0.5364 -0.0827
 4814TIP3    H135857   0.748   4.776   0.178  0.6490  0.0645 -0.5868
 4814TIP3    H235858   0.612   4.821   0.227  0.8691 -0.9458  1.0045
 4815TIP3   OH235859   5.626   5.420   4.924  0.1949  0.1088 -0.2110
 4815TIP3    H135860   5.634   5.330   4.954  0.9940  0.6258  1.2256
 4815TIP3    H235861   5.545   5.452   4.965  0.5711  0.4080  0.3122
 4816TIP3   OH235862   4.306   1.548  17.281 -0.5795  0.2867 -0.2445
 4816TIP3    H135863   4.401   1.552  17.294 -0.3019 -0.3202 -1.9452
 4816TIP3    H235864   4.271   1.593  17.358  1.1024  1.1537  0.0790
 4817TIP3   OH235865   5.807   0.388  12.248  0.2356  0.0533 -0.0680
 4817TIP3    H135866   5.872   0.399  12.179  0.6159 -1.1471  0.0741
 4817TIP3    H235867   5.767   0.474  12.258  1.0558  0.5417 -0.9039
 4818TIP3   OH235868   2.715   3.535  11.532 -0.0193  0.4284 -0.1649
 4818TIP3    H135869   2.719   3.575  11.445  1.7239 -1.0672 -0.8563
 4818TIP3    H235870   2.807   3.517  11.554 -0.4959 -0.1061  1.5606
 4819TIP3   OH235871   1.839   5.225  12.450  0.7833  0.7085  0.4736
 4819TIP3    H135872   1.801   5.141  12.471 -1.6975  1.5709 -0.2202
 4819TIP3    H235873   1.902   5.206  12.380 -0.8890 -0.4344 -0.8108
 4820TIP3   OH235874   0.799   5.409   2.900  0.4697 -0.5498 -0.1310
 4820TIP3    H135875   0.721   5.455   2.871 -1.3146 -4.3151 -1.9223
 4820TIP3    H235876   0.864   5.427   2.832  0.5368  0.9486  0.3043
 4821TIP3   OH235877   6.500   2.350   4.015 -0.5074 -0.3376  0.4764
 4821TIP3    H135878   6.407   2.336   4.036 -0.8884  0.6116 -0.4531
 4821TIP3    H235879   6.521   2.280   3.953 -0.4065 -0.9361  1.1690
 4822TIP3   OH235880   5.836   3.529  16.920 -0.0031  0.4496 -0.2480
 4822TIP3    H135881   5.743   3.519  16.900 -0.1389  2.2504 -0.7359
 4822TIP3    H235882   5.839   3.607  16.976  1.0893 -0.4484  1.0088
 4823TIP3   OH235883   0.932   0.099   5.538  0.0887  0.1481 -0.8586
 4823TIP3    H135884   1.002   0.165   5.534 -0.1883  0.4232 -1.1363
 4823TIP3    H235885   0.894   0.111   5.625 -0.2575  0.6606 -1.0785
 4824TIP3   OH235886   0.894   5.638   0.970 -0.2286 -0.0999  1.1186
 4824TIP3    H135887   0.876   5.545   0.981  1.5196 -0.4210  1.5520
 4824TIP3    H235888   0.869   5.658   0.880  0.6252 -1.3165  0.5924
 4825TIP3   OH235889   6.605   2.446  13.205  0.3858  0.0609 -0.3032
 4825TIP3    H135890   6.602   2.511  13.134  1.3842  0.0377 -0.3847
 4825TIP3    H235891   6.660   2.487  13.272 -0.3908 -0.0041  0.3787
 4826TIP3   OH235892   1.278   3.119   5.576  0.0524  0.0396 -0.9912
 4826TIP3    H135893   1.248   3.120   5.485 -0.5630  0.6943 -0.7856
 4826TIP3    H235894   1.221   3.055   5.618 -1.8856  2.0673 -0.3510
 4827TIP3   OH235895   4.879   1.745  16.753  0.3955 -0.2220 -0.4167
 4827TIP3    H135896   4.907   1.837  16.753  1.9254 -0.6218 -2.6387
 4827TIP3    H235897   4.783   1.750  16.746  0.3945  1.1891  0.2404
 4828TIP3   OH235898   4.843   3.613   3.005 -0.0474  0.3517 -0.0302
 4828TIP3    H135899   4.812   3.700   3.031 -0.6906 -0.5803  2.6833
 4828TIP3    H235900   4.935   3.626   2.984  0.2396  1.5103  1.6630
 4829TIP3   OH235901   2.799   5.175  15.260 -0.5970 -0.0572 -0.2029
 4829TIP3    H135902   2.838   5.242  15.316  0.8093  0.1766 -1.3990
 4829TIP3    H235903   2.813   5.207  15.171 -2.9148 -0.3402 -0.7287
 4830TIP3   OH235904   4.915   6.084   1.778  0.3779 -0.0886  0.0818
 4830TIP3    H135905   4.875   6.004   1.744  0.1245 -1.0352  2.3953
 4830TIP3    H235906   5.006   6.060   1.796  0.8177  0.7276 -0.9562
 4831TIP3   OH235907   5.955   5.938   3.941 -0.0584  0.0832 -0.3577
 4831TIP3    H135908   5.914   6.022   3.917  0.4179  0.5251  0.3362
 4831TIP3    H235909   5.970   5.945   4.035 -0.0303 -0.7977 -0.2950
 4832TIP3   OH235910   2.121   4.733  15.107  0.7523 -0.2620 -0.0930
 4832TIP3    H135911   2.160   4.816  15.132  0.2241 -0.0494  0.0216
 4832TIP3    H235912   2.122   4.733  15.011  0.6562 -0.0808 -0.0925
 4833TIP3   OH235913   6.684   6.096  14.125  0.0487  0.6517 -0.6416
 4833TIP3    H135914   6.641   6.179  14.106  0.6487  0.8096 -1.3393
 4833TIP3    H235915   6.661   6.077  14.216  0.6273  2.0089 -0.1952
 4834TIP3   OH235916   6.033   1.946   5.118 -0.2817  0.9488  0.0386
 4834TIP3    H135917   6.096   1.874   5.105 -0.8543  0.5387 -0.5204
 4834TIP3    H235918   5.995   1.929   5.204  1.2017  1.8553  0.9031
 4835TIP3   OH235919   3.062   5.182   2.458  0.0538  0.1328  0.0922
 4835TIP3    H135920   3.065   5.115   2.527  1.6940  0.9272  0.8585
 4835TIP3    H235921   3.082   5.264   2.503  0.8961  0.7171 -1.2655
 4836TIP3   OH235922   0.252   4.337   1.979 -0.0424 -0.0165  0.0382
 4836TIP3    H135923   0.262   4.406   2.045 -0.4001  0.6501 -0.5854
 4836TIP3    H235924   0.293   4.260   2.018 -0.3381  0.3379  1.0803
 4837TIP3   OH235925   5.366   2.018  12.055 -0.6478 -0.2569  0.4391
 4837TIP3    H135926   5.438   2.081  12.063  1.5784 -2.5244 -0.4882
 4837TIP3    H235927   5.288   2.072  12.056  0.9128  2.2637  2.8652
 4838TIP3   OH235928   1.295   4.061   0.634 -0.4972  0.2803 -0.4214
 4838TIP3    H135929   1.215   4.084   0.681 -0.4172  3.6893 -1.7131
 4838TIP3    H235930   1.361   4.121   0.669  1.2526 -1.6431 -0.2550
 4839TIP3   OH235931   4.298   0.309   4.388 -0.2637  0.4946 -0.7221
 4839TIP3    H135932   4.312   0.363   4.311  1.8554 -0.6831 -1.2587
 4839TIP3    H235933   4.319   0.220   4.359  0.7391  0.0328  1.2188
 4840TIP3   OH235934   4.639   5.525  11.266 -0.1993  0.1096 -0.2809
 4840TIP3    H135935   4.647   5.475  11.184 -1.0958  2.1976 -1.7343
 4840TIP3    H235936   4.729   5.539  11.295  0.1614 -0.2066 -1.2242
 4841TIP3   OH235937   2.668   6.527  16.843 -0.5950  0.1317  0.2070
 4841TIP3    H135938   2.682   6.478  16.924  1.7186 -0.9142 -0.7303
 4841TIP3    H235939   2.710   6.611  16.858 -1.1342  0.3693  0.4375
 4842TIP3   OH235940   4.371   5.457   1.393 -0.1435  0.1004  0.0486
 4842TIP3    H135941   4.398   5.399   1.464 -1.4582 -0.6800 -0.0511
 4842TIP3    H235942   4.279   5.476   1.411 -0.2699  0.5721 -0.9909
 4843TIP3   OH235943   2.420   3.300  14.806 -0.5102 -0.2369 -0.0492
 4843TIP3    H135944   2.337   3.343  14.825  0.0180  1.2836 -1.0151
 4843TIP3    H235945   2.396   3.208  14.791 -2.3004  0.4756 -2.0762
 4844TIP3   OH235946   3.139   3.709  11.826  0.3628 -0.1404 -0.1795
 4844TIP3    H135947   3.078   3.643  11.861 -0.1004  0.8957  1.0202
 4844TIP3    H235948   3.186   3.741  11.902  1.5825 -0.0644 -0.9410
 4845TIP3   OH235949   1.157   0.553   1.991  0.6030  0.0601  0.0030
 4845TIP3    H135950   1.158   0.485   1.924 -1.7875 -0.6903  0.6506
 4845TIP3    H235951   1.080   0.535   2.044 -0.2407  3.3614  0.1409
 4846TIP3   OH235952   2.922   2.329  12.359  0.2300 -0.6605  0.6702
 4846TIP3    H135953   2.980   2.348  12.285 -1.0568 -0.2629 -0.2733
 4846TIP3    H235954   2.978   2.340  12.437  1.5138 -0.7248 -0.2170
 4847TIP3   OH235955   6.049   1.326  13.990 -0.2719 -0.2131 -0.0994
 4847TIP3    H135956   6.096   1.333  14.073 -2.2473  2.4251  0.9323
 4847TIP3    H235957   5.964   1.288  14.013 -1.1756  1.3595 -0.7212
 4848TIP3   OH235958   2.156   6.127   0.188  0.1858  0.0440  0.5824
 4848TIP3    H135959   2.230   6.165   0.140  0.5863 -0.1648  1.0253
 4848TIP3    H235960   2.195   6.055   0.239 -0.1787  0.4283  1.4262
 4849TIP3   OH235961   6.105   6.648   3.311 -0.0740 -0.3930  0.2943
 4849TIP3    H135962   6.112   6.666   3.217  1.2773 -0.4899  0.3591
 4849TIP3    H235963   6.046   6.716   3.344  0.1068  0.1577 -0.4878
 4850TIP3   OH235964   2.910   0.250  12.781  0.0432  0.5296  0.4012
 4850TIP3    H135965   2.980   0.310  12.808 -0.0118  1.0756 -0.6229
 4850TIP3    H235966   2.832   0.306  12.775  0.1450  0.5397 -1.2857
 4851TIP3   OH235967   4.815   2.931   6.304 -0.2909  0.1667 -0.6858
 4851TIP3    H135968   4.846   3.016   6.333  1.1148 -0.4414 -0.3391
 4851TIP3    H235969   4.871   2.868   6.349 -2.0382 -1.0150 -0.0145
 4852TIP3   OH235970   6.111   3.501  17.470 -0.1016 -0.3413 -0.2894
 4852TIP3    H135971   6.132   3.590  17.500 -1.7035 -0.6032  1.8144
 4852TIP3    H235972   6.098   3.510  17.376 -0.9947  1.8234 -0.0122
 4853TIP3   OH235973   4.632   0.420   1.770  0.3465 -0.0830 -0.8740
 4853TIP3    H135974   4.726   0.434   1.780  0.5381 -1.3637 -0.7275
 4853TIP3    H235975   4.615   0.336   1.812 -0.8966  0.1921 -0.7713
 4854TIP3   OH235976   3.180   2.299  14.023 -0.3556  0.3652  0.2600
 4854TIP3    H135977   3.172   2.390  14.054 -0.6731 -0.1122  1.6472
 4854TIP3    H235978   3.090   2.271  14.007 -0.1556  1.2543 -3.2979
 4855TIP3   OH235979   6.407   5.235  13.708 -0.4202  0.2431 -0.7129
 4855TIP3    H135980   6.483   5.286  13.681  0.8633 -0.0766  1.9178
 4855TIP3    H235981   6.436   5.143  13.701 -1.3450  0.0191 -1.7446
 4856TIP3   OH235982   1.014   1.835  11.418  0.3026 -0.3682  0.6999
 4856TIP3    H135983   1.041   1.926  11.406  0.2784 -0.5704 -1.0784
 4856TIP3    H235984   0.929   1.842  11.463 -0.2051  0.5390 -0.3443
 4857TIP3   OH235985   6.598   4.285  15.094 -0.3664 -0.3009  0.0492
 4857TIP3    H135986   6.644   4.320  15.170  1.2757  0.3565 -1.1704
 4857TIP3    H235987   6.661   4.294  15.022 -2.6598  1.3023 -1.8995
 4858TIP3   OH235988   5.839   2.848   2.720 -0.1605  0.0340 -0.2159
 4858TIP3    H135989   5.749   2.838   2.753 -0.2340 -0.5507 -0.5769
 4858TIP3    H235990   5.875   2.759   2.724  1.3211  0.6574  2.5254
 4859TIP3   OH235991   6.712   3.540   5.553 -0.3493  0.3792  0.1710
 4859TIP3    H135992   6.706   3.516   5.461  0.0467 -0.5704  0.3778
 4859TIP3    H235993   6.639   3.601   5.567 -0.2707  0.7181 -0.8135
 4860TIP3   OH235994   2.777   3.330  13.384 -0.2869 -0.3689  0.2138
 4860TIP3    H135995   2.811   3.417  13.406  0.2258  0.4356 -3.1549
 4860TIP3    H235996   2.827   3.271  13.440 -0.8941  1.4311  2.8735
 4861TIP3   OH235997   0.753   6.398   4.883 -0.2023  0.5268 -0.1302
 4861TIP3    H135998   0.802   6.465   4.836  0.3555  0.2782  0.0857
 4861TIP3    H235999   0.820   6.338   4.917 -0.7000 -0.2695 -0.5145
 4862TIP3   OH236000   1.302   2.268  12.889 -0.1743 -0.1231 -0.2181
 4862TIP3    H136001   1.238   2.307  12.830 -1.6474 -0.5040  1.0581
 4862TIP3    H236002   1.256   2.262  12.973  0.0528 -4.1537 -0.1975
 4863TIP3   OH236003   5.187   4.164   4.914  0.3739  0.0066  0.2054
 4863TIP3    H136004   5.185   4.174   4.818  0.7078  2.0050  0.3581
 4863TIP3    H236005   5.096   4.179   4.941  0.6896  2.0217  0.3444
 4864TIP3   OH236006   2.302   5.162   1.913  0.0243 -0.1259 -0.2717
 4864TIP3    H136007   2.285   5.221   1.839 -0.1318 -1.1371 -1.0546
 4864TIP3    H236008   2.302   5.075   1.875  0.3744 -0.6365  0.8598
 4865TIP3   OH236009   1.741   4.336   1.488  0.2475  0.7264 -0.0532
 4865TIP3    H136010   1.732   4.365   1.397 -0.9527  1.6324  0.3274
 4865TIP3    H236011   1.690   4.399   1.538  1.0425  0.3407  1.2826
 4866TIP3   OH236012   0.467   3.692  15.317 -0.0179 -0.0174 -0.0760
 4866TIP3    H136013   0.388   3.666  15.365 -0.2567  1.8678  0.6464
 4866TIP3    H236014   0.529   3.621  15.332 -1.1289 -0.8946  0.4711
 4867TIP3   OH236015   6.103   5.101   5.666  0.6993  0.5069  0.2606
 4867TIP3    H136016   6.060   5.174   5.621 -0.6311  0.0434  0.7609
 4867TIP3    H236017   6.190   5.097   5.625  0.3530  1.5661 -0.6497
 4868TIP3   OH236018   5.911   0.758   0.329 -0.3203 -0.1649  0.0850
 4868TIP3    H136019   5.975   0.824   0.301  0.4550 -1.2506 -0.7781
 4868TIP3    H236020   5.828   0.787   0.291 -0.8615  2.2927  2.7553
 4869TIP3   OH236021   3.989   3.048   5.400 -0.1063  0.2046  0.4871
 4869TIP3    H136022   4.028   3.068   5.485  1.2213  1.8795 -0.4636
 4869TIP3    H236023   3.895   3.058   5.415  0.1933  2.5947  1.2997
 4870TIP3   OH236024   4.821   5.261   3.566  0.0478  0.0954 -0.4614
 4870TIP3    H136025   4.842   5.168   3.572  2.4142  0.5608 -0.6776
 4870TIP3    H236026   4.774   5.270   3.483 -1.1739 -1.0275  0.0718
 4871TIP3   OH236027   4.491   6.039  12.706  0.6368  1.1162 -0.2811
 4871TIP3    H136028   4.434   5.963  12.708 -0.1084  1.6781 -0.0279
 4871TIP3    H236029   4.571   6.010  12.751  1.0514 -0.0489 -1.6777
 4872TIP3   OH236030   4.593   6.551  16.076 -0.2972  0.3470  0.6370
 4872TIP3    H136031   4.636   6.520  16.156 -0.1846 -0.4938  0.2625
 4872TIP3    H236032   4.518   6.492  16.065 -1.0195  1.2113  0.7707
 4873TIP3   OH236033   1.109   1.001   3.656 -0.3565  0.3252 -1.1224
 4873TIP3    H136034   1.121   1.045   3.571  1.2708 -0.7798 -1.4980
 4873TIP3    H236035   1.101   0.908   3.634 -2.5310  0.2586 -0.2389
 4874TIP3   OH236036   1.049   5.262   0.865  0.3312 -0.4889  0.2834
 4874TIP3    H136037   0.965   5.288   0.900 -1.1004  0.4324 -3.3930
 4874TIP3    H236038   1.090   5.343   0.835  1.9194 -1.0846  0.6917
 4875TIP3   OH236039   0.134   3.546   2.827 -0.2336  0.5779  0.5730
 4875TIP3    H136040   0.154   3.626   2.875 -1.5164  1.1635  0.1532
 4875TIP3    H236041   0.209   3.488   2.846  1.2962  2.2579 -0.0250
 4876TIP3   OH236042   3.590   6.207  11.664  0.4408  0.5383 -0.7394
 4876TIP3    H136043   3.683   6.183  11.660  0.4989  0.6320  0.0003
 4876TIP3    H236044   3.576   6.256  11.583  1.0229  0.4667 -0.8935
 4877TIP3   OH236045   2.983   5.658   1.771 -0.5732  0.2519 -0.1017
 4877TIP3    H136046   2.915   5.659   1.839  0.7125 -0.9308  1.2781
 4877TIP3    H236047   3.006   5.566   1.761  2.9574  0.7474  1.7825
 4878TIP3   OH236048   3.546   5.139  16.021  0.2739  0.0163 -0.3720
 4878TIP3    H136049   3.461   5.113  16.058  1.0216  0.9763  2.2114
 4878TIP3    H236050   3.610   5.095  16.077  1.6016 -1.9560 -3.1923
 4879TIP3   OH236051   0.359   4.352  16.529 -0.5476 -0.2387 -0.3992
 4879TIP3    H136052   0.312   4.398  16.459 -1.3736 -1.3913 -0.6229
 4879TIP3    H236053   0.354   4.411  16.604 -0.4916  0.5892 -1.0306
 4880TIP3   OH236054   5.629   2.882   6.222 -0.3871  0.6142  0.2639
 4880TIP3    H136055   5.669   2.795   6.221  2.8202  1.9433 -0.4910
 4880TIP3    H236056   5.607   2.897   6.314 -1.3639 -1.0794  0.3551
 4881TIP3   OH236057   4.318   5.143   5.209 -0.4423  0.5608  0.1629
 4881TIP3    H136058   4.359   5.100   5.284  1.3541  0.8310 -0.6250
 4881TIP3    H236059   4.296   5.231   5.241 -1.1220  0.1839  0.7942
 4882TIP3   OH236060   0.731   4.973  12.298  0.0146 -0.3412  0.0563
 4882TIP3    H136061   0.716   4.974  12.392 -0.2787  0.1474  0.0099
 4882TIP3    H236062   0.661   4.918  12.263  0.6637 -1.2764  0.2061
 4883TIP3   OH236063   6.225   1.991  12.075 -0.2260  0.2459  0.2970
 4883TIP3    H136064   6.247   1.898  12.062  1.6789  0.6649  0.1689
 4883TIP3    H236065   6.185   1.994  12.162  1.3856 -0.5060  1.1246
 4884TIP3   OH236066   6.465   5.694  15.118  0.4186  0.6922 -0.0181
 4884TIP3    H136067   6.390   5.744  15.087  0.0072  0.4472  0.5703
 4884TIP3    H236068   6.522   5.760  15.159 -0.4294  0.6287  1.3508
 4885TIP3   OH236069   4.011   1.768  13.319 -0.2511 -0.2430  0.1606
 4885TIP3    H136070   3.937   1.708  13.312  0.4154 -0.9526 -1.2640
 4885TIP3    H236071   4.062   1.735  13.393 -1.8488  0.8852  1.8602
 4886TIP3   OH236072   0.260   4.575  12.822 -0.0974 -0.0053  0.0466
 4886TIP3    H136073   0.191   4.614  12.768  1.2190  0.2630 -1.4904
 4886TIP3    H236074   0.335   4.567  12.764  1.4622  0.4804  1.9001
 4887TIP3   OH236075   2.265   5.565  14.106  0.4662  0.0629 -0.1809
 4887TIP3    H136076   2.191   5.606  14.061  0.0992 -0.8880 -0.4774
 4887TIP3    H236077   2.341   5.616  14.079 -0.1720  1.6176  0.8309
 4888TIP3   OH236078   2.281   1.575  10.326  0.2850  0.1007  0.5074
 4888TIP3    H136079   2.336   1.497  10.322  0.5981  0.3320 -2.8673
 4888TIP3    H236080   2.317   1.626  10.399  2.2247 -1.3870  0.6782
 4889TIP3   OH236081   3.323   3.766   5.365  0.2039  0.0463 -0.5051
 4889TIP3    H136082   3.335   3.735   5.275  0.4813  0.7625 -0.7184
 4889TIP3    H236083   3.406   3.745   5.408  0.4928  0.7118 -0.7209
 4890TIP3   OH236084   6.542   3.473  15.715  0.4547 -0.1241  0.0486
 4890TIP3    H136085   6.510   3.433  15.795  0.6325  0.9985  0.7110
 4890TIP3    H236086   6.463   3.498  15.667  0.3346  0.3452  0.4801
 4891TIP3   OH236087   6.474   4.393  17.556  0.3290  0.3881  0.2441
 4891TIP3    H136088   6.406   4.385  17.624  0.8850  1.4931  0.9602
 4891TIP3    H236089   6.533   4.461  17.589 -0.9984  3.2227 -2.7012
 4892TIP3   OH236090   5.232   4.130  13.122  0.8502 -0.1470 -0.1656
 4892TIP3    H136091   5.266   4.199  13.180 -0.1739  0.9816 -0.8585
 4892TIP3    H236092   5.249   4.049  13.169  2.9282  0.4877  0.2651
 4893TIP3   OH236093   6.373   4.107   1.282 -0.4055 -0.6996 -0.2162
 4893TIP3    H136094   6.319   4.046   1.332 -1.3932  1.1406  1.0802
 4893TIP3    H236095   6.380   4.184   1.338 -0.4929  0.9856 -2.3898
 4894TIP3   OH236096   4.539   2.867   2.724  0.1692  0.2954  0.1252
 4894TIP3    H136097   4.634   2.870   2.723  0.1445  2.1318 -1.4484
 4894TIP3    H236098   4.511   2.929   2.656 -2.1554  0.2352  0.9070
 4895TIP3   OH236099   4.014   2.714  13.086  0.4929  0.3739  0.7661
 4895TIP3    H136100   4.063   2.674  13.158  1.3990  2.3924  1.3591
 4895TIP3    H236101   3.965   2.642  13.047  0.6352 -0.9538  2.8651
 4896TIP3   OH236102   4.176   5.959   2.238  0.4558  0.2981  0.4151
 4896TIP3    H136103   4.177   5.996   2.150  0.1602  2.0953  1.1294
 4896TIP3    H236104   4.138   6.027   2.293 -0.9933 -1.4199  1.6843
 4897TIP3   OH236105   3.879   5.882  16.806  0.2829  0.3001 -0.4527
 4897TIP3    H136106   3.813   5.814  16.791  0.1267  0.2675  0.3715
 4897TIP3    H236107   3.860   5.916  16.893  1.4179  0.2127 -0.1511
 4898TIP3   OH236108   6.548   6.188  10.908  0.3610 -0.1761  0.1557
 4898TIP3    H136109   6.483   6.207  10.975  2.9955  0.9738  2.6068
 4898TIP3    H236110   6.506   6.124  10.850 -2.9010  0.6229  1.4650
 4899TIP3   OH236111   1.705   2.215  16.505 -0.0188 -0.0033  0.2419
 4899TIP3    H136112   1.634   2.279  16.513  0.1875  0.1075  1.2287
 4899TIP3    H236113   1.721   2.210  16.411 -1.1506  0.1764  0.0186
 4900TIP3   OH236114   6.656   4.080   5.656  0.3048  0.8768 -0.5709
 4900TIP3    H136115   6.600   4.119   5.590 -0.0742  0.0503 -0.7496
 4900TIP3    H236116   6.656   4.143   5.728 -0.5701  1.0505 -0.7151
 4901TIP3   OH236117   2.858   2.784   4.651 -0.4395  0.0831 -0.8890
 4901TIP3    H136118   2.788   2.779   4.585 -0.9925  0.4850 -0.3347
 4901TIP3    H236119   2.938   2.799   4.599 -0.9000  0.6405 -1.4531
 4902TIP3   OH236120   1.719   3.226   4.651 -0.7268  0.1816 -0.2149
 4902TIP3    H136121   1.744   3.154   4.708  1.3441  0.2302 -0.9754
 4902TIP3    H236122   1.801   3.269   4.629 -1.8080  2.2982 -0.4519
 4903TIP3   OH236123   6.329   0.784  13.565 -0.2427 -0.5659 -0.2252
 4903TIP3    H136124   6.380   0.857  13.530 -0.6195 -0.4491 -0.5397
 4903TIP3    H236125   6.278   0.753  13.491 -1.5381  0.0929  0.3591
 4904TIP3   OH236126   4.439   4.665  15.722  0.0716  0.0482  0.0261
 4904TIP3    H136127   4.461   4.757  15.736 -3.8105  1.0243  1.0401
 4904TIP3    H236128   4.443   4.626  15.809 -1.8306  0.2760  0.2611
 4905TIP3   OH236129   3.230   4.266   0.042 -0.1288  0.8312 -0.0943
 4905TIP3    H136130   3.180   4.188   0.066  2.6630 -0.7351  1.1696
 4905TIP3    H236131   3.263   4.248  -0.046  0.9950  0.2341  0.4192
 4906TIP3   OH236132   2.458   3.875   0.974 -0.3147  0.1676 -0.5883
 4906TIP3    H136133   2.470   3.782   0.992 -1.0637 -0.1599 -1.6792
 4906TIP3    H236134   2.540   3.916   1.002  0.3784 -0.9443 -0.9385
 4907TIP3   OH236135   5.203   3.151   3.696  0.7426  0.0710 -0.2438
 4907TIP3    H136136   5.297   3.146   3.715  0.9041 -0.5267 -1.1511
 4907TIP3    H236137   5.194   3.111   3.609 -0.5780 -1.3506  0.5090
 4908TIP3   OH236138   1.109   3.028  13.597  0.2692  0.1361  0.5848
 4908TIP3    H136139   1.047   3.010  13.668 -0.8851 -1.9044 -0.8212
 4908TIP3    H236140   1.081   3.111  13.560 -1.4550 -0.5748  0.2109
 4909TIP3   OH236141   0.389   4.665   2.297 -1.2148  0.3459 -0.4392
 4909TIP3    H136142   0.430   4.744   2.334 -1.6286  1.1416 -1.6097
 4909TIP3    H236143   0.298   4.669   2.327 -1.7544  1.4093 -2.1030
 4910TIP3   OH236144   2.103   5.044  12.478 -0.3972 -0.4349  0.2774
 4910TIP3    H136145   2.105   4.953  12.449  0.3214 -0.9629  1.8993
 4910TIP3    H236146   2.054   5.043  12.560  0.1140  0.5286  0.6189
 4911TIP3   OH236147   3.539   0.376   5.242  0.5201  0.0252  0.4148
 4911TIP3    H136148   3.508   0.296   5.283  0.6727 -0.2170  0.0631
 4911TIP3    H236149   3.557   0.351   5.151 -2.8141  1.2064 -0.7558
 4912TIP3   OH236150   5.081   4.742   6.387  0.4477  0.2400  0.2449
 4912TIP3    H136151   5.063   4.655   6.424  0.7938 -0.7862 -1.8420
 4912TIP3    H236152   4.999   4.770   6.348  0.7854 -0.0266 -0.7029
 4913TIP3   OH236153   4.104   2.237   1.705 -0.0185  0.1563  0.4377
 4913TIP3    H136154   4.155   2.316   1.686  3.2078 -1.5590  1.2325
 4913TIP3    H236155   4.041   2.265   1.772  0.3428  2.2182 -0.0038
 4914TIP3   OH236156   1.994   3.754   3.544 -0.0988 -0.1462 -0.4278
 4914TIP3    H136157   2.017   3.728   3.633  1.1236 -1.9068 -1.1798
 4914TIP3    H236158   1.899   3.767   3.546 -0.3388 -1.7475  0.7993
 4915TIP3   OH236159   0.319   5.853   1.189 -0.4436  0.2167 -0.5356
 4915TIP3    H136160   0.394   5.831   1.245 -1.2804 -1.4030  0.0250
 4915TIP3    H236161   0.326   5.793   1.115 -2.7674 -2.2073  1.0104
 4916TIP3   OH236162   4.229   3.896  14.081  0.7814 -0.7466 -0.0987
 4916TIP3    H136163   4.280   3.880  14.001  1.6562  1.3922 -0.0536
 4916TIP3    H236164   4.140   3.911  14.050  1.0342 -0.3366 -0.6566
 4917TIP3   OH236165   5.797   2.245  11.461 -0.7383  0.2575 -0.1713
 4917TIP3    H136166   5.880   2.266  11.418 -0.5365  0.4892  0.3191
 4917TIP3    H236167   5.806   2.283  11.549 -1.2096 -0.0543  0.0131
 4918TIP3   OH236168   2.236   1.725   4.646 -0.3496  0.3911 -0.2279
 4918TIP3    H136169   2.207   1.813   4.622  0.1612  1.0388  1.4037
 4918TIP3    H236170   2.332   1.732   4.648 -0.3037 -0.2307 -0.1479
 4919TIP3   OH236171   6.223   5.945  11.014  0.4791 -0.0502  0.6458
 4919TIP3    H136172   6.276   6.024  11.007 -1.1107  0.9640 -0.6419
 4919TIP3    H236173   6.183   5.951  11.101  1.7151 -0.3599  1.2544
 4920TIP3   OH236174   5.207   5.425  13.252 -0.0293  0.5095 -0.2715
 4920TIP3    H136175   5.128   5.394  13.207  0.0102 -0.6375  0.4139
 4920TIP3    H236176   5.198   5.520  13.253 -1.2686  0.4101 -0.4577
 4921TIP3   OH236177   5.502   5.969  13.904  0.2209 -0.3569  0.3623
 4921TIP3    H136178   5.433   6.005  13.960  0.2568  0.7596 -0.2796
 4921TIP3    H236179   5.528   5.888  13.947 -0.0219  0.2682  1.7451
 4922TIP3   OH236180   3.088   0.689  15.522 -0.3044  0.0135 -0.2078
 4922TIP3    H136181   3.124   0.634  15.453  0.2087  0.8332 -0.6063
 4922TIP3    H236182   3.066   0.771  15.479  2.3164  1.4752  0.9973
 4923TIP3   OH236183   3.534   3.047   4.398  1.3279 -0.1690  0.1774
 4923TIP3    H136184   3.577   3.109   4.339 -0.2154 -0.3309 -1.1665
 4923TIP3    H236185   3.461   3.096   4.435  0.8403 -0.7950  0.0615
 4924TIP3   OH236186   3.048   3.820  13.094  0.5364  0.0190 -0.0661
 4924TIP3    H136187   3.060   3.729  13.067  0.2473  0.4032 -1.5836
 4924TIP3    H236188   3.106   3.871  13.037  0.5059  0.8157  0.5840
 4925TIP3   OH236189   4.052   5.869  13.491 -0.2985  0.0513 -0.2396
 4925TIP3    H136190   4.147   5.871  13.503 -0.0259 -2.3483 -1.3804
 4925TIP3    H236191   4.034   5.941  13.431  0.5586  1.3687  0.9828
 4926TIP3   OH236192   1.408   6.296  17.362  0.6984  0.1016  0.8252
 4926TIP3    H136193   1.469   6.364  17.336 -0.6383  1.5254  1.2750
 4926TIP3    H236194   1.424   6.284  17.456  0.8542 -0.1346  0.7686
 4927TIP3   OH236195   1.181   1.004  16.979  0.3219  0.1385  0.3645
 4927TIP3    H136196   1.144   1.085  16.944 -2.0268 -1.3159 -0.7326
 4927TIP3    H236197   1.244   0.976  16.912 -0.6907 -0.1885 -0.4785
 4928TIP3   OH236198   1.250   5.732   0.230 -0.7118 -0.0726  0.5717
 4928TIP3    H136199   1.304   5.661   0.195  1.7233  2.1098 -0.4801
 4928TIP3    H236200   1.192   5.755   0.158 -0.0286  0.3575  0.1487
 4929TIP3   OH236201   3.217   6.580  17.592  0.0328 -0.1382 -0.3824
 4929TIP3    H136202   3.264   6.541  17.666  2.6011  1.1096 -1.2344
 4929TIP3    H236203   3.145   6.629  17.632 -0.2695 -1.6533  1.0307
 4930TIP3   OH236204   3.082   1.886  17.404 -0.1334 -0.0469 -0.4524
 4930TIP3    H136205   3.061   1.975  17.375  3.0642  0.3249 -2.0725
 4930TIP3    H236206   3.104   1.839  17.323  0.7785 -1.5422  0.6024
 4931TIP3   OH236207   5.497   6.643  12.904 -0.5290 -0.0382  0.0614
 4931TIP3    H136208   5.570   6.674  12.957 -0.6027  1.3024 -0.5920
 4931TIP3    H236209   5.461   6.570  12.954  0.6878 -0.1395  0.8320
 4932TIP3   OH236210   6.635   6.545  12.558  0.6255 -0.6104 -0.7668
 4932TIP3    H136211   6.686   6.480  12.510  1.1073  0.1208 -1.2576
 4932TIP3    H236212   6.658   6.531  12.650 -0.0845 -1.8276 -0.7418
 4933TIP3   OH236213   1.091   3.507   4.770  0.4077  0.5635  0.5681
 4933TIP3    H136214   1.140   3.455   4.833  0.9288  0.1195 -0.1813
 4933TIP3    H236215   1.150   3.580   4.749  0.7105  0.1101 -0.2231
 4934TIP3   OH236216   4.784   5.765  12.181  0.1148 -0.0410  0.2016
 4934TIP3    H136217   4.765   5.688  12.128 -0.7543  0.9458 -0.9932
 4934TIP3    H236218   4.738   5.750  12.263  0.3830 -1.0089  0.1840
 4935TIP3   OH236219   1.363   4.926  11.689  0.0665  0.1604 -0.4146
 4935TIP3    H136220   1.431   4.920  11.622  0.5776 -0.1422  0.1208
 4935TIP3    H236221   1.283   4.899  11.644  0.4269 -0.1937 -0.8634
 4936TIP3   OH236222   2.847   6.106  14.304  0.4043 -0.0979 -0.0147
 4936TIP3    H136223   2.817   6.076  14.218 -1.4635 -1.9586  1.2190
 4936TIP3    H236224   2.862   6.026  14.354  1.8578  0.9432  1.3170
 4937TIP3   OH236225   0.202   0.538   4.517 -0.3522  0.2138 -0.3845
 4937TIP3    H136226   0.147   0.495   4.453 -1.3474 -0.2773  0.7730
 4937TIP3    H236227   0.271   0.580   4.465 -2.2099  1.5155 -1.9633
 4938TIP3   OH236228   0.910   5.035   5.663  0.2028  0.2727  0.0897
 4938TIP3    H136229   0.937   4.969   5.726  0.0345  0.3364  0.2286
 4938TIP3    H236230   0.934   5.119   5.703 -0.5718  0.3523  0.3980
 4939TIP3   OH236231   3.365   3.136   1.939  0.3649 -0.0394 -0.1041
 4939TIP3    H136232   3.412   3.074   1.995 -0.0370 -0.9762 -0.7706
 4939TIP3    H236233   3.392   3.114   1.850 -0.0135  0.5495 -0.3726
 4940TIP3   OH236234   5.485   5.185  14.684  0.5326  0.3611 -0.1523
 4940TIP3    H136235   5.422   5.257  14.694 -0.0131  0.0159 -1.0219
 4940TIP3    H236236   5.538   5.189  14.763 -1.7384 -0.4706  1.5399
 4941TIP3   OH236237   5.062   3.116  12.240  0.1423 -0.0803 -0.1738
 4941TIP3    H136238   5.021   3.107  12.154  1.0192  0.1603 -0.6243
 4941TIP3    H236239   5.014   3.188  12.282 -2.7467 -2.4818  1.0199
 4942TIP3   OH236240   2.588   0.496   1.710 -0.1329  0.1678  0.0427
 4942TIP3    H136241   2.573   0.519   1.619  2.7216  1.1813 -0.2416
 4942TIP3    H236242   2.541   0.564   1.759  0.7143  1.3556 -0.7327
 4943TIP3   OH236243   1.121   5.606   6.438 -0.3905 -0.1622  0.3163
 4943TIP3    H136244   1.146   5.532   6.383 -0.3075  0.2993 -0.2757
 4943TIP3    H236245   1.061   5.569   6.502  1.2955 -1.1762  1.3932
 4944TIP3   OH236246   0.597   2.289  17.569  0.0903  0.4870  0.4302
 4944TIP3    H136247   0.595   2.372  17.615  0.1445  1.6081 -1.4902
 4944TIP3    H236248   0.608   2.312  17.477 -0.6147 -1.6097 -0.2489
 4945TIP3   OH236249   4.129   4.452   5.127 -0.1026  0.6932 -0.3766
 4945TIP3    H136250   4.220   4.482   5.130 -0.1782  0.8753  0.4747
 4945TIP3    H236251   4.082   4.523   5.083  0.0863  0.8221 -0.3717
 4946TIP3   OH236252   5.456   5.152  17.135  0.1876 -0.2647  0.4556
 4946TIP3    H136253   5.538   5.200  17.145  0.7419 -0.6577 -1.7540
 4946TIP3    H236254   5.411   5.194  17.062 -0.7170 -1.2020  0.4429
 4947TIP3   OH236255   3.435   1.194  12.973 -0.3928 -0.2175  0.5499
 4947TIP3    H136256   3.506   1.142  12.934 -0.1362  1.4681 -1.3594
 4947TIP3    H236257   3.360   1.134  12.975  0.0391 -0.8627 -1.0866
 4948TIP3   OH236258   5.486   5.344  15.020 -0.3044 -0.8314  0.1995
 4948TIP3    H136259   5.559   5.324  15.080  0.3764  0.1148 -0.2818
 4948TIP3    H236260   5.512   5.427  14.979 -2.1195  0.0487  0.7375
 4949TIP3   OH236261   6.353   6.564  11.696 -0.8613  0.6056 -0.6758
 4949TIP3    H136262   6.265   6.595  11.716 -0.7742  0.1739  0.4742
 4949TIP3    H236263   6.388   6.535  11.781 -0.2403 -0.7782 -1.3695
 4950TIP3   OH236264   0.734   2.385  14.653  0.5716  0.0832  0.0242
 4950TIP3    H136265   0.662   2.399  14.591  0.8582  1.2947 -0.0494
 4950TIP3    H236266   0.781   2.309  14.618 -1.1553 -1.2753  0.5416
 4951TIP3   OH236267   3.832   3.905  12.545 -0.5911  0.3269 -0.3085
 4951TIP3    H136268   3.902   3.847  12.574 -0.5925  0.3624 -0.2345
 4951TIP3    H236269   3.876   3.972  12.493 -0.7274 -0.4501 -1.4807
 4952TIP3   OH236270   1.784   0.420   1.179  0.2041  0.5452  0.6985
 4952TIP3    H136271   1.816   0.333   1.203  1.2252  1.5385  3.2341
 4952TIP3    H236272   1.860   0.463   1.139 -0.0237  0.6169  0.3308
 4953TIP3   OH236273   2.674   3.237   4.757 -0.1664  0.2115 -0.1632
 4953TIP3    H136274   2.660   3.158   4.705 -1.4303  0.7561 -0.6877
 4953TIP3    H236275   2.619   3.303   4.715  0.1809  1.1414  0.8068
 4954TIP3   OH236276   0.649   1.497  12.842  0.6719 -0.0987  0.5523
 4954TIP3    H136277   0.564   1.463  12.871  0.8060  0.6206  1.8281
 4954TIP3    H236278   0.636   1.591  12.833  0.8119 -0.2175 -1.1758
 4955TIP3   OH236279   4.997   3.112  11.947 -0.1215  0.1781  0.3778
 4955TIP3    H136280   4.977   3.181  11.884  0.9150  0.3293  0.2078
 4955TIP3    H236281   5.083   3.079  11.920 -0.6440 -1.2633  0.3730
 4956TIP3   OH236282   2.600   5.125  16.032  0.0082  0.0273 -0.1852
 4956TIP3    H136283   2.574   5.192  15.969 -1.8159 -0.7419 -0.2919
 4956TIP3    H236284   2.598   5.170  16.117 -1.0450  0.1469 -0.2714
 4957TIP3   OH236285   3.958   3.209  16.012  0.2448  0.4512  0.0307
 4957TIP3    H136286   3.890   3.152  16.048 -0.0088  0.6978 -0.0539
 4957TIP3    H236287   4.022   3.218  16.082 -0.3048  1.0235  0.4771
 4958TIP3   OH236288   1.917   1.524  14.942 -0.2228 -0.5847 -0.2893
 4958TIP3    H136289   1.890   1.603  14.896  0.3320 -0.5425 -0.5546
 4958TIP3    H236290   1.919   1.549  15.034 -2.9948 -1.1295  0.0122
 4959TIP3   OH236291   0.147   4.480   0.286 -0.3549  0.0932 -0.0994
 4959TIP3    H136292   0.181   4.523   0.207  0.9387 -1.4726 -0.4400
 4959TIP3    H236293   0.224   4.467   0.341 -1.0145 -0.1774  0.7868
 4960TIP3   OH236294   4.183   5.751   1.248  0.4632  0.1659 -0.6723
 4960TIP3    H136295   4.141   5.727   1.165 -2.1676  0.4640  0.4542
 4960TIP3    H236296   4.186   5.669   1.298  1.7695  0.0466 -0.9114
 4961TIP3   OH236297   0.747   2.817  11.778 -0.0250  0.1593 -0.5174
 4961TIP3    H136298   0.746   2.881  11.706  0.2377  0.8172  0.0533
 4961TIP3    H236299   0.667   2.835  11.828  1.4096  2.0271  1.3083
 4962TIP3   OH236300   1.679   5.950  16.673  0.2444 -0.1778 -0.1526
 4962TIP3    H136301   1.702   6.037  16.640  2.1319 -0.7130 -0.3832
 4962TIP3    H236302   1.678   5.960  16.768  2.1654 -0.2237 -0.0781
 4963TIP3   OH236303   1.995   0.109   3.322 -0.1941 -0.3763 -0.2202
 4963TIP3    H136304   2.063   0.124   3.387 -0.7904  0.0124  0.3267
 4963TIP3    H236305   1.964   0.020   3.340 -0.3828 -0.2559  0.0497
 4964TIP3   OH236306   5.973   1.122   3.883  0.0114  0.1753 -0.1249
 4964TIP3    H136307   6.066   1.141   3.894 -0.2161  0.7896  0.9530
 4964TIP3    H236308   5.940   1.113   3.973 -0.7419 -1.2473 -0.5160
 4965TIP3   OH236309   4.622   3.533   4.820  0.1092  0.2817  0.0893
 4965TIP3    H136310   4.535   3.520   4.782  0.1242 -0.8133  0.4153
 4965TIP3    H236311   4.607   3.584   4.899 -0.0517  1.4774 -0.6716
 4966TIP3   OH236312   5.506   6.183   4.174 -0.2468  0.2254  0.1001
 4966TIP3    H136313   5.551   6.257   4.132  1.3453 -0.5459  0.3556
 4966TIP3    H236314   5.553   6.106   4.143  0.2092 -0.4570  2.2952
 4967TIP3   OH236315   4.200   0.548   0.918 -0.1195 -0.4228  0.0190
 4967TIP3    H136316   4.217   0.629   0.966  1.9307  0.1664 -1.5839
 4967TIP3    H236317   4.227   0.479   0.979  0.8353  0.2251  0.3509
 4968TIP3   OH236318   4.771   6.621  10.792 -0.0118  0.0632 -0.1611
 4968TIP3    H136319   4.793   6.530  10.815 -1.2546 -0.3848 -0.6455
 4968TIP3    H236320   4.714   6.650  10.863 -3.1047 -1.0110 -2.0043
 4969TIP3   OH236321   1.684   1.457   4.201  0.0424 -0.2281 -0.4172
 4969TIP3    H136322   1.658   1.397   4.132 -1.3978 -2.3770  1.8413
 4969TIP3    H236323   1.627   1.533   4.189 -1.2023 -1.1859 -0.7312
 4970TIP3   OH236324   3.881   0.639  16.709 -0.0197 -0.1150  0.5139
 4970TIP3    H136325   3.815   0.576  16.680  0.0515 -0.1732  0.4787
 4970TIP3    H236326   3.865   0.717  16.657  0.7263 -0.5422 -0.3828
 4971TIP3   OH236327   1.402   5.244  11.581  0.1990 -1.1628  0.1486
 4971TIP3    H136328   1.462   5.215  11.650  1.3608  2.2571  0.7464
 4971TIP3    H236329   1.458   5.255  11.504 -0.5722 -2.2377 -0.5953
 4972TIP3   OH236330   1.044   5.064  15.161  0.8626 -0.2763 -0.7069
 4972TIP3    H136331   0.962   5.113  15.170  0.0552 -1.6038 -0.6823
 4972TIP3    H236332   1.098   5.093  15.235  0.7592  1.1983 -1.1649
 4973TIP3   OH236333   6.002   4.102  13.506  0.5453  0.3180  0.5161
 4973TIP3    H136334   6.054   4.025  13.529  3.6452  0.9187 -3.2918
 4973TIP3    H236335   6.039   4.172  13.560  0.8703 -0.0406  0.7680
 4974TIP3   OH236336   6.196   0.404   4.194  0.0509 -0.3582 -0.6081
 4974TIP3    H136337   6.186   0.324   4.143 -0.1492 -0.2773 -0.6992
 4974TIP3    H236338   6.290   0.417   4.201  0.0801 -0.4267 -0.8670
 4975TIP3   OH236339   5.497   2.786   0.674  0.4146  0.2469  0.3277
 4975TIP3    H136340   5.583   2.808   0.638  0.4560 -0.2480  0.1188
 4975TIP3    H236341   5.494   2.832   0.758  0.7288  0.5762  0.1627
 4976TIP3   OH236342   1.700   3.847  12.530 -0.0137  0.1900 -0.1325
 4976TIP3    H136343   1.605   3.847  12.543 -0.0486 -0.6736 -0.3022
 4976TIP3    H236344   1.731   3.922  12.581 -1.0642  2.2275 -2.3166
 4977TIP3   OH236345   6.133   4.310   6.392 -0.4538 -0.1366 -0.5608
 4977TIP3    H136346   6.114   4.218   6.412  2.1599 -0.6145  0.1391
 4977TIP3    H236347   6.188   4.339   6.464 -4.0288  3.1870  1.1858
 4978TIP3   OH236348   1.543   5.255   5.438 -0.1726 -0.4257 -0.0733
 4978TIP3    H136349   1.603   5.184   5.460  0.6628 -0.0789 -1.1460
 4978TIP3    H236350   1.472   5.248   5.503  1.3623 -0.3965  1.7054
 4979TIP3   OH236351   0.559   2.534   0.139  0.2080 -0.2337 -0.5388
 4979TIP3    H136352   0.510   2.581   0.207  0.7036 -1.1613  0.4868
 4979TIP3    H236353   0.519   2.562   0.056 -0.3076  1.0248  0.1247
 4980TIP3   OH236354   4.641   1.422  11.208  0.0990  0.0166 -0.3940
 4980TIP3    H136355   4.698   1.348  11.185 -0.2968 -0.5342  0.3538
 4980TIP3    H236356   4.596   1.444  11.126 -0.4250 -1.1501 -0.4388
 4981TIP3   OH236357   6.050   3.092  11.241 -0.1471  0.4378 -0.0623
 4981TIP3    H136358   6.054   3.003  11.207 -0.4095  0.3317  0.1901
 4981TIP3    H236359   6.068   3.147  11.164  1.0735  0.1397 -0.0014
 4982TIP3   OH236360   5.604   2.757   5.932  0.3589 -0.1936  0.2965
 4982TIP3    H136361   5.599   2.849   5.958  0.2396  0.5266 -2.0155
 4982TIP3    H236362   5.618   2.709   6.013 -1.1268  1.7090  1.7564
 4983TIP3   OH236363   0.207   4.394  14.364 -0.1237  0.1216  0.2483
 4983TIP3    H136364   0.248   4.395  14.277 -1.4384  1.2093 -0.3957
 4983TIP3    H236365   0.279   4.413  14.425  0.7003 -0.0402 -0.6515
 4984TIP3   OH236366   2.577   1.138  12.672 -0.3155 -0.6924 -0.1156
 4984TIP3    H136367   2.559   1.195  12.597  0.2106  0.9722  0.9693
 4984TIP3    H236368   2.616   1.059  12.633 -2.0080 -0.7940 -1.7457
 4985TIP3   OH236369   3.266   2.391  12.824  0.2818 -0.6909 -0.5057
 4985TIP3    H136370   3.256   2.440  12.742  3.2547 -1.9613 -1.7855
 4985TIP3    H236371   3.358   2.366  12.826  0.0599 -1.7473  2.7030
 4986TIP3   OH236372   5.983   6.003   1.108 -0.2633 -0.0351  0.0805
 4986TIP3    H136373   5.971   6.096   1.086  2.6050  0.2051 -0.8906
 4986TIP3    H236374   6.011   6.004   1.199 -0.0548  0.0656  0.0155
 4987TIP3   OH236375   3.565   1.712   4.281 -0.3393  0.1984 -0.4734
 4987TIP3    H136376   3.610   1.675   4.357  0.0250 -0.2007 -0.8819
 4987TIP3    H236377   3.592   1.657   4.208 -0.7345  0.5470 -0.8849
 4988TIP3   OH236378   3.885   1.261  12.898 -1.2665 -0.0848 -1.3584
 4988TIP3    H136379   3.902   1.173  12.863  0.3451  0.3910 -1.8691
 4988TIP3    H236380   3.972   1.298  12.912 -1.8645  0.5492  1.1774
 4989TIP3   OH236381   1.731   1.074   1.409 -0.2943 -0.1483  0.6171
 4989TIP3    H136382   1.784   1.153   1.417 -0.3314 -0.0755  0.1642
 4989TIP3    H236383   1.782   1.018   1.351 -1.4214  0.5278 -1.0813
 4990TIP3   OH236384   0.291   5.426   0.769 -0.5337  0.0086 -0.0331
 4990TIP3    H136385   0.232   5.372   0.822  0.0932  0.0332  0.6968
 4990TIP3    H236386   0.376   5.383   0.776 -0.4780 -0.1004 -1.1887
 4991TIP3   OH236387   0.518   1.558   2.612  0.1555 -0.1466  0.3471
 4991TIP3    H136388   0.503   1.650   2.636  2.1206  0.4058 -0.4220
 4991TIP3    H236389   0.573   1.524   2.682 -0.7331 -0.8319  0.7362
 4992TIP3   OH236390   4.874   0.331   1.647 -0.2620  0.5410  0.8428
 4992TIP3    H136391   4.907   0.247   1.616 -0.5831 -0.5529  3.2070
 4992TIP3    H236392   4.782   0.331   1.620 -0.0318  0.5722  0.0287
 4993TIP3   OH236393   0.087   2.009  15.581 -0.0751  0.6263 -0.0027
 4993TIP3    H136394   0.075   1.934  15.524 -1.5678  0.4945  0.4563
 4993TIP3    H236395   0.083   1.973  15.670  1.2386  0.9692  0.2176
 4994TIP3   OH236396   1.311   0.804  11.355  0.4141  0.3487 -0.7953
 4994TIP3    H136397   1.354   0.735  11.406  1.6784 -0.2650 -2.5755
 4994TIP3    H236398   1.242   0.838  11.413  0.1690 -1.9633  0.3848
 4995TIP3   OH236399   2.173   0.299  16.904 -0.2980  0.0149  0.1627
 4995TIP3    H136400   2.146   0.257  16.986 -1.4392  0.9319  0.2845
 4995TIP3    H236401   2.229   0.371  16.931 -0.4130  0.1212  0.1183
 4996TIP3   OH236402   2.513   4.120   3.962  0.4639  0.4894  0.0856
 4996TIP3    H136403   2.564   4.195   3.991  1.0462 -0.7390  2.4811
 4996TIP3    H236404   2.577   4.062   3.921 -0.1226  1.5550 -2.6127
 4997TIP3   OH236405   0.017   1.968   3.003 -0.2567 -0.2951  0.4300
 4997TIP3    H136406   0.084   1.964   3.071 -1.3364  0.9493  1.6242
 4997TIP3    H236407  -0.066   1.975   3.051 -1.4381 -3.0243 -0.9478
 4998TIP3   OH236408   1.342   6.060  14.485 -0.3323  0.0119 -0.3134
 4998TIP3    H136409   1.315   6.119  14.416 -3.2579 -0.4693  0.2636
 4998TIP3    H236410   1.406   6.002  14.444 -1.2495  0.3528 -2.3377
 4999TIP3   OH236411   5.352   5.664   5.713 -1.0430 -0.2166  0.0213
 4999TIP3    H136412   5.398   5.639   5.633 -2.3758 -0.4811 -0.6880
 4999TIP3    H236413   5.421   5.671   5.779 -0.1797 -2.1136 -0.6218
 5000TIP3   OH236414   4.195   1.015   5.917 -0.0636  0.0167 -0.1717
 5000TIP3    H136415   4.103   1.009   5.892 -0.6738  1.6127  1.4931
 5000TIP3    H236416   4.200   0.971   6.001  0.9057 -0.8289 -0.6488
 5001TIP3   OH236417   1.580   3.097   5.603 -0.3367 -0.2475 -0.6024
 5001TIP3    H136418   1.504   3.084   5.547 -1.3492  0.5585  0.5287
 5001TIP3    H236419   1.544   3.127   5.686  1.3065  2.1897 -0.6596
 5002TIP3   OH236420   2.559   5.986  13.212  0.0394  0.1111  0.2881
 5002TIP3    H136421   2.609   5.936  13.277  0.5428  1.0089  0.5964
 5002TIP3    H236422   2.624   6.037  13.165 -0.4641  0.3966 -0.1078
 5003TIP3   OH236423   4.050   6.071  13.309 -0.1321  0.1694 -0.1043
 5003TIP3    H136424   4.090   6.138  13.254 -1.4156  1.8710  0.9071
 5003TIP3    H236425   4.011   6.120  13.381 -1.8720 -1.5924  0.2470
 5004TIP3   OH236426   0.685   1.903  13.713 -0.2525 -0.2327  0.0955
 5004TIP3    H136427   0.696   1.912  13.808  1.1638  2.6925 -0.2145
 5004TIP3    H236428   0.756   1.955  13.676  1.4368 -4.1190 -2.7371
 5005TIP3   OH236429   6.423   6.042  14.326 -0.3178  0.2146  0.2779
 5005TIP3    H136430   6.459   6.096  14.396  0.9955 -0.5769  0.2437
 5005TIP3    H236431   6.352   6.095  14.289  0.2694  1.4798  0.8962
 5006TIP3   OH236432   6.510   3.305  14.404 -0.1619  0.2507 -0.1046
 5006TIP3    H136433   6.442   3.285  14.469  0.5265 -0.9386  0.2817
 5006TIP3    H236434   6.592   3.290  14.451  0.3767 -1.9391 -1.5739
 5007TIP3   OH236435   2.147   3.630  14.103 -0.2693  0.1819 -0.0700
 5007TIP3    H136436   2.232   3.650  14.142 -0.2583 -0.2209  0.1181
 5007TIP3    H236437   2.083   3.675  14.158 -0.3761 -1.5741  1.3305
 5008TIP3   OH236438   1.184   0.066  15.304  0.0334  0.1422 -0.3758
 5008TIP3    H136439   1.229   0.035  15.383 -2.0907 -0.8664  0.5172
 5008TIP3    H236440   1.211   0.158  15.296  1.5628 -0.1934  0.5804
 5009TIP3   OH236441   1.099   5.626  16.086 -0.3036  0.2508  0.0584
 5009TIP3    H136442   1.122   5.675  16.007  1.1115  1.6079  1.2486
 5009TIP3    H236443   1.055   5.690  16.142 -1.0484 -0.6230  0.4942
 5010TIP3   OH236444   3.357   3.899   5.676 -0.4297 -0.3015  0.0908
 5010TIP3    H136445   3.362   3.865   5.765  0.8395  2.8164  1.3314
 5010TIP3    H236446   3.427   3.852   5.629 -0.3376 -1.1336  1.0367
 5011TIP3   OH236447   5.028   3.967  14.382  0.5395  0.0245  0.2318
 5011TIP3    H136448   5.012   3.953  14.289  2.0373  0.5502 -0.1338
 5011TIP3    H236449   4.987   4.051  14.401  0.7659  0.2154 -0.1093
 5012TIP3   OH236450   5.916   1.573  11.661 -0.2986  0.1544 -0.0220
 5012TIP3    H136451   5.874   1.509  11.718 -0.0614 -0.5841 -0.6496
 5012TIP3    H236452   5.930   1.650  11.716  1.5819 -1.1454  1.4510
 5013TIP3   OH236453   3.834   6.471   5.769 -0.1193 -1.1000 -0.0785
 5013TIP3    H136454   3.805   6.536   5.832 -2.7111 -4.3535  2.4453
 5013TIP3    H236455   3.916   6.437   5.805 -0.3428 -1.3117  0.2274
 5014TIP3   OH236456   3.032   3.973  13.507 -0.2871  0.8763 -0.0448
 5014TIP3    H136457   3.076   3.991  13.424 -0.3067 -2.5795 -0.9532
 5014TIP3    H236458   3.103   3.974  13.571  0.2834  0.4789 -0.6482
 5015TIP3   OH236459   3.293   1.742  12.907 -0.0228  0.2982  0.5656
 5015TIP3    H136460   3.342   1.691  12.842 -1.8322  0.2177 -0.8058
 5015TIP3    H236461   3.361   1.789  12.956  1.4715 -0.3782 -0.7533
 5016TIP3   OH236462   2.981   5.416  15.363  0.1359 -0.4593 -0.6516
 5016TIP3    H136463   2.910   5.390  15.420 -1.4050 -0.5558 -2.5201
 5016TIP3    H236464   2.980   5.512  15.364 -0.2791 -0.4588 -0.9652
 5017TIP3   OH236465   5.281   3.123   5.413 -0.2126  0.3453 -0.4651
 5017TIP3    H136466   5.363   3.129   5.364 -0.4386  0.4904 -0.8267
 5017TIP3    H236467   5.238   3.207   5.399 -0.4592  0.2427 -0.3347
 5018TIP3   OH236468   2.955   5.547   1.265 -0.2205 -0.0454  0.7026
 5018TIP3    H136469   2.920   5.636   1.257 -0.5347 -0.1367  1.0352
 5018TIP3    H236470   2.888   5.491   1.227  0.3940 -0.0725 -0.3966
 5019TIP3   OH236471   2.141   1.173  11.180 -0.2086  0.2010  0.2762
 5019TIP3    H136472   2.171   1.082  11.175 -0.0826  0.2832 -0.7683
 5019TIP3    H236473   2.121   1.196  11.089  1.0036  1.6337  0.3295
 5020TIP3   OH236474   0.328   0.280  11.231  0.3144  0.0911  0.0450
 5020TIP3    H136475   0.389   0.269  11.159 -0.3836 -0.9070 -0.4113
 5020TIP3    H236476   0.323   0.375  11.244 -0.5082  0.3956 -2.0614
 5021TIP3   OH236477   5.961   0.054  16.081 -0.2475  0.1001 -0.1997
 5021TIP3    H136478   5.885   0.034  16.136  0.0678  0.8612  0.5516
 5021TIP3    H236479   6.032   0.002  16.119  0.1669  1.2526  0.6721
 5022TIP3   OH236480   5.136   5.289   0.650  0.0513  0.1936 -0.2205
 5022TIP3    H136481   5.068   5.229   0.619  0.8598 -0.8881  0.0435
 5022TIP3    H236482   5.129   5.286   0.745 -0.0730  0.7175 -0.2130
 5023TIP3   OH236483   0.556   3.026  12.112 -0.1468  0.2053  0.1680
 5023TIP3    H136484   0.491   3.086  12.075  0.5294  0.7219 -0.2062
 5023TIP3    H236485   0.610   3.082  12.169  1.1455  0.1957 -0.9867
 5024TIP3   OH236486   4.702   5.094   0.594  0.2708  0.1360  0.2300
 5024TIP3    H136487   4.686   5.138   0.677  1.4628 -0.6200  0.9107
 5024TIP3    H236488   4.657   5.010   0.602  0.2479  0.1301  0.0466
 5025TIP3   OH236489   0.364   0.075  11.800 -0.7527  0.4424 -0.1354
 5025TIP3    H136490   0.386   0.116  11.717  0.4618 -1.2639 -0.7219
 5025TIP3    H236491   0.291   0.017  11.780  0.5971 -1.2243 -0.4566
 5026TIP3   OH236492   0.526   1.991  16.504  0.2971  0.2665 -0.1413
 5026TIP3    H136493   0.528   2.035  16.419  0.2114 -0.3349 -0.4620
 5026TIP3    H236494   0.580   2.046  16.561 -0.0115  0.9150 -0.4635
 5027TIP3   OH236495   5.214   5.201   2.596  0.2159  0.1705  0.1517
 5027TIP3    H136496   5.166   5.125   2.563  1.4672  0.5019 -2.7149
 5027TIP3    H236497   5.161   5.276   2.568  0.2791  0.4339  0.7265
 5028TIP3   OH236498   4.637   2.302  12.015 -0.0935  0.3469 -0.0338
 5028TIP3    H136499   4.643   2.207  12.013  1.2970  0.4271 -1.3038
 5028TIP3    H236500   4.728   2.332  12.012 -0.4704  1.7263  1.1410
 5029TIP3   OH236501   1.353   0.311   0.466 -0.0576  0.2055 -0.2481
 5029TIP3    H136502   1.321   0.222   0.471 -0.9324  0.4962 -0.5675
 5029TIP3    H236503   1.388   0.330   0.553  0.5249 -0.5795 -0.3012
 5030TIP3   OH236504   3.439   1.588  12.150  0.3807  0.4150 -0.1651
 5030TIP3    H136505   3.505   1.529  12.185  0.2642  0.4915  0.1858
 5030TIP3    H236506   3.490   1.658  12.108  0.5210  0.2922 -0.1986
 5031TIP3   OH236507   2.284   0.968  13.317 -0.0981 -0.2590 -0.1532
 5031TIP3    H136508   2.377   0.994  13.316 -0.0066 -0.5915 -0.2253
 5031TIP3    H236509   2.240   1.038  13.268  0.0354  0.1873  0.3465
 5032TIP3   OH236510   6.293   5.311   0.141  0.8586  0.1154 -0.1895
 5032TIP3    H136511   6.304   5.220   0.114  1.1596 -0.2638  1.1108
 5032TIP3    H236512   6.300   5.308   0.237 -1.7219  1.1271  0.1092
 5033TIP3   OH236513   5.526   4.875   3.859 -0.3101  0.2140 -0.0727
 5033TIP3    H136514   5.541   4.886   3.953 -0.6402 -1.0891  0.1473
 5033TIP3    H236515   5.435   4.847   3.852  0.2296 -1.5197 -0.6246
 5034TIP3   OH236516   2.018   6.172   1.316  0.1976  0.1329  0.3532
 5034TIP3    H136517   1.940   6.136   1.275 -0.1542  2.1213 -0.8052
 5034TIP3    H236518   1.990   6.196   1.404  0.4958 -2.4755  1.2478
 5035TIP3   OH236519   2.289   6.407   0.811 -0.2291 -0.1436  0.1389
 5035TIP3    H136520   2.343   6.418   0.733  0.8322 -0.5791  0.7766
 5035TIP3    H236521   2.288   6.493   0.852 -0.4703 -0.0057 -0.1522
 5036TIP3   OH236522   6.679   5.687   0.287 -0.1969 -0.4511 -0.6350
 5036TIP3    H136523   6.769   5.691   0.318 -0.2384 -1.0791 -0.4186
 5036TIP3    H236524   6.626   5.706   0.365 -0.2440  3.1257 -1.3526
 5037TIP3   OH236525   4.414   2.252  15.126 -0.5031 -0.2002  0.1126
 5037TIP3    H136526   4.475   2.323  15.106 -0.4958 -0.1933  0.1580
 5037TIP3    H236527   4.357   2.248  15.050 -1.3510  0.7488  0.6675
 5038TIP3   OH236528   6.325   5.313  15.504  0.0834 -0.6070  0.1152
 5038TIP3    H136529   6.395   5.378  15.490 -2.3444  2.0627 -0.5152
 5038TIP3    H236530   6.342   5.246  15.438  0.7117  1.2446 -1.7395
 5039TIP3   OH236531   3.983   6.128   1.489  0.0130  0.0370 -0.1925
 5039TIP3    H136532   4.000   6.056   1.428  0.8755 -0.2787  0.4193
 5039TIP3    H236533   3.993   6.090   1.576  0.0436  0.7923  0.1441
 5040TIP3   OH236534   2.328   0.487  16.445  0.5026  0.5930 -0.2169
 5040TIP3    H136535   2.239   0.512  16.470  1.1291  2.0764  0.6879
 5040TIP3    H236536   2.317   0.422  16.376 -1.3223 -1.6868  2.0574
 5041TIP3   OH236537   5.043   3.153   3.337 -0.4054 -0.3663 -0.7221
 5041TIP3    H136538   5.070   3.083   3.396 -2.6316 -1.1477 -0.5493
 5041TIP3    H236539   4.989   3.110   3.270 -1.2487  1.0622 -1.0126
 5042TIP3   OH236540   3.438   1.493  14.026  0.3429  0.0809 -0.2996
 5042TIP3    H136541   3.436   1.525  13.936  0.7020 -1.0379 -0.7145
 5042TIP3    H236542   3.366   1.430  14.031  1.8857 -1.8029 -0.5774
 5043TIP3   OH236543   6.435   4.934  15.863 -0.1335 -0.6117 -0.4509
 5043TIP3    H136544   6.519   4.910  15.825  0.6247 -0.0648  0.8327
 5043TIP3    H236545   6.389   4.979  15.792  0.8951 -0.3629 -0.9821
 5044TIP3   OH236546   4.931   0.871   0.669  0.2106  0.5194 -0.4088
 5044TIP3    H136547   4.896   0.787   0.698 -0.2672  1.1043  0.7985
 5044TIP3    H236548   4.985   0.901   0.742 -0.6995  1.8634 -0.2494
 5045TIP3   OH236549   3.678   2.251   1.015 -0.0495 -0.0878  0.5821
 5045TIP3    H136550   3.622   2.244   0.938  0.3717 -0.0508  0.2662
 5045TIP3    H236551   3.707   2.342   1.016  0.0705 -0.1270  0.6913
 5046TIP3   OH236552   1.775   6.382  13.716 -0.2154 -0.4854 -0.5296
 5046TIP3    H136553   1.681   6.376  13.699 -0.2553  0.6148 -0.7847
 5046TIP3    H236554   1.782   6.441  13.791  0.2526 -0.8888 -0.2519
 5047TIP3   OH236555   2.104   3.132   4.115  0.9787 -0.0392  0.1229
 5047TIP3    H136556   2.162   3.114   4.041 -1.3116 -2.1781 -1.3205
 5047TIP3    H236557   2.053   3.208   4.087 -0.1173 -1.0484 -0.7316
 5048TIP3   OH236558   4.803   4.576  13.060  0.4545  0.4589  0.2475
 5048TIP3    H136559   4.814   4.507  13.125  1.1346  0.0309 -0.3019
 5048TIP3    H236560   4.759   4.647  13.107  0.9632  0.1765  1.1698
 5049TIP3   OH236561   6.689   2.983   0.682 -0.2074  0.3372 -0.1732
 5049TIP3    H136562   6.624   2.989   0.752 -1.1867  2.5709 -1.1649
 5049TIP3    H236563   6.648   2.928   0.615  0.2392 -0.8074  0.4690
 5050TIP3   OH236564   6.691   2.550   2.240  0.0504 -0.6540  0.3111
 5050TIP3    H136565   6.642   2.623   2.203  1.0223 -0.0498  0.1885
 5050TIP3    H236566   6.666   2.549   2.333  0.3288  0.0874  0.4001
 5051TIP3   OH236567   2.744   1.448  13.919  0.4140 -0.7836 -0.1310
 5051TIP3    H136568   2.661   1.453  13.968 -0.8358 -0.3373 -2.1567
 5051TIP3    H236569   2.747   1.358  13.887  0.1317 -0.5104 -0.9572
 5052TIP3   OH236570   1.118   0.880  16.209  0.3593 -0.1629  0.5090
 5052TIP3    H136571   1.151   0.970  16.209  0.9106 -0.3586  1.2063
 5052TIP3    H236572   1.177   0.833  16.268  0.2291 -1.0415 -0.0393
 5053TIP3   OH236573   2.782   2.558  12.194  0.0787 -0.3062 -0.0809
 5053TIP3    H136574   2.820   2.521  12.273 -1.0881 -1.1301  0.1121
 5053TIP3    H236575   2.806   2.496  12.125  1.7547  0.7945 -0.5662
 5054TIP3   OH236576   2.111   3.461   2.209  0.1492 -0.2696 -0.3705
 5054TIP3    H136577   2.091   3.502   2.125  1.1934  0.1607 -0.4207
 5054TIP3    H236578   2.200   3.489   2.229 -1.6266  3.9675  3.4102
 5055TIP3   OH236579   4.825   2.010  11.414  0.1345  0.3959 -0.0768
 5055TIP3    H136580   4.888   2.077  11.389  0.0066  2.1422  3.5942
 5055TIP3    H236581   4.873   1.952  11.473 -0.7296 -0.5295 -0.2423
 5056TIP3   OH236582   4.697   0.967   4.645 -0.1153  0.2210  0.4209
 5056TIP3    H136583   4.762   1.021   4.599 -0.6585 -0.1358 -0.8152
 5056TIP3    H236584   4.649   1.029   4.700  0.9287  0.5680  0.9727
 5057TIP3   OH236585   0.723   1.692   4.527  0.5764 -0.1992 -0.1474
 5057TIP3    H136586   0.687   1.661   4.610  1.8730 -0.6965  0.2561
 5057TIP3    H236587   0.719   1.616   4.470 -1.8351  0.5559 -1.1333
 5058TIP3   OH236588   0.812   3.237   2.461 -0.4691 -0.6190 -0.5445
 5058TIP3    H136589   0.899   3.209   2.435  0.2430  2.1518 -1.4546
 5058TIP3    H236590   0.768   3.259   2.380 -1.1774  0.2791  0.0676
 5059TIP3   OH236591   3.872   2.153  17.071 -0.0795 -0.3267 -0.1212
 5059TIP3    H136592   3.830   2.143  17.157  0.8994  0.9769  0.5393
 5059TIP3    H236593   3.804   2.193  17.017 -0.2733  0.0998  0.4266
 5060TIP3   OH236594   0.488   1.844   1.065 -0.3436 -0.1289 -0.1158
 5060TIP3    H136595   0.577   1.867   1.038  0.2475 -1.0619  0.9425
 5060TIP3    H236596   0.485   1.749   1.057 -1.5049 -0.0526 -0.8283
 5061TIP3   OH236597   1.370   0.742  15.950 -0.5204 -0.3517  0.1099
 5061TIP3    H136598   1.324   0.826  15.946 -1.9128 -0.9849  1.4468
 5061TIP3    H236599   1.432   0.753  16.022  0.3939  0.0027 -0.7084
 5062TIP3   OH236600   5.794   3.272  15.976  0.1189  0.2628  0.2584
 5062TIP3    H136601   5.746   3.265  16.059 -0.3414 -1.1255 -0.0879
 5062TIP3    H236602   5.734   3.237  15.910  1.2962 -0.7664 -0.3201
 5063TIP3   OH236603   3.232   3.316   1.431  0.7795 -0.4153  0.0318
 5063TIP3    H136604   3.313   3.351   1.469  0.9390  0.0487 -0.7097
 5063TIP3    H236605   3.230   3.353   1.342  0.1577 -1.0605 -0.2265
 5064TIP3   OH236606   5.661   4.062  15.496  0.5117  0.2889  0.8642
 5064TIP3    H136607   5.699   4.125  15.435 -0.4461  0.2145  0.1733
 5064TIP3    H236608   5.686   4.094  15.583  1.5293  0.6268  0.4545
 5065TIP3   OH236609   2.273   0.036  16.362  0.4880 -0.0128  0.1799
 5065TIP3    H136610   2.179   0.029  16.347  0.5769 -0.2923 -0.2493
 5065TIP3    H236611   2.313   0.028  16.276  0.9340 -0.4620  0.4172
 5066TIP3   OH236612   5.952   0.707  12.381  0.4180 -0.9107  0.6743
 5066TIP3    H136613   5.867   0.680  12.345  0.3463 -0.0512  0.1468
 5066TIP3    H236614   5.980   0.778  12.323  1.4408 -1.1000  0.9202
 5067TIP3   OH236615   4.890   2.395   3.255  0.7383  0.3494  0.0667
 5067TIP3    H136616   4.984   2.375   3.254  0.6040 -0.5853  2.0181
 5067TIP3    H236617   4.886   2.489   3.273  1.2887  0.6312 -1.1745
 5068TIP3   OH236618   3.361   0.500   1.857 -0.3665 -0.2709 -0.4353
 5068TIP3    H136619   3.450   0.474   1.833 -0.0347 -0.1721  0.6249
 5068TIP3    H236620   3.342   0.575   1.801  0.0707 -0.5284 -0.9371
 5069TIP3   OH236621   4.035   3.571  17.043  0.6969  0.2148 -0.0998
 5069TIP3    H136622   4.112   3.563  16.987  0.4815  1.7131 -0.6552
 5069TIP3    H236623   3.960   3.559  16.984  0.4813 -0.6756  0.3328
 5070TIP3   OH236624   5.772   5.237   3.182 -0.2007 -0.2829  0.1718
 5070TIP3    H136625   5.742   5.220   3.271 -0.8201 -4.2052 -0.6202
 5070TIP3    H236626   5.693   5.238   3.129  0.2838  0.4684 -0.5750
 5071TIP3   OH236627   4.839   4.786   4.130 -0.8535  0.3264  0.9264
 5071TIP3    H136628   4.819   4.737   4.050 -1.9623 -0.2209  1.5210
 5071TIP3    H236629   4.915   4.840   4.106  0.6703 -1.9117  0.3355
 5072TIP3   OH236630   3.741   4.372  13.953 -0.0745  0.3429  0.1984
 5072TIP3    H136631   3.744   4.454  14.002  0.4619  0.5623 -0.1891
 5072TIP3    H236632   3.781   4.308  14.012 -1.0667  0.2156  0.7505
 5073TIP3   OH236633   6.577   0.370  16.313 -0.0952 -0.5055 -0.0455
 5073TIP3    H136634   6.585   0.433  16.384 -0.5723  2.4329 -2.4305
 5073TIP3    H236635   6.484   0.345  16.313  0.0463 -1.0596  0.7467
 5074TIP3   OH236636   1.139   4.506   1.376 -0.7276  0.2050  0.2049
 5074TIP3    H136637   1.216   4.517   1.320 -1.7262 -1.0108 -1.4978
 5074TIP3    H236638   1.115   4.596   1.400  0.6721  0.6552  0.0536
 5075TIP3   OH236639   5.759   6.569   0.403  0.2151 -0.4588 -0.0647
 5075TIP3    H136640   5.747   6.487   0.355  0.5716 -1.0072  0.7660
 5075TIP3    H236641   5.854   6.583   0.406  0.2042 -0.4673  0.5264
 5076TIP3   OH236642   5.183   6.079   0.722  0.2766  0.0039 -0.0461
 5076TIP3    H136643   5.235   6.011   0.765  0.4703  0.3377  0.2481
 5076TIP3    H236644   5.196   6.157   0.775  0.1001  0.2889 -0.4168
 5077TIP3   OH236645   3.734   6.067   4.037 -0.2009  0.1123 -0.2048
 5077TIP3    H136646   3.642   6.041   4.029  0.5710 -2.5122 -2.1863
 5077TIP3    H236647   3.776   5.994   4.083  0.9018  1.3570  0.8501
 5078TIP3   OH236648   1.195   1.863  16.697 -0.2134  0.3102 -0.0955
 5078TIP3    H136649   1.241   1.779  16.700 -0.1613  0.2369 -1.6818
 5078TIP3    H236650   1.102   1.840  16.706 -0.2768 -0.0557 -1.3611
 5079TIP3   OH236651   0.799   4.869   2.704 -0.1017 -0.5478  0.4416
 5079TIP3    H136652   0.767   4.804   2.765  0.5316  0.5397  1.9892
 5079TIP3    H236653   0.862   4.822   2.649  0.5021 -1.1957  1.6600
 5080TIP3   OH236654   3.308   6.189  13.525 -0.3325 -0.0613 -0.1590
 5080TIP3    H136655   3.274   6.185  13.436  0.8418  0.7952 -0.6797
 5080TIP3    H236656   3.392   6.235  13.516  0.1028 -0.5200  1.2999
 5081TIP3   OH236657   1.074   5.975  13.370  0.1652  0.6664  0.8192
 5081TIP3    H136658   1.125   5.900  13.400 -0.8417 -0.1041  0.6416
 5081TIP3    H236659   1.132   6.020  13.308 -0.1413 -1.4446 -1.1191
 5082TIP3   OH236660   6.218   5.460   3.368  0.1597 -1.0025  0.3042
 5082TIP3    H136661   6.293   5.490   3.317 -0.4395 -0.3878 -0.2315
 5082TIP3    H236662   6.187   5.382   3.322 -0.4091 -0.4219 -0.3127
 5083TIP3   OH236663   2.393   3.578  13.836 -0.3905  0.0230 -0.0286
 5083TIP3    H136664   2.375   3.535  13.752 -1.3958  1.1788 -0.4467
 5083TIP3    H236665   2.447   3.516  13.884  0.0409 -0.7586 -1.4567
 5084TIP3   OH236666   5.104   4.034  12.169  0.0127 -0.4615 -0.2162
 5084TIP3    H136667   5.117   4.087  12.248  0.2226  0.4746 -0.8597
 5084TIP3    H236668   5.150   3.952  12.186 -0.7939 -0.6791  1.0273
 5085TIP3   OH236669   3.245   0.653  16.751 -0.4697 -0.2615  0.0376
 5085TIP3    H136670   3.205   0.705  16.821  1.3247 -1.5651  2.1466
 5085TIP3    H236671   3.329   0.696  16.734  0.5008 -1.7243  0.9683
 5086TIP3   OH236672   5.114   3.387  13.193 -0.2927 -0.0682  0.5187
 5086TIP3    H136673   5.051   3.447  13.153 -1.1119 -1.7303 -0.8762
 5086TIP3    H236674   5.200   3.422  13.169 -0.7369 -0.5911 -2.2911
 5087TIP3   OH236675   1.600   1.256   2.561 -0.1563  0.2042  0.4252
 5087TIP3    H136676   1.591   1.272   2.467  1.0900  1.0766  0.4310
 5087TIP3    H236677   1.682   1.299   2.585  0.8526 -2.0730  1.4329
 5088TIP3   OH236678   4.593   2.916  14.217 -0.3860  0.5442  0.3638
 5088TIP3    H136679   4.605   2.992  14.274 -0.6445  0.5319  0.4375
 5088TIP3    H236680   4.679   2.900  14.179  0.1566 -0.3698  1.9133
 5089TIP3   OH236681   2.764   3.476   3.178  0.3102  0.5999 -0.0713
 5089TIP3    H136682   2.760   3.389   3.219 -0.9744  0.5300 -0.3082
 5089TIP3    H236683   2.733   3.536   3.246  1.4593  0.9292  0.1860
 5090TIP3   OH236684   0.227   0.087   2.073  0.1499 -0.2625 -0.3643
 5090TIP3    H136685   0.186   0.173   2.076  1.7037  0.5418 -1.0763
 5090TIP3    H236686   0.162   0.028   2.111 -0.8802  1.2371  0.2920
 5091TIP3   OH236687   0.294   5.391  16.737 -0.6771  0.0257  0.7854
 5091TIP3    H136688   0.321   5.314  16.787  1.3509  0.1262 -0.0437
 5091TIP3    H236689   0.200   5.380  16.723 -1.0330 -0.7423  3.2838
 5092TIP3   OH236690   3.228   5.469  17.545 -0.3424  0.5114 -0.1479
 5092TIP3    H136691   3.136   5.473  17.517  0.0227 -0.8920 -1.7229
 5092TIP3    H236692   3.245   5.376  17.558  1.0439  0.6815 -0.5746
 5093TIP3   OH236693   1.519   2.951   3.195 -0.4109  0.8127 -0.3615
 5093TIP3    H136694   1.482   3.039   3.191 -1.2600  0.5088  0.4437
 5093TIP3    H236695   1.452   2.895   3.156  0.6017  0.6261 -1.9682
 5094TIP3   OH236696   6.545   4.612   4.150  0.1579  0.2425 -0.2901
 5094TIP3    H136697   6.501   4.690   4.183  1.6474  2.2169 -2.6360
 5094TIP3    H236698   6.513   4.541   4.206 -1.0714  2.5268  2.1336
 5095TIP3   OH236699   3.067   5.620   5.609 -0.0424 -0.2422  0.0959
 5095TIP3    H136700   3.157   5.587   5.604  0.8321  1.9732  0.0145
 5095TIP3    H236701   3.032   5.583   5.689  1.0043 -1.0215  0.2126
 5096TIP3   OH236702   0.225   5.839   2.075  0.1552  0.1406 -0.0087
 5096TIP3    H136703   0.229   5.875   1.986 -0.5194 -0.0975 -0.1428
 5096TIP3    H236704   0.234   5.745   2.062 -1.9968 -0.1054 -0.0358
 5097TIP3   OH236705   3.383   0.689   1.523  0.1756 -0.2927 -0.3159
 5097TIP3    H136706   3.388   0.712   1.616 -1.4652  1.6248 -0.6378
 5097TIP3    H236707   3.474   0.685   1.494  0.6908  2.9527  0.5256
 5098TIP3   OH236708   6.030   6.658  15.642  0.0186  0.4035 -0.0685
 5098TIP3    H136709   5.964   6.722  15.614  0.1040  0.8778  0.7855
 5098TIP3    H236710   6.108   6.711  15.660 -0.3904  0.3167  2.2391
 5099TIP3   OH236711   2.367   2.813  16.613 -0.2539  0.2766  0.4765
 5099TIP3    H136712   2.463   2.815  16.609 -0.2100 -0.6862  0.9070
 5099TIP3    H236713   2.341   2.764  16.535 -0.3681  0.0083  0.6822
 5100TIP3   OH236714   1.413   1.541   2.358  0.0537 -0.1645  0.2683
 5100TIP3    H136715   1.415   1.466   2.299 -2.9434  0.6098 -0.9611
 5100TIP3    H236716   1.350   1.517   2.426 -1.2336  1.3158 -0.3500
 5101TIP3   OH236717   4.718   5.819   0.662  0.1304  1.1145 -0.2126
 5101TIP3    H136718   4.707   5.825   0.567 -0.3389 -0.6048 -0.3037
 5101TIP3    H236719   4.630   5.834   0.698 -0.4909 -1.6764 -0.3086
 5102TIP3   OH236720   0.948   5.819  16.190  0.2948 -0.0450 -0.9246
 5102TIP3    H136721   0.933   5.876  16.265 -0.2342 -0.7156 -0.5103
 5102TIP3    H236722   0.911   5.867  16.116 -0.7097 -0.1172 -0.4801
 5103TIP3   OH236723   1.833   6.487   1.615 -0.4389 -0.0420 -0.5058
 5103TIP3    H136724   1.861   6.527   1.697 -0.6055  0.4311 -0.6750
 5103TIP3    H236725   1.902   6.510   1.553 -0.6932  0.2658 -0.6798
 5104TIP3   OH236726   0.639   0.632  13.120 -0.0312 -0.7441 -0.1436
 5104TIP3    H136727   0.626   0.727  13.121 -3.0048 -1.0793  0.2038
 5104TIP3    H236728   0.636   0.609  13.027  0.3355 -0.5410 -0.2066
 5105TIP3   OH236729   1.886   4.464  11.280  0.4889 -0.0755  0.0985
 5105TIP3    H136730   1.811   4.465  11.220  0.2217 -0.9803  0.4061
 5105TIP3    H236731   1.906   4.557  11.293 -1.0147  0.2268  0.5290
 5106TIP3   OH236732   0.451   2.208  15.197 -1.0459  0.4123 -0.3536
 5106TIP3    H136733   0.400   2.260  15.260 -1.5026  0.3321 -0.6536
 5106TIP3    H236734   0.401   2.213  15.116 -0.4190  0.5731 -0.7317
 5107TIP3   OH236735   4.950   1.936   5.253 -0.4651  0.5414  0.0610
 5107TIP3    H136736   5.004   2.004   5.293  0.3287 -0.1409  0.1982
 5107TIP3    H236737   4.982   1.855   5.292  1.4159 -0.3538 -3.0159
 5108TIP3   OH236738   4.598   2.213   3.459 -0.3062 -0.1987 -0.6643
 5108TIP3    H136739   4.585   2.291   3.407 -0.5390  0.3711  0.2213
 5108TIP3    H236740   4.659   2.159   3.408 -1.0400  0.0311 -1.8135
 5109TIP3   OH236741   2.981   1.040  17.027  0.4078  0.4107 -0.2412
 5109TIP3    H136742   2.924   0.964  17.020  0.7902  0.0957  0.0109
 5109TIP3    H236743   2.960   1.078  17.112  1.0174 -0.0747  0.1333
 5110TIP3   OH236744   3.700   1.954  11.840  0.3053 -0.6878 -0.8008
 5110TIP3    H136745   3.779   2.007  11.836  0.5526 -0.7722  1.5258
 5110TIP3    H236746   3.731   1.864  11.852  0.0506 -0.4381  3.2149
 5111TIP3   OH236747   0.166   3.494  12.529 -0.0439 -0.5092 -0.5803
 5111TIP3    H136748   0.210   3.485  12.614 -2.4157  2.2086  1.1148
 5111TIP3    H236749   0.185   3.412  12.483  1.7785 -1.8719  2.3305
 5112TIP3   OH236750   2.013   3.713  10.366 -0.2484 -0.4036  0.2487
 5112TIP3    H136751   2.077   3.778  10.336  0.1850 -0.7512  0.4030
 5112TIP3    H236752   1.928   3.756  10.356  0.0756  0.4243  0.9656
 5113TIP3   OH236753   4.525   4.863  14.453 -0.4297 -0.0411  0.6353
 5113TIP3    H136754   4.577   4.804  14.508  0.2170  0.2262  0.3197
 5113TIP3    H236755   4.542   4.950  14.488  0.5846  0.2214 -0.4274
 5114TIP3   OH236756   0.293   3.350  16.718 -0.2721  0.2649 -0.1667
 5114TIP3    H136757   0.229   3.290  16.679  0.5858 -0.4962 -0.4236
 5114TIP3    H236758   0.244   3.398  16.785 -0.7699 -1.3255  0.6462
 5115TIP3   OH236759   1.715   0.241   5.325 -0.4406  0.0679 -0.1268
 5115TIP3    H136760   1.643   0.179   5.334  0.4892 -1.2871 -1.3556
 5115TIP3    H236761   1.791   0.186   5.303  0.4603  1.6313 -1.1310
 5116TIP3   OH236762   5.793   0.085  12.188  0.3604 -0.5571 -0.8517
 5116TIP3    H136763   5.767   0.044  12.271 -1.0901  2.3049  0.2360
 5116TIP3    H236764   5.817   0.174  12.212  0.4610  0.1912 -3.4732
 5117TIP3   OH236765   5.431   1.910  13.353  0.0577 -0.0780 -0.4406
 5117TIP3    H136766   5.428   1.854  13.275 -0.1825  0.7955 -1.0742
 5117TIP3    H236767   5.349   1.892  13.399  0.4889 -1.0681 -0.0442
 5118TIP3   OH236768   1.393   1.529   0.670  0.1436  0.0122 -0.4021
 5118TIP3    H136769   1.457   1.576   0.724  0.9871 -0.6416 -0.8230
 5118TIP3    H236770   1.374   1.449   0.719 -1.0585  0.6025  0.1606
 5119TIP3   OH236771   6.038   6.004   0.779 -0.5980 -0.0120 -0.1365
 5119TIP3    H136772   6.111   6.046   0.735  0.2218 -1.3034 -0.0571
 5119TIP3    H236773   6.056   6.013   0.872 -1.7836  1.7642 -0.0343
 5120TIP3   OH236774   5.767   0.171  13.273 -0.7548  0.0718 -0.2037
 5120TIP3    H136775   5.813   0.116  13.336  3.0984  1.2228 -1.7008
 5120TIP3    H236776   5.756   0.116  13.196  0.1015  0.3816 -0.5615
 5121TIP3   OH236777   2.723   2.836   3.811 -0.3559  0.1398 -0.0893
 5121TIP3    H136778   2.691   2.761   3.861 -0.5360 -0.0965 -0.5499
 5121TIP3    H236779   2.653   2.901   3.817  0.0169  0.4781  0.7406
 5122TIP3   OH236780   4.312   2.403  16.448 -0.1842  0.0873 -0.5970
 5122TIP3    H136781   4.268   2.469  16.394 -1.0762 -2.2994 -2.9640
 5122TIP3    H236782   4.368   2.356  16.387  1.3372 -0.6260  1.2768
 5123TIP3   OH236783   4.200   5.690   3.919 -0.1305 -0.1238 -0.0134
 5123TIP3    H136784   4.277   5.688   3.976  0.3280  0.1172 -0.6187
 5123TIP3    H236785   4.227   5.742   3.843 -1.6389  2.0811  0.8356
 5124TIP3   OH236786   3.054   2.159  16.231  0.1354  0.1901  0.0717
 5124TIP3    H136787   3.040   2.069  16.201  1.7219  0.1500 -0.6517
 5124TIP3    H236788   3.022   2.159  16.322  0.5528 -1.2312  0.2461
 5125TIP3   OH236789   5.364   0.182  16.010  0.1323  0.5135  0.0695
 5125TIP3    H136790   5.381   0.234  15.932  0.9221  1.6566  0.9641
 5125TIP3    H236791   5.437   0.121  16.015 -0.2651 -0.0073 -0.4358
 5126TIP3   OH236792   4.858   2.934  14.185 -0.3718 -0.0553  0.7833
 5126TIP3    H136793   4.855   2.855  14.130 -1.5846 -0.1494  0.9720
 5126TIP3    H236794   4.929   2.986  14.147 -0.7700 -0.4027 -0.4873
 5127TIP3   OH236795   0.504   3.549   3.655  0.5335  0.0540  0.1036
 5127TIP3    H136796   0.414   3.539   3.685  1.0700 -0.5955  1.5754
 5127TIP3    H236797   0.515   3.643   3.641  0.0302  0.2929  1.2578
 5128TIP3   OH236798   4.342   2.038   5.252  0.1449  0.3713 -0.7752
 5128TIP3    H136799   4.399   2.072   5.320  1.3950 -0.3247 -1.4315
 5128TIP3    H236800   4.333   2.109   5.189  0.9519  0.2447 -1.0503
 5129TIP3   OH236801   5.638   1.478  13.194 -0.3868 -0.1157 -0.2587
 5129TIP3    H136802   5.688   1.401  13.221  0.9022  1.0876  1.0152
 5129TIP3    H236803   5.567   1.483  13.257 -0.2690 -0.0890 -0.1257
 5130TIP3   OH236804   6.386   4.565   1.618 -0.2104 -0.0113 -0.0966
 5130TIP3    H136805   6.391   4.657   1.594 -0.5118  0.1505  0.4682
 5130TIP3    H236806   6.473   4.530   1.599 -0.1063  0.3781 -0.3355
 5131TIP3   OH236807   3.232   4.507   1.487  0.5515 -0.7441 -0.0606
 5131TIP3    H136808   3.183   4.429   1.462 -1.4342 -0.1744  1.8071
 5131TIP3    H236809   3.263   4.544   1.404 -1.4115 -1.6479 -1.2461
 5132TIP3   OH236810   1.975   5.419   2.052  0.5610  0.1937  0.5594
 5132TIP3    H136811   1.978   5.328   2.024 -1.0611  0.1847  0.3015
 5132TIP3    H236812   2.058   5.433   2.098 -0.1474 -2.1212  2.7746
 5133TIP3   OH236813   5.409   2.889   5.101  0.1164 -0.6713  0.2426
 5133TIP3    H136814   5.480   2.834   5.069 -1.0351 -1.9075 -0.2787
 5133TIP3    H236815   5.333   2.864   5.049 -0.3736  1.7662 -0.3463
 5134TIP3   OH236816   4.956   4.159  13.494  0.2080 -0.8457 -0.2151
 5134TIP3    H136817   5.041   4.125  13.467  1.0004  1.9642 -1.5105
 5134TIP3    H236818   4.971   4.252  13.510 -1.7319 -0.9660  3.6012
 5135TIP3   OH236819   0.965   3.929  15.391 -0.3016  0.5335  0.1296
 5135TIP3    H136820   0.941   3.899  15.303  2.6216  0.1224 -0.6319
 5135TIP3    H236821   1.022   4.005  15.375  2.3211 -1.0326  1.4744
 5136TIP3   OH236822   3.763   5.614   2.625  0.1930 -0.4180  0.6947
 5136TIP3    H136823   3.789   5.585   2.712 -0.0726 -0.5019  0.7468
 5136TIP3    H236824   3.703   5.687   2.640 -0.0302 -0.5767  0.5908
 5137TIP3   OH236825   5.672   2.482   3.520 -0.2339  0.0782  0.2909
 5137TIP3    H136826   5.614   2.520   3.586  1.0703  0.7239  1.1062
 5137TIP3    H236827   5.687   2.392   3.550 -0.6139 -0.0100  0.2154
 5138TIP3   OH236828   0.459   6.029   2.381  0.1921  0.1452 -0.0205
 5138TIP3    H136829   0.469   6.122   2.398  0.3328  0.1736 -0.2600
 5138TIP3    H236830   0.547   5.993   2.391  0.2955  0.1772 -0.7893
 5139TIP3   OH236831   5.525   4.467  11.185  0.5684  0.1506  0.6101
 5139TIP3    H136832   5.557   4.512  11.107 -0.6856  1.5138  0.8460
 5139TIP3    H236833   5.603   4.454  11.239  1.3866 -0.4817 -0.6866
 5140TIP3   OH236834   2.492   6.395  14.695 -0.6353 -0.3033 -0.1095
 5140TIP3    H136835   2.444   6.447  14.631 -0.7070  0.4566  0.5436
 5140TIP3    H236836   2.446   6.410  14.777 -0.2022 -0.8064  0.2340
 5141TIP3   OH236837   5.241   3.310  17.338  0.0189  0.9497 -0.0927
 5141TIP3    H136838   5.244   3.215  17.349 -1.1932  1.0304  1.1767
 5141TIP3    H236839   5.171   3.325  17.275 -0.5509  1.0573  0.5647
 5142TIP3   OH236840   0.503   4.486  12.751  0.4323  0.3436 -0.4404
 5142TIP3    H136841   0.586   4.502  12.794  0.0273  2.6245 -0.3725
 5142TIP3    H236842   0.515   4.403  12.705  2.1063 -0.2769  1.0204
 5143TIP3   OH236843   1.061   1.849   2.647  0.5137  0.2619  0.3094
 5143TIP3    H136844   1.005   1.927   2.654 -0.2699 -0.2369 -0.2007
 5143TIP3    H236845   1.150   1.882   2.661  0.2134  1.2770 -0.0526
 5144TIP3   OH236846   0.449   2.402   1.885 -0.4831  0.3254  0.0171
 5144TIP3    H136847   0.389   2.341   1.843  0.2918  0.4851 -1.3692
 5144TIP3    H236848   0.392   2.468   1.924 -1.2532  1.5331 -2.8722
 5145TIP3   OH236849   5.612   3.599  14.386 -0.3858 -0.0305  0.2040
 5145TIP3    H136850   5.707   3.606  14.392 -0.1870 -0.6378 -1.5701
 5145TIP3    H236851   5.585   3.558  14.468  0.6668  1.6241  1.4485
 5146TIP3   OH236852   6.445   0.899  14.225  0.3021 -0.7692  0.3654
 5146TIP3    H136853   6.512   0.940  14.172 -0.0639 -2.2609 -1.3625
 5146TIP3    H236854   6.449   0.806  14.202 -2.7461 -0.8392 -0.3211
 5147TIP3   OH236855   1.442   3.703   1.122  0.7956 -0.1539  0.7192
 5147TIP3    H136856   1.436   3.621   1.073  1.8656 -0.4392  1.0359
 5147TIP3    H236857   1.522   3.694   1.174  2.6225  2.2254 -1.3750
 5148TIP3   OH236858   1.719   2.374   4.822 -0.5061 -0.1186 -0.4245
 5148TIP3    H136859   1.673   2.306   4.872  0.5185  0.7954  1.9106
 5148TIP3    H236860   1.812   2.352   4.833 -0.2323  0.4761 -1.4604
 5149TIP3   OH236861   6.422   4.900  11.360  0.0355 -0.1038  1.1054
 5149TIP3    H136862   6.343   4.848  11.344 -0.7897  1.7503 -1.6672
 5149TIP3    H236863   6.487   4.863  11.300  0.8531 -0.6721  2.3063
 5150TIP3   OH236864   2.298   0.065  10.854 -0.0805 -0.4939 -0.4862
 5150TIP3    H136865   2.377   0.072  10.801 -0.8487 -2.3938 -1.9867
 5150TIP3    H236866   2.252   0.148  10.841 -0.0158 -0.7296 -2.4729
 5151TIP3   OH236867   0.055   2.108   2.771 -0.0218  0.0859  0.1224
 5151TIP3    H136868   0.144   2.080   2.748 -0.3161 -1.2781  0.5256
 5151TIP3    H236869   0.038   2.066   2.856 -0.8865  0.6984  0.2653
 5152TIP3   OH236870   1.478   4.159  16.041  0.7978 -0.0112  0.6133
 5152TIP3    H136871   1.514   4.238  16.080  0.5983  0.0434  0.6914
 5152TIP3    H236872   1.398   4.142  16.091  0.1369  0.4807 -0.2607
 5153TIP3   OH236873   0.421   5.182  11.321  0.1328 -0.5813  0.1490
 5153TIP3    H136874   0.420   5.145  11.233  0.1110 -0.8292  0.2503
 5153TIP3    H236875   0.328   5.194  11.343  0.0535 -2.0105  0.7422
 5154TIP3   OH236876   0.272   5.065  14.123 -0.0409 -0.1133 -0.0711
 5154TIP3    H136877   0.217   5.003  14.170 -0.7090  0.7974  0.3651
 5154TIP3    H236878   0.211   5.120  14.075  0.5328  0.3802 -0.2525
 5155TIP3   OH236879   0.031   3.708  12.335 -0.4775 -0.1858  0.0551
 5155TIP3    H136880   0.083   3.727  12.257 -0.5258 -0.6107 -0.0839
 5155TIP3    H236881   0.091   3.662  12.393 -0.5914 -0.3448  0.0478
 5156TIP3   OH236882   1.851   5.603   2.356  0.3997  0.1056 -0.3328
 5156TIP3    H136883   1.922   5.609   2.420  0.9036  1.8229 -1.0054
 5156TIP3    H236884   1.826   5.510   2.357  3.1558 -0.7403 -0.5807
 5157TIP3   OH236885   0.425   2.801  10.976  0.1019  0.0611  0.3118
 5157TIP3    H136886   0.429   2.864  10.905  1.2717  0.7561  0.9655
 5157TIP3    H236887   0.373   2.728  10.941 -0.8121  1.1335 -0.6346
 5158TIP3   OH236888   4.209   5.417  15.630  0.3132  0.6585  0.5356
 5158TIP3    H136889   4.178   5.329  15.610 -1.1290  1.3026 -0.2494
 5158TIP3    H236890   4.245   5.411  15.718  3.4036 -1.4573 -0.6905
 5159TIP3   OH236891   3.773   4.105   1.296 -0.2256  0.2915  0.0839
 5159TIP3    H136892   3.785   4.135   1.386  1.4253 -0.0207  0.0110
 5159TIP3    H236893   3.741   4.181   1.248 -2.2874  0.1504  1.1326
 5160TIP3   OH236894   0.708   1.969   0.920  0.3257 -0.5768  1.0200
 5160TIP3    H136895   0.696   1.996   0.828 -1.3358  1.0845  1.6504
 5160TIP3    H236896   0.778   2.025   0.952 -0.0656 -0.1334  1.1207
 5161TIP3   OH236897   5.195   1.614  13.166 -0.3861 -0.4647 -0.1781
 5161TIP3    H136898   5.137   1.649  13.097 -0.3157 -2.3308 -1.2361
 5161TIP3    H236899   5.138   1.560  13.220 -0.0442 -0.5974  0.0533
 5162TIP3   OH236900   3.795   0.888  11.796 -0.0109 -0.1012  0.1291
 5162TIP3    H136901   3.771   0.851  11.711 -1.3868  1.9529 -0.4360
 5162TIP3    H236902   3.765   0.979  11.793  2.5826  0.9268  1.7088
 5163TIP3   OH236903   6.661   0.004  14.990 -0.3527 -0.1333 -0.5777
 5163TIP3    H136904   6.743   0.045  14.965 -0.5200  0.6561  0.1319
 5163TIP3    H236905   6.687  -0.064  15.053 -0.1210 -0.8606 -1.4296
 5164TIP3   OH236906   3.361   0.574   6.352  0.1683 -0.4301 -0.0624
 5164TIP3    H136907   3.441   0.624   6.369  0.8026 -2.1096  2.4684
 5164TIP3    H236908   3.291   0.638   6.356  1.0465  0.4906  1.8810
 5165TIP3   OH236909   4.749   1.759   5.640  0.2798  0.6541 -0.3149
 5165TIP3    H136910   4.694   1.703   5.696 -0.3412  0.6584 -0.9025
 5165TIP3    H236911   4.723   1.848   5.663 -1.0358  0.6424 -1.6049
 5166TIP3   OH236912   1.109   1.209  12.565  0.0214 -0.8299  0.3450
 5166TIP3    H136913   1.167   1.282  12.585 -0.0472 -0.4573 -0.7859
 5166TIP3    H236914   1.142   1.174  12.482 -0.8781 -1.1222  0.1029
 5167TIP3   OH236915   1.913   4.796   2.723 -0.3430  0.0856  0.1642
 5167TIP3    H136916   1.862   4.787   2.643  2.1388  0.9296 -1.6189
 5167TIP3    H236917   1.963   4.714   2.728  0.1985  0.4218  0.3234
 5168TIP3   OH236918   1.985   6.596  16.151  0.1196  0.3502 -0.2240
 5168TIP3    H136919   1.987   6.654  16.228  0.2506 -0.9017  0.7509
 5168TIP3    H236920   1.901   6.550  16.158  1.9064 -3.0722  1.7977
 5169TIP3   OH236921   2.538   0.796   0.607 -0.2751  0.2267 -0.4975
 5169TIP3    H136922   2.522   0.818   0.515 -2.6079 -0.9400 -0.4574
 5169TIP3    H236923   2.461   0.831   0.653  0.1026 -0.5313  0.7599
 5170TIP3   OH236924   6.681   0.384   6.452 -0.3774  0.7634 -0.7344
 5170TIP3    H136925   6.687   0.296   6.487 -1.1860  0.3145 -1.6876
 5170TIP3    H236926   6.767   0.400   6.414  0.3131  1.0304  0.8515
 5171TIP3   OH236927   2.098   3.367  13.090 -0.0490 -0.1981 -0.2696
 5171TIP3    H136928   2.097   3.272  13.100  1.9311 -0.4603 -1.8588
 5171TIP3    H236929   2.055   3.383  13.006  0.9535  0.1703 -0.7240
 5172TIP3   OH236930   6.590   1.727   5.030  1.1577  0.1101 -0.0719
 5172TIP3    H136931   6.581   1.668   4.955 -0.8761 -0.1111  0.2797
 5172TIP3    H236932   6.586   1.814   4.993  0.0161  0.0007 -0.2536
 5173TIP3   OH236933   3.644   2.183   5.101 -0.0041  0.3118  0.3518
 5173TIP3    H136934   3.635   2.210   5.192  0.9580  0.9075  0.2758
 5173TIP3    H236935   3.640   2.087   5.104  3.0257  0.1199  1.4176
 5174TIP3   OH236936   3.811   5.451   2.826 -0.0388  0.0140 -0.8490
 5174TIP3    H136937   3.813   5.523   2.889 -0.8936 -1.0105  0.4075
 5174TIP3    H236938   3.856   5.379   2.871 -2.6191 -1.4403 -0.4154
 5175TIP3   OH236939   5.094   1.024   5.485  0.1245  0.0733 -0.6889
 5175TIP3    H136940   5.111   1.080   5.561 -1.4016 -1.6077  1.0029
 5175TIP3    H236941   5.175   0.975   5.472  0.7631  1.1459 -0.8803
 5176TIP3   OH236942   5.030   4.095   1.277 -0.6752 -0.0238 -0.3572
 5176TIP3    H136943   5.045   4.001   1.290 -2.0098 -0.2934 -0.6246
 5176TIP3    H236944   5.036   4.108   1.182 -1.6654 -0.0737 -0.4376
 5177TIP3   OH236945   1.075   5.182  13.810  0.1603 -0.3802 -0.0137
 5177TIP3    H136946   1.006   5.226  13.760 -0.1122  0.0376  0.7163
 5177TIP3    H236947   1.109   5.115  13.751 -0.9128 -0.6256 -0.3630
 5178TIP3   OH236948   2.907   2.236   3.993 -0.4490  0.2719  0.5293
 5178TIP3    H136949   2.880   2.147   3.973 -3.2551  1.2167 -0.3164
 5178TIP3    H236950   2.882   2.287   3.916  1.8647  1.6969  0.6270
 5179TIP3   OH236951   1.582   2.439  11.940 -0.3738  0.2344 -0.4308
 5179TIP3    H136952   1.488   2.450  11.954 -0.4578 -0.5312 -0.3551
 5179TIP3    H236953   1.588   2.371  11.873  0.1555 -1.2313  1.0344
 5180TIP3   OH236954   3.578   3.248   1.294  0.3713 -0.0251 -0.0997
 5180TIP3    H136955   3.597   3.310   1.224  0.3019  0.8243  0.6218
 5180TIP3    H236956   3.529   3.299   1.359  0.8048 -0.6845  0.7623
 5181TIP3   OH236957   2.236   3.687  16.584 -0.5940 -0.3162 -0.3244
 5181TIP3    H136958   2.238   3.766  16.639 -1.3168 -0.3347 -0.2548
 5181TIP3    H236959   2.325   3.653  16.588  0.1644  1.3590 -1.6405
 5182TIP3   OH236960   0.575   2.440  11.146  0.3543  0.3876  0.3216
 5182TIP3    H136961   0.553   2.486  11.227 -0.1146  0.0756  0.3718
 5182TIP3    H236962   0.513   2.473  11.081  0.8489  0.7748  0.0360
 5183TIP3   OH236963   0.003   4.088   0.056 -0.1717  0.7386 -0.0761
 5183TIP3    H136964   0.026   3.999   0.082  1.7397  0.9026 -1.0922
 5183TIP3    H236965   0.075   4.142   0.087 -2.3719  2.4114  2.6793
 5184TIP3   OH236966   0.745   3.558   1.431 -0.1624 -0.7735  0.2583
 5184TIP3    H136967   0.711   3.489   1.373 -0.0065 -0.6785  0.0527
 5184TIP3    H236968   0.695   3.636   1.407 -0.6326 -0.9042  0.7762
 5185TIP3   OH236969   2.817   3.816  13.587  0.1720  0.4011  0.0797
 5185TIP3    H136970   2.895   3.870  13.575  1.4337 -1.0216  1.3381
 5185TIP3    H236971   2.814   3.799  13.681 -1.5151  0.1830  0.0198
 5186TIP3   OH236972   2.236   3.138  10.404  0.2329  0.4167  0.3377
 5186TIP3    H136973   2.253   3.049  10.435 -1.2942  0.0629  0.2355
 5186TIP3    H236974   2.323   3.174  10.388  0.8837 -1.7162 -1.5107
 5187TIP3   OH236975   4.650   5.193  10.850  0.0148 -0.1105 -0.5450
 5187TIP3    H136976   4.564   5.172  10.813 -0.2027 -1.2558  0.5278
 5187TIP3    H236977   4.692   5.108  10.860  0.4650  0.2616  0.8287
 5188TIP3   OH236978   6.194   5.872  12.207  0.3485 -0.3218  0.9505
 5188TIP3    H136979   6.144   5.930  12.150  2.8575  1.3235  0.2932
 5188TIP3    H236980   6.146   5.874  12.290 -0.7028  1.1534  0.3562
 5189TIP3   OH236981   0.590   5.883  12.686  0.0758  0.2117  0.4451
 5189TIP3    H136982   0.518   5.936  12.718  0.3216  0.7377  0.1302
 5189TIP3    H236983   0.666   5.942  12.686  0.5872 -0.4261  1.1106
 5190TIP3   OH236984   4.773   5.399  12.892  0.1240 -0.0225 -0.2202
 5190TIP3    H136985   4.728   5.462  12.836  0.6739  0.8508  0.3039
 5190TIP3    H236986   4.832   5.352  12.833 -0.1368  0.0952 -0.5748
 5191TIP3   OH236987   1.248   4.029  14.972 -0.5269  0.0489  0.1747
 5191TIP3    H136988   1.185   4.016  14.901  1.7493  0.1676 -1.9938
 5191TIP3    H236989   1.266   3.941  15.004 -0.5244 -0.1614 -0.3855
 5192TIP3   OH236990   5.066   6.658   4.981  0.5179 -0.2591 -0.2066
 5192TIP3    H136991   5.041   6.624   4.895  2.8570 -2.8145 -0.0325
 5192TIP3    H236992   4.999   6.626   5.041 -0.3477  0.3181 -0.8439
 5193TIP3   OH236993   3.327   4.569   3.394  0.1915  0.0848  0.5413
 5193TIP3    H136994   3.320   4.660   3.420 -0.7425  0.6519 -1.5180
 5193TIP3    H236995   3.251   4.526   3.433 -0.9707  0.8310 -0.8233
 5194TIP3   OH236996   2.260   1.903  13.059  0.1046 -0.7591  0.2419
 5194TIP3    H136997   2.260   1.819  13.104  2.9347 -0.2164  1.5431
 5194TIP3    H236998   2.226   1.965  13.124 -0.3566 -0.6448 -0.1030
 5195TIP3   OH236999   0.776   0.769  17.167 -0.3037  0.0327  0.8136
 5195TIP3    H137000   0.831   0.744  17.241  1.4320 -0.1766 -0.4772
 5195TIP3    H237001   0.835   0.766  17.091 -1.3670  2.6601 -0.2307
 5196TIP3   OH237002   5.474   4.345   0.575  0.1814 -0.0226 -0.4338
 5196TIP3    H137003   5.457   4.417   0.514 -1.5732 -2.5754 -3.2078
 5196TIP3    H237004   5.561   4.313   0.550  1.2250  1.3548  1.1918
 5197TIP3   OH237005   4.478   4.153  15.936  0.0795  0.2846 -0.2157
 5197TIP3    H137006   4.510   4.067  15.910  0.6286  0.0890  1.0097
 5197TIP3    H237007   4.420   4.136  16.011 -1.6132  0.7956 -1.3597
 5198TIP3   OH237008   1.509   0.288   3.275  0.0056  0.8519  0.4327
 5198TIP3    H137009   1.589   0.333   3.247 -0.6221  1.3678 -0.5727
 5198TIP3    H237010   1.511   0.204   3.229 -0.4267  1.2010 -0.2328
 5199TIP3   OH237011   1.061   4.581  11.521  0.0337  0.1402  0.2405
 5199TIP3    H137012   1.072   4.675  11.511 -1.3013  0.3547  0.7047
 5199TIP3    H237013   1.103   4.544  11.443  1.2658  1.0472  0.4282
 5200TIP3   OH237014   2.691   1.623  13.331 -0.6529  0.0346 -0.7047
 5200TIP3    H137015   2.722   1.701  13.377  2.1147 -1.0170 -0.5617
 5200TIP3    H237016   2.675   1.653  13.241 -1.0591  1.0390 -0.3120
 5201TIP3   OH237017   2.004   5.752   1.152 -0.0820  0.3701 -0.3734
 5201TIP3    H137018   1.924   5.764   1.202 -0.0909  0.0885 -0.3220
 5201TIP3    H237019   2.073   5.746   1.218 -0.1262 -0.2653 -0.3831
 5202TIP3   OH237020   4.143   3.200  14.770 -0.6195 -0.2349 -0.2599
 5202TIP3    H137021   4.132   3.194  14.865 -2.3968  0.6372 -0.3656
 5202TIP3    H237022   4.235   3.223  14.758 -0.0015 -1.7744  1.1614
 5203TIP3   OH237023   5.094   5.041   3.055  0.0558  0.5303  0.3224
 5203TIP3    H137024   5.082   4.988   3.134  0.9625  2.2192  1.6390
 5203TIP3    H237025   5.076   4.980   2.983 -0.8273 -1.0487  1.8040
 5204TIP3   OH237026   0.296   5.768  12.523  0.6187 -0.0972 -0.6262
 5204TIP3    H137027   0.246   5.775  12.442 -0.0055  1.8620 -0.1219
 5204TIP3    H237028   0.356   5.843  12.521 -0.8513  1.2607  1.6221
 5205TIP3   OH237029   5.716   2.692   4.609  0.0240 -0.1436  0.1404
 5205TIP3    H137030   5.695   2.608   4.649 -0.4269 -1.1323 -2.0593
 5205TIP3    H237031   5.674   2.690   4.524  2.3610  1.1251 -1.1657
 5206TIP3   OH237032   0.882   3.895  15.116  0.1264  0.4021  0.2711
 5206TIP3    H137033   0.793   3.881  15.150  0.2720 -2.6509 -0.2955
 5206TIP3    H237034   0.869   3.915  15.023 -0.0068  2.5207  0.6991
 5207TIP3   OH237035   5.858   2.580   5.081 -0.7209  0.9136  0.4958
 5207TIP3    H137036   5.793   2.648   5.064 -0.6293  0.8043 -0.3048
 5207TIP3    H237037   5.814   2.499   5.054 -0.1365  0.8746 -0.3512
 5208TIP3   OH237038   2.457   3.149   5.007  0.2387  0.6354 -0.5403
 5208TIP3    H137039   2.431   3.222   5.064  2.0349 -0.2152  1.4982
 5208TIP3    H237040   2.452   3.185   4.919 -3.6131  1.7355 -0.0588
 5209TIP3   OH237041   0.357   2.754   4.218 -0.3555 -0.2805  0.2228
 5209TIP3    H137042   0.302   2.831   4.233 -0.2583 -0.1720  0.0289
 5209TIP3    H237043   0.294   2.683   4.202 -0.4433 -0.2026  0.2160
 5210TIP3   OH237044   5.069   4.054  17.221  0.3473  0.3148 -0.0171
 5210TIP3    H137045   5.159   4.030  17.197  0.7493  0.4045  1.3364
 5210TIP3    H237046   5.057   4.017  17.308 -0.4826  1.4079  0.3572
 5211TIP3   OH237047   3.141   1.317  13.765 -0.0091 -0.3421 -0.5640
 5211TIP3    H137048   3.096   1.384  13.817 -0.8819 -1.3172 -0.0224
 5211TIP3    H237049   3.108   1.331  13.676  1.2264  1.1098 -0.8242
 5212TIP3   OH237050   4.855   1.982   2.614 -0.1516 -0.0171 -0.2045
 5212TIP3    H137051   4.944   1.997   2.646  0.0648 -1.8937  0.1832
 5212TIP3    H237052   4.834   1.893   2.643 -2.0467  0.2808 -0.5495
 5213TIP3   OH237053   4.612   5.706  15.906  0.0953  0.0576 -0.2710
 5213TIP3    H137054   4.567   5.656  15.975  2.2864 -0.6608  0.7175
 5213TIP3    H237055   4.660   5.640  15.856  1.5408  0.9364 -0.1066
 5214TIP3   OH237056   2.411   3.717   6.324  0.2633 -0.2915  0.1227
 5214TIP3    H137057   2.392   3.623   6.330  0.1938 -0.2173  3.8172
 5214TIP3    H237058   2.498   3.726   6.365  0.2976  1.2472 -0.2186
 5215TIP3   OH237059   2.865   5.638  11.717 -0.4154  0.0498 -0.3626
 5215TIP3    H137060   2.959   5.651  11.704 -0.2597  0.7415  1.2981
 5215TIP3    H237061   2.824   5.689  11.646  0.4399  0.5848 -0.4877
 5216TIP3   OH237062   2.802   3.810  12.939  0.3067 -0.1437  0.4416
 5216TIP3    H137063   2.818   3.846  12.852 -1.2692  1.1542  0.6579
 5216TIP3    H237064   2.890   3.787  12.971  0.8222 -2.3249 -2.1145
 5217TIP3   OH237065   1.804   3.830  15.167  0.8530  0.3252  0.4203
 5217TIP3    H137066   1.857   3.758  15.202  1.2857  0.2925 -0.2650
 5217TIP3    H237067   1.831   3.907  15.217 -0.9545 -0.2763  2.4663
 5218TIP3   OH237068   4.872   4.765  11.750  0.2806 -0.6274 -0.2736
 5218TIP3    H137069   4.907   4.753  11.662  1.1717  0.9364 -0.1716
 5218TIP3    H237070   4.785   4.802  11.736  1.0227  1.0998 -0.5267
 5219TIP3   OH237071   2.642   5.468   2.463  0.3143 -0.6115 -0.2982
 5219TIP3    H137072   2.702   5.494   2.393 -1.4803  1.5118 -1.1907
 5219TIP3    H237073   2.635   5.546   2.519  0.3403 -1.6803  1.2475
 5220TIP3   OH237074   5.254   6.716  17.333 -0.4450  0.0915  0.2595
 5220TIP3    H137075   5.174   6.768  17.346 -0.0458  1.1423 -1.1793
 5220TIP3    H237076   5.240   6.673  17.248  0.6390  0.5684 -0.1723
 5221TIP3   OH237077   0.108   0.062   1.057 -0.2944  0.2565  0.2881
 5221TIP3    H137078   0.080   0.151   1.039 -1.1422  0.3635  2.0141
 5221TIP3    H237079   0.028   0.015   1.080  0.2880 -0.6544  0.5265
 5222TIP3   OH237080   3.143   1.241   5.334 -0.4667 -0.1324 -0.3279
 5222TIP3    H137081   3.057   1.264   5.298 -0.6220 -0.4873 -0.1972
 5222TIP3    H237082   3.157   1.150   5.305 -1.7729 -1.3947  2.5981
 5223TIP3   OH237083   1.647   6.301   6.210 -0.1577  0.3776 -0.5146
 5223TIP3    H137084   1.719   6.338   6.261 -1.1831  0.6271  0.7924
 5223TIP3    H237085   1.663   6.207   6.210 -0.0061  0.4019  0.0403
 5224TIP3   OH237086   5.722   0.952  14.624 -0.0836 -0.4459  0.0963
 5224TIP3    H137087   5.786   1.015  14.658 -0.6435  0.9849 -1.3677
 5224TIP3    H237088   5.663   0.935  14.698  0.3738  0.3586  0.6639
 5225TIP3   OH237089   6.700   5.141   2.030 -0.3401  0.2734  0.2612
 5225TIP3    H137090   6.615   5.105   2.004 -0.4329  1.1839 -0.7766
 5225TIP3    H237091   6.694   5.151   2.125 -1.0875 -0.4466  0.2968
 5226TIP3   OH237092   5.644   1.755   5.387 -0.0208  0.0662 -0.1664
 5226TIP3    H137093   5.559   1.750   5.343  0.7976 -0.3844 -1.8111
 5226TIP3    H237094   5.653   1.671   5.433  0.4238 -0.8625 -1.8341
 5227TIP3   OH237095   5.721   6.402   1.906  0.1144  0.3631 -0.3646
 5227TIP3    H137096   5.756   6.341   1.971 -1.2965  0.3852  0.4695
 5227TIP3    H237097   5.637   6.363   1.880 -0.9688  2.0563  0.4109
 5228TIP3   OH237098   0.297   3.971   0.180 -0.1337 -0.0624 -0.0228
 5228TIP3    H137099   0.349   3.939   0.253  0.2114  1.0181  0.2237
 5228TIP3    H237100   0.218   3.918   0.181  1.1716 -2.1222 -0.7349
 5229TIP3   OH237101   4.504   2.657   1.097  0.4724 -0.5819  0.0922
 5229TIP3    H137102   4.582   2.695   1.055 -1.6255  1.5982 -2.2013
 5229TIP3    H237103   4.504   2.695   1.185  1.9371 -0.5505  0.1079
 5230TIP3   OH237104   4.527   4.183   4.564  0.3178 -0.8431  0.4364
 5230TIP3    H137105   4.590   4.113   4.550 -0.4864 -1.1219 -2.2784
 5230TIP3    H237106   4.561   4.257   4.514  0.1313  0.0933  1.6352
 5231TIP3   OH237107   6.033   2.169  15.354  0.4406  0.7412  0.4888
 5231TIP3    H137108   6.079   2.247  15.325  1.2279  0.1912  0.2319
 5231TIP3    H237109   6.036   2.109  15.280  1.5060 -0.2528  1.2957
 5232TIP3   OH237110   6.053   2.684   5.654  0.1403 -0.9774  0.4128
 5232TIP3    H137111   6.076   2.739   5.580 -1.2317 -0.9479 -0.0231
 5232TIP3    H237112   5.972   2.723   5.689  0.3477 -1.4307  1.4492
 5233TIP3   OH237113   3.247   1.243   0.743 -0.4738  0.7415  0.4504
 5233TIP3    H137114   3.300   1.312   0.701 -0.8885  1.3522  0.9095
 5233TIP3    H237115   3.183   1.219   0.677 -1.3390  1.9405  0.8215
 5234TIP3   OH237116   1.944   6.702  17.330 -0.2030 -0.4720 -0.2372
 5234TIP3    H137117   1.906   6.721  17.244 -0.8618  1.0993  0.3589
 5234TIP3    H237118   1.872   6.669  17.382  0.2025 -1.4497 -0.2804
 5235TIP3   OH237119   2.147   3.915   2.714  0.1389  0.0362  0.9480
 5235TIP3    H137120   2.189   3.929   2.629  0.9115  1.6681  1.5796
 5235TIP3    H237121   2.219   3.902   2.775 -0.3789 -0.0746  1.5431
 5236TIP3   OH237122   5.754   3.390   3.017  0.2533  0.1580 -0.5580
 5236TIP3    H137123   5.726   3.479   2.993 -3.8461  0.2319  3.2862
 5236TIP3    H237124   5.710   3.333   2.953 -2.3624  0.7592  0.5661
 5237TIP3   OH237125   4.735   3.380  13.308 -0.3625 -0.0681 -0.4666
 5237TIP3    H137126   4.678   3.457  13.312  0.5767  0.6315 -0.1294
 5237TIP3    H237127   4.745   3.353  13.399 -0.1644 -0.1930 -0.5266
 5238TIP3   OH237128   3.519   3.059  15.395 -0.5353 -0.0101 -0.1742
 5238TIP3    H137129   3.584   3.004  15.438 -0.0784  1.0393  0.5089
 5238TIP3    H237130   3.534   3.045  15.301  1.2740  0.8936 -0.0463
 5239TIP3   OH237131   3.705   5.577   3.566  0.1486 -0.1424 -0.0293
 5239TIP3    H137132   3.630   5.635   3.549  0.1353  0.0308  0.5875
 5239TIP3    H237133   3.760   5.585   3.488 -0.4360 -0.2126 -0.4569
 5240TIP3   OH237134   0.269   5.092   6.573  0.3348 -0.6924  0.7291
 5240TIP3    H137135   0.221   5.095   6.656 -2.1563  0.8185 -0.6458
 5240TIP3    H237136   0.214   5.038   6.516  0.7928  0.2151 -0.6070
 5241TIP3   OH237137   0.106   0.220  16.234 -0.0427  0.1610 -0.0552
 5241TIP3    H137138   0.095   0.272  16.154 -1.0856 -0.1527 -0.1315
 5241TIP3    H237139   0.019   0.218  16.274  0.2222 -0.5971  0.5192
 5242TIP3   OH237140   5.286   3.653   5.878 -0.0270  0.0348  0.0451
 5242TIP3    H137141   5.379   3.632   5.874 -0.0362  0.0293 -0.1874
 5242TIP3    H237142   5.265   3.685   5.790 -0.1540  0.4245  0.2184
 5243TIP3   OH237143   6.040   0.580  16.887 -0.2722  0.4750  0.2416
 5243TIP3    H137144   5.952   0.570  16.922 -0.1559 -2.0358 -0.0086
 5243TIP3    H237145   6.030   0.574  16.792  0.0169  1.8829  0.0967
 5244TIP3   OH237146   0.877   2.055  13.589  0.0297 -0.2872 -0.7063
 5244TIP3    H137147   0.840   2.143  13.602 -0.0766 -0.0953 -2.1769
 5244TIP3    H237148   0.959   2.071  13.542  0.9364 -0.8698  0.6147
 5245TIP3   OH237149   1.030   6.452   2.022  0.1969  0.0359  0.0855
 5245TIP3    H137150   1.069   6.366   2.007  0.2687  0.2643 -1.0896
 5245TIP3    H237151   0.939   6.443   1.994  0.1914  0.3306  0.0049
 5246TIP3   OH237152   4.860   0.679  13.209  0.6556  0.3409  0.0103
 5246TIP3    H137153   4.924   0.723  13.265  1.0705 -1.9033  1.4199
 5246TIP3    H237154   4.823   0.749  13.156  1.8612  2.2330  1.5192
 5247TIP3   OH237155   0.630   3.059   0.562  0.1682  0.6282 -0.0453
 5247TIP3    H137156   0.659   3.135   0.613  0.7291  0.6780 -0.4238
 5247TIP3    H237157   0.697   3.049   0.495  2.0750 -2.3060  2.0377
 5248TIP3   OH237158   4.469   0.842   5.766  0.0080 -0.0318 -0.4034
 5248TIP3    H137159   4.446   0.795   5.846 -1.8802 -0.4890 -1.1545
 5248TIP3    H237160   4.452   0.934   5.786 -2.7144 -0.3463 -0.9176
 5249TIP3   OH237161   3.533   2.382   6.639 -0.4968  0.0931 -0.3769
 5249TIP3    H137162   3.562   2.293   6.619  1.9201  0.8290 -0.4281
 5249TIP3    H237163   3.545   2.430   6.557 -1.7889  0.5128 -0.3503
 5250TIP3   OH237164   5.842   5.976   6.216 -0.2939 -0.1852 -0.5139
 5250TIP3    H137165   5.903   5.945   6.149  0.2002  2.7961 -1.5763
 5250TIP3    H237166   5.876   5.939   6.298  1.1454 -1.0645 -1.4702
 5251TIP3   OH237167   3.132   6.080  17.591  0.2143 -0.3526 -0.6744
 5251TIP3    H137168   3.107   6.092  17.683  0.7611 -0.3981 -0.5148
 5251TIP3    H237169   3.139   5.985  17.580  3.1607 -0.3177  0.0973
 5252TIP3   OH237170   4.719   3.837   4.322  0.2389  0.3332  0.3976
 5252TIP3    H137171   4.777   3.841   4.246  0.8950 -1.2512  0.7617
 5252TIP3    H237172   4.741   3.753   4.364 -0.9789  0.5958  1.6297
 5253TIP3   OH237173   3.221   3.799   2.286  0.7535 -0.2145  0.1115
 5253TIP3    H137174   3.239   3.867   2.350  4.3124  0.0729 -1.0148
 5253TIP3    H237175   3.180   3.729   2.337 -1.0101  1.8330  1.6855
 5254TIP3   OH237176   0.413   0.934  13.681  0.1323  0.1545 -0.0837
 5254TIP3    H137177   0.503   0.966  13.668 -0.1751  0.3533 -1.9797
 5254TIP3    H237178   0.361   1.014  13.694  0.1664  0.0600  0.6660
 5255TIP3   OH237179   3.414   6.274  16.154 -0.4381 -0.1496 -0.3646
 5255TIP3    H137180   3.332   6.320  16.134 -1.0141 -1.1346 -0.3222
 5255TIP3    H237181   3.415   6.268  16.250 -0.5956 -0.6424 -0.3938
 5256TIP3   OH237182   6.710   0.808   0.306  0.1203  0.6271 -0.0752
 5256TIP3    H137183   6.630   0.756   0.302  0.1256  0.6551 -0.6314
 5256TIP3    H237184   6.684   0.895   0.276  0.7298  0.1683 -2.0756
 5257TIP3   OH237185   3.815   0.427   1.131  0.5860  0.0815 -0.5491
 5257TIP3    H137186   3.771   0.362   1.185 -0.1050 -0.5087 -1.7950
 5257TIP3    H237187   3.856   0.487   1.194  0.8165 -1.2585  0.6174
 5258TIP3   OH237188   5.391   3.201   3.439  0.5106  0.2041  0.4047
 5258TIP3    H137189   5.459   3.267   3.446  0.6120  0.1834 -0.2983
 5258TIP3    H237190   5.311   3.246   3.468  0.5344  0.7106 -0.2865
 5259TIP3   OH237191   0.593   2.854   0.096 -0.1581 -0.4216  0.5478
 5259TIP3    H137192   0.640   2.885   0.174 -0.8850  0.0646  0.7986
 5259TIP3    H237193   0.644   2.890   0.023 -1.4204  2.1975  0.8181
 5260TIP3   OH237194   5.048   3.075  13.836 -0.0990  0.2524 -0.0470
 5260TIP3    H137195   4.956   3.081  13.811 -0.9889 -0.8355  2.6215
 5260TIP3    H237196   5.077   3.166  13.843 -0.6894  0.5947 -1.7538
 5261TIP3   OH237197   2.116   3.117   5.865  0.2510 -1.0864  0.4084
 5261TIP3    H137198   2.146   3.040   5.818  0.3673  0.8129 -2.9393
 5261TIP3    H237199   2.038   3.146   5.819  0.0761  0.6873  1.6839
 5262TIP3   OH237200   5.739   1.424   5.912 -0.0337  0.2792 -0.0855
 5262TIP3    H137201   5.734   1.476   5.992 -1.4139  0.4502 -0.2696
 5262TIP3    H237202   5.800   1.473   5.857  0.1641  0.6859  0.4753
 5263TIP3   OH237203   2.031   4.069  17.477  0.4952 -0.7003 -0.3848
 5263TIP3    H137204   2.036   4.109  17.564  0.1012 -0.7676 -0.3312
 5263TIP3    H237205   2.029   3.975  17.493 -0.8984 -0.6933 -0.3916
 5264TIP3   OH237206   3.803   5.141  15.641  0.3105 -0.1255  0.3180
 5264TIP3    H137207   3.866   5.157  15.711  0.0299  1.1902  0.2924
 5264TIP3    H237208   3.850   5.085  15.579  1.1985  0.2246  0.6573
 5265TIP3   OH237209   4.206   6.365   0.415 -0.0915 -0.4180  0.1821
 5265TIP3    H137210   4.274   6.381   0.349  0.8356 -2.7012  0.5316
 5265TIP3    H237211   4.178   6.453   0.441  2.3050  0.6057 -0.3924
 5266TIP3   OH237212   3.144   6.131  16.363 -0.0663  0.0391 -0.2896
 5266TIP3    H137213   3.188   6.062  16.413 -0.3201  1.9068  2.7625
 5266TIP3    H237214   3.187   6.212  16.391 -2.3389  1.5030 -0.7742
 5267TIP3   OH237215   4.313   5.819   3.026  0.5173 -0.2626  0.2589
 5267TIP3    H137216   4.273   5.737   2.997  0.4727  0.1944 -1.0132
 5267TIP3    H237217   4.403   5.815   2.995  0.9764 -0.5038  1.5655
 5268TIP3   OH237218   6.375   3.870  17.182  0.3033 -0.3377  0.4443
 5268TIP3    H137219   6.283   3.892  17.195  0.7597  1.8892  0.2612
 5268TIP3    H237220   6.423   3.943  17.221  1.9100  1.1138 -3.6927
 5269TIP3   OH237221   6.672   5.892   1.825 -0.6646  0.7529 -0.1896
 5269TIP3    H137222   6.676   5.797   1.832 -1.1261  0.5886 -1.6902
 5269TIP3    H237223   6.761   5.919   1.802 -0.7448  0.5674 -0.7377
 5270TIP3   OH237224   1.802   2.679  15.781  0.8388  0.2371 -0.3289
 5270TIP3    H137225   1.795   2.699  15.874 -0.4898  0.2171 -0.4007
 5270TIP3    H237226   1.739   2.609  15.767 -0.1163  1.2875 -1.5152
 5271TIP3   OH237227   2.674   4.450   0.052 -0.3463  0.1246 -0.0714
 5271TIP3    H137228   2.700   4.430  -0.038 -1.3793  0.9134 -0.5630
 5271TIP3    H237229   2.723   4.528   0.076 -0.8043  0.4880 -0.3082
 5272TIP3   OH237230   4.221   2.325  12.091 -0.4098  0.4721 -0.4707
 5272TIP3    H137231   4.180   2.382  12.156  1.2607 -0.6071  1.6616
 5272TIP3    H237232   4.309   2.360  12.080  0.0175 -0.5745 -0.5500
 5273TIP3   OH237233   2.532   1.048   1.830  0.1550 -0.1128 -0.2307
 5273TIP3    H137234   2.603   1.067   1.892  1.1651 -3.0818 -0.3215
 5273TIP3    H237235   2.453   1.079   1.874  1.3454  2.6481  0.1833
 5274TIP3   OH237236   0.920   0.029   2.886 -0.3366 -0.0447  0.0363
 5274TIP3    H137237   0.972  -0.029   2.941  1.1685  0.6461 -0.6149
 5274TIP3    H237238   0.832   0.023   2.923  0.3726 -0.5293  1.7675
 5275TIP3   OH237239   4.375   1.922  13.681  0.1416 -0.0337 -0.0977
 5275TIP3    H137240   4.296   1.975  13.690  1.1164  1.2758  1.4016
 5275TIP3    H237241   4.357   1.842  13.731 -0.1432  0.4059  0.5176
 5276TIP3   OH237242   4.224   4.347   0.753  0.4178 -0.2559  0.3033
 5276TIP3    H137243   4.184   4.326   0.837  0.6207  0.6758  0.6319
 5276TIP3    H237244   4.150   4.369   0.696  0.3624  0.1086  0.5194
 5277TIP3   OH237245   3.321   5.113   2.056  0.1600  0.2417  0.4100
 5277TIP3    H137246   3.255   5.155   2.111 -0.0083  0.0836  0.3285
 5277TIP3    H237247   3.324   5.167   1.976  1.7298  1.5899  1.2990
 5278TIP3   OH237248   0.675   2.651  15.536  0.0314 -0.1388 -0.1401
 5278TIP3    H137249   0.697   2.716  15.603  0.5952  0.3560 -0.7778
 5278TIP3    H237250   0.721   2.682  15.458 -0.3373 -0.8864 -0.6645
 5279TIP3   OH237251   4.009   1.046  11.846 -0.4673  0.1679 -0.2203
 5279TIP3    H137252   3.971   0.979  11.790  1.3861 -0.7161 -0.5038
 5279TIP3    H237253   3.996   1.128  11.798  1.4565 -0.6140 -2.2552
 5280TIP3   OH237254   3.022   3.567  11.098  0.3026  0.3284  0.7532
 5280TIP3    H137255   3.008   3.604  11.185 -0.8386  1.0546  0.2868
 5280TIP3    H237256   2.970   3.622  11.040  0.9776 -0.1971 -0.3862
 5281TIP3   OH237257   1.808   0.840  14.020  0.2887  0.9534 -0.2778
 5281TIP3    H137258   1.802   0.872  14.110 -3.0424 -0.6243  0.1952
 5281TIP3    H237259   1.760   0.906  13.969 -0.4529  0.3292 -0.3970
 5282TIP3   OH237260   3.483   4.526   0.035 -0.2444  0.2487 -0.0495
 5282TIP3    H137261   3.454   4.441   0.070  0.2919 -1.1195 -2.6303
 5282TIP3    H237262   3.574   4.512   0.011 -0.3321  1.3475 -1.1179
 5283TIP3   OH237263   0.488   4.202  11.710 -0.2382  1.6582 -0.0412
 5283TIP3    H137264   0.502   4.123  11.762  0.8646  1.6475 -0.3298
 5283TIP3    H237265   0.401   4.190  11.671  0.5976 -0.2381 -1.4548
 5284TIP3   OH237266   4.140   2.161   1.257 -0.0982  0.0454 -0.1683
 5284TIP3    H137267   4.058   2.160   1.306 -0.4024 -0.4043 -0.6742
 5284TIP3    H237268   4.142   2.077   1.211 -0.5572  1.0626 -2.1280
 5285TIP3   OH237269   6.111   5.926   6.088  1.1963 -0.3149  0.0151
 5285TIP3    H137270   6.095   5.886   6.003 -0.8206  0.0862  0.1653
 5285TIP3    H237271   6.170   5.865   6.133 -0.5516 -2.3499 -0.3295
 5286TIP3   OH237272   2.203   5.819  16.273  0.3851  0.0957 -0.2187
 5286TIP3    H137273   2.140   5.837  16.203 -0.3629 -2.7586 -0.3705
 5286TIP3    H237274   2.280   5.785  16.227  0.6521  0.0911  0.2283
 5287TIP3   OH237275   4.576   2.990   2.450  0.1010 -0.4057 -0.0828
 5287TIP3    H137276   4.503   2.931   2.432  1.0978 -1.4450 -0.8937
 5287TIP3    H237277   4.610   3.013   2.363 -0.7847  2.0846  0.1729
 5288TIP3   OH237278   5.936   3.759  13.636  0.2711  0.1864 -0.4754
 5288TIP3    H137279   5.918   3.802  13.552  1.5844 -1.3970 -1.6342
 5288TIP3    H237280   6.030   3.740  13.633 -0.0104 -1.6027  0.5117
 5289TIP3   OH237281   0.202   1.811   0.321 -0.2544  0.5720  0.3411
 5289TIP3    H137282   0.124   1.757   0.306 -1.5415  2.1909  0.8918
 5289TIP3    H237283   0.233   1.785   0.407  0.7534 -1.1433 -0.4943
 5290TIP3   OH237284   6.324   3.573   4.733  0.1921 -0.0525  0.2272
 5290TIP3    H137285   6.393   3.634   4.760 -0.8403  0.8777  0.8414
 5290TIP3    H237286   6.309   3.593   4.641  0.6906 -0.2281  0.1014
 5291TIP3   OH237287   0.194   2.863  13.425  0.0695  0.1631 -0.1714
 5291TIP3    H137288   0.273   2.883  13.375  1.5612 -2.2311  1.0315
 5291TIP3    H237289   0.193   2.930  13.494  0.3204  0.9685 -0.9255
 5292TIP3   OH237290   5.743   5.513   1.857  0.0338 -0.0942  0.6347
 5292TIP3    H137291   5.688   5.527   1.780  0.6578  2.4414  0.5602
 5292TIP3    H237292   5.681   5.503   1.929 -0.5495 -2.1065 -0.0859
 5293TIP3   OH237293   3.240   4.293  14.081  0.5009  0.1298 -0.1196
 5293TIP3    H137294   3.322   4.266  14.039 -0.6056 -2.2311 -0.9492
 5293TIP3    H237295   3.228   4.230  14.152 -1.4513 -0.7745 -1.1656
 5294TIP3   OH237296   2.887   5.076  17.482 -0.2948  0.1151 -0.2669
 5294TIP3    H137297   2.975   5.044  17.502 -0.0393  2.4877  3.4211
 5294TIP3    H237298   2.833   4.997  17.473  1.2572 -1.4984  2.8981
 5295TIP3   OH237299   4.064   6.343  12.617  0.1280  0.4984  0.5342
 5295TIP3    H137300   4.007   6.415  12.646  0.7780  0.0524  3.1464
 5295TIP3    H237301   4.153   6.374  12.634  0.4539 -0.5261  0.7805
 5296TIP3   OH237302   4.810   1.033  14.585  0.6419  0.5139 -0.0160
 5296TIP3    H137303   4.749   1.021  14.658  2.1024 -0.8819  1.0596
 5296TIP3    H237304   4.893   1.053  14.627  1.3743  0.3053 -1.3311
 5297TIP3   OH237305   0.875   0.759  16.319 -0.1753 -0.0165 -0.4230
 5297TIP3    H137306   0.794   0.809  16.323 -0.1310  0.1350 -1.3284
 5297TIP3    H237307   0.917   0.785  16.237  0.5494 -0.4610 -0.2108
 5298TIP3   OH237308   3.722   4.758   5.097 -0.1814  0.0351  0.3237
 5298TIP3    H137309   3.808   4.716   5.100  0.0158  0.4431  0.4407
 5298TIP3    H237310   3.724   4.822   5.168 -0.4088  0.3781  0.0233
 5299TIP3   OH237311   6.542   1.834  16.104  0.1808 -0.0417  0.7618
 5299TIP3    H137312   6.592   1.759  16.070  0.8023  0.3963  0.6872
 5299TIP3    H237313   6.595   1.866  16.177  0.7158  1.2659 -0.1619
 5300TIP3   OH237314   3.133   6.526   1.158  0.5175 -1.0066 -0.4949
 5300TIP3    H137315   3.202   6.564   1.214  0.0993 -1.0658  0.0692
 5300TIP3    H237316   3.052   6.567   1.189  0.4010 -0.2144 -1.7941
 5301TIP3   OH237317   5.825   5.044  12.801 -0.1156 -0.2522 -0.6838
 5301TIP3    H137318   5.761   5.081  12.862  1.3749 -1.2146  1.5564
 5301TIP3    H237319   5.869   5.120  12.763 -0.8644  0.3536 -0.3722
 5302TIP3   OH237320   0.064   1.686  16.988  0.1108  0.5725 -0.0170
 5302TIP3    H137321   0.019   1.770  16.997 -0.9544  0.0114  0.1439
 5302TIP3    H237322   0.067   1.651  17.078 -0.9487 -0.2770 -0.2832
 5303TIP3   OH237323   6.424   6.705  12.652  0.3181  0.2225 -0.1354
 5303TIP3    H137324   6.450   6.706  12.744  1.6316  0.5757 -0.4979
 5303TIP3    H237325   6.493   6.656  12.607  0.1354  0.7858 -1.0589
 5304TIP3   OH237326   4.887   4.698  13.619  0.1959 -0.0071 -0.2471
 5304TIP3    H137327   4.915   4.615  13.580  1.9658  0.4095  0.0328
 5304TIP3    H237328   4.931   4.765  13.566 -1.0422  0.7742 -0.3371
 5305TIP3   OH237329   6.063   4.668   6.027  0.5445  0.1201  0.1064
 5305TIP3    H137330   6.027   4.752   5.998 -0.9963 -1.1296 -1.7994
 5305TIP3    H237331   6.150   4.664   5.987  0.5497  0.7064  0.0492
 5306TIP3   OH237332   2.329   4.389   4.371 -0.3615  0.3008 -0.5486
 5306TIP3    H137333   2.327   4.339   4.290  0.2987  1.4272 -1.2933
 5306TIP3    H237334   2.398   4.455   4.357  0.8443 -0.4311  1.4983
 5307TIP3   OH237335   0.629   3.004  14.401 -0.1236 -0.6257  0.3210
 5307TIP3    H137336   0.583   3.023  14.483  0.3319 -0.9029  0.6505
 5307TIP3    H237337   0.712   2.965  14.430 -0.1623 -1.1701 -0.2850
 5308TIP3   OH237338   6.379   2.719  16.347 -0.3180 -0.1013 -0.3838
 5308TIP3    H137339   6.473   2.719  16.329  0.0438  0.3495  1.2969
 5308TIP3    H237340   6.341   2.665  16.278  1.3881 -1.7601 -0.0917
 5309TIP3   OH237341   3.485   2.523  15.215  0.4882  0.0747  0.1474
 5309TIP3    H137342   3.523   2.436  15.204  0.2552  0.1728 -1.7354
 5309TIP3    H237343   3.530   2.578  15.150 -0.7143  0.8816 -0.0425
 5310TIP3   OH237344   0.209   1.827  12.064 -0.0662 -0.2087 -0.3780
 5310TIP3    H137345   0.199   1.774  11.984 -2.1948  0.7329 -0.7994
 5310TIP3    H237346   0.168   1.775  12.132 -0.9346  0.2852 -0.5162
 5311TIP3   OH237347   6.384   4.006   4.832 -0.4047 -0.1818 -0.8325
 5311TIP3    H137348   6.393   4.102   4.831 -1.0054 -0.1257 -2.0605
 5311TIP3    H237349   6.397   3.979   4.741  1.4829 -1.4686 -0.2539
 5312TIP3   OH237350   3.352   5.873  12.751  0.6688 -0.2104  0.2170
 5312TIP3    H137351   3.301   5.949  12.723  1.9498  0.5669 -0.0930
 5312TIP3    H237352   3.443   5.900  12.739  1.1507 -2.2728 -1.1760
 5313TIP3   OH237353   4.369   2.267   6.064  0.3840 -0.0513 -0.7835
 5313TIP3    H137354   4.442   2.273   6.002  0.6368  2.4553 -0.3379
 5313TIP3    H237355   4.324   2.351   6.056 -2.1177 -1.2845 -0.5832
 5314TIP3   OH237356   3.735   2.260  15.975  0.1484  0.3429  0.3004
 5314TIP3    H137357   3.821   2.298  15.955  0.0557 -0.2221 -1.2459
 5314TIP3    H237358   3.674   2.334  15.969  0.0255  0.0991 -2.2967
 5315TIP3   OH237359   3.785   1.483  11.355 -0.1172  0.4325  0.0110
 5315TIP3    H137360   3.808   1.566  11.395 -1.4886  1.5262 -1.3732
 5315TIP3    H237361   3.739   1.506  11.274 -1.4659 -1.6485  0.0940
 5316TIP3   OH237362   1.429   4.214  13.983  0.0348  0.0058  0.1054
 5316TIP3    H137363   1.470   4.272  14.048 -0.8945  0.8977 -0.0738
 5316TIP3    H237364   1.394   4.274  13.916  2.5807 -0.9601 -2.2500
 5317TIP3   OH237365   2.051   0.695  14.062  0.5412 -0.7514  0.0835
 5317TIP3    H137366   1.993   0.770  14.057  0.1667 -0.8194  2.1874
 5317TIP3    H237367   1.994   0.619  14.051  0.8435 -0.7808 -1.5354
 5318TIP3   OH237368   5.810   3.310   1.185  0.0672  0.0046  0.0933
 5318TIP3    H137369   5.877   3.339   1.245  1.1385  0.8310 -1.4282
 5318TIP3    H237370   5.833   3.219   1.165  0.9784  0.3898 -0.6930
 5319TIP3   OH237371   2.975   5.817  14.664  0.2036 -0.1681  0.1905
 5319TIP3    H137372   2.958   5.747  14.726  1.8233 -0.2642  0.5568
 5319TIP3    H237373   3.060   5.852  14.689  0.2867  0.6759 -1.1494
 5320TIP3   OH237374   3.863   5.842  14.923 -0.1933 -0.0732  0.0360
 5320TIP3    H137375   3.940   5.897  14.939 -0.8405  0.5945  0.9256
 5320TIP3    H237376   3.789   5.899  14.939 -0.9115 -0.5228 -1.4491
 5321TIP3   OH237377   3.111   1.200   2.215 -0.2685 -0.5308 -0.0759
 5321TIP3    H137378   3.026   1.169   2.185 -0.3600  0.0132 -0.4013
 5321TIP3    H237379   3.109   1.294   2.198  0.9906 -0.7309 -1.5560
 5322TIP3   OH237380   2.858   5.562   2.281  0.6791 -0.0644  0.6087
 5322TIP3    H137381   2.816   5.492   2.231  1.1377 -0.7781  1.2125
 5322TIP3    H237382   2.934   5.586   2.228 -0.9806  1.9829 -1.0461
 5323TIP3   OH237383   0.615   2.712  13.443 -0.1300  0.3621  0.2529
 5323TIP3    H137384   0.567   2.759  13.375 -0.9952 -0.3633  0.3473
 5323TIP3    H237385   0.633   2.779  13.509  0.4890  1.0129 -0.5557
 5324TIP3   OH237386   0.145   2.891   6.030 -0.1308 -0.3437  0.7123
 5324TIP3    H137387   0.055   2.910   6.056 -0.3261 -1.3492  0.8248
 5324TIP3    H237388   0.187   2.863   6.111 -0.0290 -0.9706  0.4472
 5325TIP3   OH237389   1.236   1.112  16.233 -0.2372 -0.5371 -0.1194
 5325TIP3    H137390   1.232   1.163  16.314 -0.7815  0.2642 -0.6325
 5325TIP3    H237391   1.214   1.175  16.164 -0.2008 -1.3024 -0.8469
 5326TIP3   OH237392   6.317   4.255   0.631 -0.0481  0.7550  0.0813
 5326TIP3    H137393   6.230   4.217   0.617 -0.0652  0.5346  0.7578
 5326TIP3    H237394   6.324   4.264   0.726  0.7031  0.6948  0.0356
 5327TIP3   OH237395   1.206   2.876   4.321 -0.1344  0.4032 -0.5910
 5327TIP3    H137396   1.182   2.860   4.230 -3.1284 -0.7127  0.2864
 5327TIP3    H237397   1.250   2.796   4.349 -0.4058  0.2192 -0.6901
 5328TIP3   OH237398   4.406   2.835   5.905 -0.4231 -0.4690 -0.3682
 5328TIP3    H137399   4.360   2.861   5.984  2.1017 -1.2120  1.4831
 5328TIP3    H237400   4.343   2.780   5.858 -1.8940 -0.2915  1.2849
 5329TIP3   OH237401   3.010   0.090   4.139  0.0776 -0.1212  0.2241
 5329TIP3    H137402   2.976   0.152   4.203  0.0700 -0.8367  0.9404
 5329TIP3    H237403   3.094   0.128   4.111  1.6634 -1.2248  3.0159
 5330TIP3   OH237404   1.229   5.344  16.444 -0.3224 -0.9819 -0.1197
 5330TIP3    H137405   1.269   5.398  16.512 -0.3435  2.1717 -2.3845
 5330TIP3    H237406   1.135   5.352  16.459 -0.3138 -0.6817 -0.2178
 5331TIP3   OH237407   1.399   2.931  10.971  0.4873  0.4945  0.6607
 5331TIP3    H137408   1.378   3.018  10.939  2.9426  0.3550 -1.6623
 5331TIP3    H237409   1.491   2.918  10.949  0.4701 -2.3530  1.7606
 5332TIP3   OH237410   4.489   3.385   4.598  0.0265  0.0091 -0.2788
 5332TIP3    H137411   4.453   3.297   4.606 -0.5687  0.2484 -0.2321
 5332TIP3    H237412   4.492   3.402   4.504 -0.9683  0.3743 -0.2539
 5333TIP3   OH237413   5.611   2.181  12.046 -0.3528 -0.6699  0.3747
 5333TIP3    H137414   5.584   2.230  11.968  0.0410 -0.8653  0.1140
 5333TIP3    H237415   5.660   2.244  12.099  0.3675 -0.8401 -0.0756
 5334TIP3   OH237416   5.471   2.808  11.962 -0.5014  0.6126  0.2691
 5334TIP3    H137417   5.412   2.815  11.886 -0.5123  0.4939  0.2668
 5334TIP3    H237418   5.551   2.853  11.934  0.4531 -1.5695 -0.7641
 5335TIP3   OH237419   3.531   6.238   1.895 -0.1750  0.0632 -0.6102
 5335TIP3    H137420   3.604   6.280   1.850  0.1572  0.2976  0.1280
 5335TIP3    H237421   3.559   6.148   1.909 -0.2785 -0.0097 -0.8668
 5336TIP3   OH237422   0.869   1.575  14.466  0.2124 -0.1317 -0.0483
 5336TIP3    H137423   0.805   1.539  14.528  0.7152  0.5867  0.9108
 5336TIP3    H237424   0.933   1.505  14.454  0.4085 -0.0836  0.6807
 5337TIP3   OH237425   5.625   3.704   4.808 -0.3706  0.5920 -0.1157
 5337TIP3    H137426   5.578   3.621   4.793 -1.6698  0.9582  1.5780
 5337TIP3    H237427   5.717   3.682   4.795 -0.8725 -0.3040 -3.0157
 5338TIP3   OH237428   5.874   1.744  11.872  0.6626  0.6157  0.3966
 5338TIP3    H137429   5.851   1.835  11.892  0.0622  0.6356 -0.3145
 5338TIP3    H237430   5.790   1.702  11.853  1.1099  0.4848 -1.4917
 5339TIP3   OH237431   4.577   2.039  15.958 -0.2252  0.6453  0.6714
 5339TIP3    H137432   4.564   1.987  15.879 -0.1530  1.5489  0.0470
 5339TIP3    H237433   4.624   1.981  16.018 -0.6172 -0.1741  0.1948
 5340TIP3   OH237434   2.054   2.521   2.952  0.3575  0.4661  0.9718
 5340TIP3    H137435   2.027   2.562   2.870  0.6555  1.6513  1.4504
 5340TIP3    H237436   1.972   2.492   2.992  0.3276 -1.7102 -0.5242
 5341TIP3   OH237437   3.911   3.880   3.950 -0.1786  0.4720  0.1971
 5341TIP3    H137438   3.838   3.863   4.010 -0.4001  2.9130  0.7138
 5341TIP3    H237439   3.948   3.793   3.933 -2.7623 -0.7848  0.4377
 5342TIP3   OH237440   4.301   2.207   5.006  0.4582  0.3156  0.4776
 5342TIP3    H137441   4.240   2.162   4.947 -0.8439  3.0963 -0.4728
 5342TIP3    H237442   4.388   2.181   4.976 -0.2245 -0.3262 -1.0203
 5343TIP3   OH237443   5.355   5.100  12.095 -0.0161 -0.2093 -0.1848
 5343TIP3    H137444   5.333   5.113  12.003 -0.0158 -2.8337 -0.6148
 5343TIP3    H237445   5.371   5.189  12.128 -0.1741  0.8169 -2.6416
 5344TIP3   OH237446   2.947   3.970  15.964  0.1759 -0.2063 -0.3261
 5344TIP3    H137447   2.988   3.929  16.040  0.0647  1.4998  0.7007
 5344TIP3    H237448   2.933   3.898  15.902 -2.5764 -2.3183  2.4607
 5345TIP3   OH237449   5.596   4.103  14.265  0.2041 -0.4935  0.2032
 5345TIP3    H137450   5.620   4.015  14.236  0.2717 -0.3295 -0.2607
 5345TIP3    H237451   5.590   4.153  14.184 -2.0544 -0.5848  0.2514
 5346TIP3   OH237452   6.549   3.082  13.473 -0.1139  0.3410  0.9089
 5346TIP3    H137453   6.493   3.024  13.422 -0.8124  1.8117 -0.0493
 5346TIP3    H237454   6.510   3.082  13.561 -0.7035  0.1542  0.6474
 5347TIP3   OH237455   1.415   2.011  12.893 -0.2355 -0.2640  0.3193
 5347TIP3    H137456   1.389   2.104  12.892  3.0615  0.8504  2.0710
 5347TIP3    H237457   1.423   1.990  12.986  0.4749 -1.8877 -0.0763
 5348TIP3   OH237458   3.357   1.760   1.881  0.3628  0.4162  0.1926
 5348TIP3    H137459   3.299   1.710   1.823 -0.1215  3.1508 -1.9123
 5348TIP3    H237460   3.309   1.768   1.963 -0.6947 -0.3275 -0.3399
 5349TIP3   OH237461   1.454   5.124   3.570 -0.4006 -0.0187 -0.1471
 5349TIP3    H137462   1.514   5.051   3.580 -0.0245  0.0940 -1.4037
 5349TIP3    H237463   1.481   5.187   3.637 -0.4575 -0.8431  0.6565
 5350TIP3   OH237464   2.412   4.923  13.306  0.1613 -0.0168 -0.1189
 5350TIP3    H137465   2.426   4.831  13.283 -0.2973 -0.0068 -0.4412
 5350TIP3    H237466   2.364   4.920  13.389 -1.0834 -0.0868 -0.8279
 5351TIP3   OH237467   5.242   4.030  15.339  0.0324 -0.0559 -1.0934
 5351TIP3    H137468   5.269   3.943  15.370  0.8598  1.0630  1.6808
 5351TIP3    H237469   5.304   4.052  15.270  1.1420 -0.8670 -0.3920
 5352TIP3   OH237470   1.317   2.533  10.994 -0.0895 -0.0446  0.3407
 5352TIP3    H137471   1.300   2.467  10.927 -0.3501  0.1474  0.2160
 5352TIP3    H237472   1.240   2.529  11.052 -0.5369  0.7668 -0.1750
 5353TIP3   OH237473   3.171   0.358  17.521 -0.4650  0.3221 -0.1523
 5353TIP3    H137474   3.111   0.302  17.571 -0.6408  0.2010 -0.4922
 5353TIP3    H237475   3.191   0.306  17.442  0.8731 -0.0653  0.4182
 5354TIP3   OH237476   5.102   3.881   6.541 -0.7241  0.1515  0.3336
 5354TIP3    H137477   5.156   3.917   6.471 -0.1649 -1.2469  0.0205
 5354TIP3    H237478   5.089   3.955   6.601 -1.8702  1.5846 -1.5901
 5355TIP3   OH237479   0.351   0.219  15.166 -0.7121 -0.0743  0.7710
 5355TIP3    H137480   0.358   0.199  15.259  3.1404  0.2275  0.7034
 5355TIP3    H237481   0.340   0.314  15.163  1.3733  0.2193  0.9880
 5356TIP3   OH237482   0.441   6.324   3.810 -0.2028 -0.1540  0.3858
 5356TIP3    H137483   0.424   6.387   3.740  1.0915 -1.3737 -1.0993
 5356TIP3    H237484   0.382   6.351   3.880 -1.0719  1.5379 -0.8953
 5357TIP3   OH237485   1.616   4.590   1.502  0.1902 -0.0200 -0.0374
 5357TIP3    H137486   1.522   4.568   1.500  0.3377 -0.8398  0.9166
 5357TIP3    H237487   1.620   4.667   1.558  0.2484 -1.1631  1.6273
 5358TIP3   OH237488   5.659   6.479   2.835 -0.3447  0.6404  0.0585
 5358TIP3    H137489   5.636   6.395   2.876 -0.1443 -1.0915 -3.0396
 5358TIP3    H237490   5.752   6.490   2.855 -0.9676  1.7147  2.8815
 5359TIP3   OH237491   3.468   1.755  13.119 -0.6614  0.1422 -0.0016
 5359TIP3    H137492   3.475   1.660  13.110 -0.8927  0.2942 -2.5697
 5359TIP3    H237493   3.393   1.768  13.177 -0.7172 -1.2309  0.2691
 5360TIP3   OH237494   4.286   5.050  15.856 -0.0853 -0.2416  0.4559
 5360TIP3    H137495   4.333   5.077  15.934  0.4681  0.4291 -0.0969
 5360TIP3    H237496   4.350   5.000  15.805 -0.9945 -2.4026  1.3131
 5361TIP3   OH237497   5.983   1.919  16.959  0.3085  0.4106 -0.0969
 5361TIP3    H137498   5.961   1.988  17.021 -0.6423 -0.1727  0.2393
 5361TIP3    H237499   5.982   1.961  16.873 -0.3274  0.7913  0.0958
 5362TIP3   OH237500   3.331   5.394  14.395 -0.3300 -0.0692 -0.0028
 5362TIP3    H137501   3.335   5.398  14.299 -0.1915 -0.4815 -0.0161
 5362TIP3    H237502   3.411   5.438  14.424  0.7562 -1.8561 -0.1278
 5363TIP3   OH237503   1.046   1.064  13.913  0.2083 -0.2017 -0.0415
 5363TIP3    H137504   1.084   1.098  13.994 -0.2123 -2.1532  1.0170
 5363TIP3    H237505   1.083   0.976  13.904 -1.3289 -0.7919 -0.8590
 5364TIP3   OH237506   5.831   3.985  15.789 -0.2876  0.1740 -0.4056
 5364TIP3    H137507   5.774   3.924  15.834 -0.7153 -0.4939 -1.7997
 5364TIP3    H237508   5.782   4.067  15.787 -1.2513 -0.3990 -1.6018
 5365TIP3   OH237509   4.646   0.440  12.097 -0.1251  0.1609  0.0889
 5365TIP3    H137510   4.709   0.368  12.099 -0.0110  0.1594 -1.8163
 5365TIP3    H237511   4.594   0.424  12.018 -1.3644  1.1386  0.6750
 5366TIP3   OH237512   3.767   2.209   5.988 -0.6439 -0.2526 -0.2778
 5366TIP3    H137513   3.739   2.260   6.065  0.0833  1.7759 -1.2604
 5366TIP3    H237514   3.721   2.250   5.915 -0.3349 -1.3094 -1.0720
 5367TIP3   OH237515   2.893   1.245  16.017 -0.2636 -0.1102 -0.4998
 5367TIP3    H137516   2.843   1.191  16.078  0.0805 -1.4142 -1.3155
 5367TIP3    H237517   2.907   1.327  16.063 -1.0668 -0.6039  0.6810
 5368TIP3   OH237518   5.865   5.981  16.751 -1.0903  0.6573 -0.5997
 5368TIP3    H137519   5.904   5.995  16.837  2.5884  0.5872 -2.0530
 5368TIP3    H237520   5.865   6.068  16.710 -1.2918  0.4271 -1.1015
 5369TIP3   OH237521   0.675   0.973  14.881  0.1204  0.2103  0.6207
 5369TIP3    H137522   0.602   0.928  14.923  0.0670  0.6521  1.0006
 5369TIP3    H237523   0.636   1.050  14.840  0.1374 -0.3136 -0.4148
 5370TIP3   OH237524   2.446   5.771  16.174  0.0344  0.1500  0.3234
 5370TIP3    H137525   2.389   5.699  16.149  0.5266 -0.4763  0.9572
 5370TIP3    H237526   2.490   5.797  16.093 -0.8501  0.3873 -0.0920
 5371TIP3   OH237527   6.596   2.195  11.822 -0.0300  0.2215 -0.1232
 5371TIP3    H137528   6.641   2.119  11.858 -1.1341 -0.4203 -0.0430
 5371TIP3    H237529   6.551   2.162  11.744 -1.2262  0.5663  0.3942
 5372TIP3   OH237530   3.511   0.123   2.838  0.2006 -0.2141 -0.1237
 5372TIP3    H137531   3.430   0.083   2.807  1.3169 -2.6093 -0.1379
 5372TIP3    H237532   3.562   0.139   2.759 -0.7287  2.6928 -0.2772
 5373TIP3   OH237533   1.159   4.657  14.461 -0.3448 -0.0523  0.2211
 5373TIP3    H137534   1.156   4.574  14.413 -1.3238 -0.5851  1.1671
 5373TIP3    H237535   1.167   4.632  14.553  1.0186  0.9506  0.3973
 5374TIP3   OH237536   3.210   1.148  14.752  0.7860 -0.5128  0.8880
 5374TIP3    H137537   3.288   1.173  14.802  0.0137  0.8242  1.4464
 5374TIP3    H237538   3.221   1.190  14.667  0.2929  0.3684  1.2509
 5375TIP3   OH237539   5.887   4.333   5.518 -0.3510 -0.5073 -0.3074
 5375TIP3    H137540   5.957   4.279   5.482  1.1019  2.4911 -2.3750
 5375TIP3    H237541   5.926   4.377   5.593 -0.6277 -0.2466 -0.3126
 5376TIP3   OH237542   0.134   2.918   5.519 -1.2838  0.0663 -0.1974
 5376TIP3    H137543   0.224   2.889   5.508 -1.1307 -1.4653  3.4360
 5376TIP3    H237544   0.131   3.005   5.479  1.2624 -0.5732 -1.9798
 5377TIP3   OH237545   3.045   5.090   3.127 -0.0233  0.7254 -0.2819
 5377TIP3    H137546   3.024   5.169   3.176  0.4316  0.2242  0.7591
 5377TIP3    H237547   2.978   5.086   3.058 -1.3332  0.9165  0.9197
 5378TIP3   OH237548   5.632   5.234   4.035  0.0126  0.1743  0.0605
 5378TIP3    H137549   5.706   5.174   4.044 -1.7808 -2.0166  1.4824
 5378TIP3    H237550   5.672   5.320   4.027  2.7038 -0.8763  0.8928
 5379TIP3   OH237551   3.919   5.926  15.232  0.0912  0.4009 -0.0024
 5379TIP3    H137552   3.825   5.940  15.219 -0.0684 -0.1204  0.5185
 5379TIP3    H237553   3.945   5.993  15.296  0.2987  1.1986 -0.8988
 5380TIP3   OH237554   5.357   2.802  17.509 -0.0730 -0.0883  0.0899
 5380TIP3    H137555   5.306   2.827  17.431  0.0480  2.3509  0.7087
 5380TIP3    H237556   5.427   2.867  17.514  3.0612 -3.1216 -0.5286
 5381TIP3   OH237557   4.624   3.912   5.230  0.2499  0.0226 -0.2425
 5381TIP3    H137558   4.655   3.994   5.268  2.0029 -0.5412 -0.3187
 5381TIP3    H237559   4.611   3.931   5.137  3.0531 -0.2893 -0.7995
 5382TIP3   OH237560   3.850   0.695  13.265  0.2791  0.8588  0.1105
 5382TIP3    H137561   3.760   0.704  13.296  0.8911  2.9609  1.5548
 5382TIP3    H237562   3.900   0.674  13.344  1.0670 -0.2677 -0.6632
 5383TIP3   OH237563   6.650   5.637   5.023  0.1053  0.0705  0.5878
 5383TIP3    H137564   6.661   5.714   5.079 -0.1868 -0.1248  0.9171
 5383TIP3    H237565   6.581   5.662   4.962  1.5528  0.8969 -0.7788
 5384TIP3   OH237566   1.323   6.080   3.781  0.3257  0.0022  0.1426
 5384TIP3    H137567   1.350   6.126   3.860 -2.0404  1.4848  0.1759
 5384TIP3    H237568   1.257   6.017   3.810  0.5410 -0.5235 -0.4646
 5385TIP3   OH237569   0.831   4.610   0.916 -0.3591  0.2773 -0.1779
 5385TIP3    H137570   0.860   4.610   1.007 -2.5609  0.1450  0.5982
 5385TIP3    H237571   0.909   4.631   0.865  0.7589  1.1772  1.7996
 5386TIP3   OH237572   0.511   2.267  17.139  0.6684  0.5387  0.0494
 5386TIP3    H137573   0.423   2.261  17.176  0.6825  1.4391  0.2470
 5386TIP3    H237574   0.498   2.260  17.044  0.3376  1.1416  0.0486
 5387TIP3   OH237575   0.621   5.413  14.444  0.3422 -0.3780  0.1191
 5387TIP3    H137576   0.717   5.407  14.444  0.2749 -1.7297  0.1695
 5387TIP3    H237577   0.592   5.336  14.494 -0.7759 -0.0447  0.0138
 5388TIP3   OH237578   2.994   3.909   2.863  0.1070  0.2033  0.4893
 5388TIP3    H137579   3.083   3.944   2.873 -0.2905  1.1780  0.6519
 5388TIP3    H237580   3.008   3.816   2.846  1.2417  0.5963 -0.9908
 5389TIP3   OH237581   2.578   5.020   1.109 -0.2183  0.0991  0.1631
 5389TIP3    H137582   2.605   4.947   1.163  0.7804  0.7533  0.5638
 5389TIP3    H237583   2.626   5.095   1.143 -1.2645  0.9666 -0.1985
 5390TIP3   OH237584   0.582   0.440  15.690 -0.4476  0.0531 -0.1588
 5390TIP3    H137585   0.609   0.532  15.688 -0.0183 -0.0757 -1.1686
 5390TIP3    H237586   0.643   0.396  15.631 -0.2655 -1.0002  0.7953
 5391TIP3   OH237587   0.973   0.496  10.488 -0.2277 -0.7361  0.0679
 5391TIP3    H137588   1.036   0.543  10.542  0.0400 -0.5149 -0.4272
 5391TIP3    H237589   1.026   0.436  10.435 -0.5497 -1.4767  0.5634
 5392TIP3   OH237590   5.506   1.088   2.176 -0.4871 -0.4943 -0.4068
 5392TIP3    H137591   5.435   1.096   2.111 -0.0727  0.1891 -0.7897
 5392TIP3    H237592   5.581   1.056   2.125 -0.0522  0.4025 -0.3609
 5393TIP3   OH237593   4.031   2.977   1.147  0.8836 -0.1149  0.1206
 5393TIP3    H137594   4.100   2.992   1.212  0.0717 -0.8535  1.2012
 5393TIP3    H237595   4.049   2.890   1.112 -0.0411 -0.7551  1.1569
 5394TIP3   OH237596   6.006   2.431  11.897  0.1602  1.1316  0.1885
 5394TIP3    H137597   6.072   2.431  11.967  0.8026 -0.1861 -0.3757
 5394TIP3    H237598   5.968   2.343  11.900 -0.0415  1.1716 -0.9031
 5395TIP3   OH237599   4.476   4.484   0.717  0.6462  0.8764 -0.0632
 5395TIP3    H137600   4.445   4.546   0.651  2.7605  0.2713 -1.7378
 5395TIP3    H237601   4.400   4.428   0.734 -0.3830  1.9701 -0.8852
 5396TIP3   OH237602   0.569   6.285   6.183 -0.1419  0.1054  0.8044
 5396TIP3    H137603   0.651   6.237   6.172  0.3211  1.1463 -0.6529
 5396TIP3    H237604   0.500   6.220   6.171  0.4766 -0.3670 -0.3198
 5397TIP3   OH237605   1.587   1.051  11.285 -0.0453 -0.1761  0.0114
 5397TIP3    H137606   1.678   1.066  11.263 -0.2923  1.1556 -0.1647
 5397TIP3    H237607   1.546   1.137  11.278 -1.7824 -1.0824 -2.0386
 5398TIP3   OH237608   6.026   4.442   4.343 -0.7116 -0.2871  0.4410
 5398TIP3    H137609   6.113   4.466   4.373 -0.2027 -1.7026  0.1618
 5398TIP3    H237610   5.995   4.519   4.296  0.0921  0.4828  1.1342
 5399TIP3   OH237611   5.190   0.316   2.767  0.1464  0.6724  0.3400
 5399TIP3    H137612   5.236   0.273   2.695 -2.2146 -1.2257 -0.1661
 5399TIP3    H237613   5.176   0.405   2.735  1.7970  0.7721 -0.2268
 5400TIP3   OH237614   2.632   5.254  16.263 -0.1360 -0.2359 -0.0164
 5400TIP3    H137615   2.585   5.333  16.290  0.6681  0.1540  0.3144
 5400TIP3    H237616   2.725   5.279  16.270  0.1225 -1.1347 -0.1412
 5401TIP3   OH237617   6.458   0.285   0.959  0.2756 -0.3826  0.2823
 5401TIP3    H137618   6.420   0.273   1.046  2.3146  1.6366  1.5728
 5401TIP3    H237619   6.456   0.197   0.919 -1.3847 -1.2105  2.0349
 5402TIP3   OH237620   5.875   2.987  17.406 -0.5140  0.1983 -0.0730
 5402TIP3    H137621   5.885   3.070  17.358  0.1758  0.0913 -0.1234
 5402TIP3    H237622   5.815   2.936  17.352 -0.9405  0.6661 -0.0430
 5403TIP3   OH237623   5.464   6.356  12.817 -0.7488  0.2956 -0.0880
 5403TIP3    H137624   5.445   6.370  12.724 -1.5535  1.9593  0.3016
 5403TIP3    H237625   5.400   6.290  12.845 -0.3686 -0.3690 -0.7320
 5404TIP3   OH237626   3.075   4.433   4.851 -0.4602  0.4337 -0.0820
 5404TIP3    H137627   2.989   4.430   4.809 -0.0940 -1.5441 -0.7986
 5404TIP3    H237628   3.136   4.407   4.782  0.2693 -1.9088  1.3352
 5405TIP3   OH237629   5.049   2.954   0.809  0.8386  0.1235 -0.4303
 5405TIP3    H137630   5.107   2.952   0.886  0.3195  0.5921 -0.0139
 5405TIP3    H237631   5.103   2.921   0.738  1.3918 -0.1446  0.0985
 5406TIP3   OH237632   4.321   3.730  12.762 -0.1229  0.3690  0.1908
 5406TIP3    H137633   4.349   3.806  12.812 -2.0832  1.0106  0.3855
 5406TIP3    H237634   4.353   3.655  12.813  2.6563  0.9690 -0.4847
 5407TIP3   OH237635   4.313   2.901  16.488  0.8168  0.0961 -0.6177
 5407TIP3    H137636   4.327   2.831  16.553  0.8165  1.4125  0.8638
 5407TIP3    H237637   4.219   2.901  16.473  0.8931 -0.6674 -1.1761
 5408TIP3   OH237638   4.790   4.762   6.343  0.8333 -0.5199  0.1757
 5408TIP3    H137639   4.764   4.836   6.399  1.2811 -0.1278 -0.1247
 5408TIP3    H237640   4.712   4.742   6.292  1.4387  1.5422 -1.7237
 5409TIP3   OH237641   0.241   2.832  12.528  0.4162  0.1551  0.4577
 5409TIP3    H137642   0.321   2.884  12.533 -0.5187  1.6200  1.2062
 5409TIP3    H237643   0.267   2.750  12.488  2.0052  1.1532 -0.6556
 5410TIP3   OH237644   3.149   5.838  15.631  0.0358  0.0738  0.0546
 5410TIP3    H137645   3.220   5.852  15.694  1.2697  0.5397 -1.3721
 5410TIP3    H237646   3.191   5.848  15.546 -1.4836 -0.9859 -0.8676
 5411TIP3   OH237647   0.983   3.734   0.294 -0.4452  0.2078  0.1370
 5411TIP3    H137648   1.058   3.677   0.313 -0.1913  0.5869  0.2631
 5411TIP3    H237649   0.970   3.725   0.200 -0.2115  0.1796  0.1071
 5412TIP3   OH237650   4.968   4.160   2.979  0.6040 -0.6041 -0.2091
 5412TIP3    H137651   4.872   4.166   2.986  0.4348 -0.6792 -2.0636
 5412TIP3    H237652   4.995   4.248   2.953  1.0838 -0.5420  0.4645
 5413TIP3   OH237653   4.886   6.334   0.669  0.5491 -0.2195  0.2357
 5413TIP3    H137654   4.896   6.250   0.714  0.4982 -0.0670  0.5362
 5413TIP3    H237655   4.877   6.311   0.577 -0.3695 -0.6162  0.4078
 5414TIP3   OH237656   4.576   0.207  14.361 -0.2231  0.3565 -0.9328
 5414TIP3    H137657   4.540   0.286  14.402 -0.0079 -0.0693  0.0988
 5414TIP3    H237658   4.666   0.232  14.337  0.4565 -0.0663  0.9786
 5415TIP3   OH237659   4.990   1.491  17.498  0.0169 -0.1181  0.0284
 5415TIP3    H137660   5.060   1.429  17.519  0.7996  0.7389  0.0598
 5415TIP3    H237661   4.922   1.438  17.456  1.2774 -0.7879 -1.2835
 5416TIP3   OH237662   3.035   0.709  13.981 -0.1408  0.4568  0.4693
 5416TIP3    H137663   3.089   0.750  13.913 -1.0910  0.2654 -0.4181
 5416TIP3    H237664   3.098   0.666  14.039  0.6526  0.0954 -0.6343
 5417TIP3   OH237665   2.166   0.136  15.590  0.0971  0.4178  0.2663
 5417TIP3    H137666   2.184   0.221  15.550  1.3718  0.2187  0.3909
 5417TIP3    H237667   2.139   0.156  15.680 -0.3849  0.7221  0.0587
 5418TIP3   OH237668   3.494   3.759  13.377  0.0034  0.1946  0.0844
 5418TIP3    H137669   3.583   3.775  13.346  1.1099 -0.1730  2.8581
 5418TIP3    H237670   3.460   3.691  13.318  2.0615 -0.6512 -0.2137
 5419TIP3   OH237671   4.024   3.802  13.118 -0.5570 -0.1603  0.4263
 5419TIP3    H137672   4.008   3.811  13.212 -0.0563  2.9575  0.3205
 5419TIP3    H237673   4.118   3.787  13.111 -0.5100  0.1486  0.4033
 5420TIP3   OH237674   5.605   4.673  16.036  0.2971  0.7540 -0.6551
 5420TIP3    H137675   5.562   4.615  15.973 -1.4541  0.6400  0.5718
 5420TIP3    H237676   5.539   4.740  16.055  0.8760  0.9304  0.8489
 5421TIP3   OH237677   6.123   5.758  16.509 -0.3470  0.2736 -0.5459
 5421TIP3    H137678   6.203   5.720  16.472 -0.5032 -1.0301  0.3955
 5421TIP3    H237679   6.135   5.853  16.498  1.4832  0.1293 -0.1227
 5422TIP3   OH237680   5.196   1.049  12.639  0.3340 -0.6744  0.6889
 5422TIP3    H137681   5.166   1.106  12.710 -0.3264 -1.8616  1.3942
 5422TIP3    H237682   5.160   0.963  12.660  1.6717 -1.4685 -0.1178
 5423TIP3   OH237683   3.072   0.511  17.004  0.1518 -0.1895 -0.0050
 5423TIP3    H137684   2.989   0.519  16.958  0.0317  1.9656  0.4700
 5423TIP3    H237685   3.118   0.593  16.985  1.4968 -0.6695  1.0197
 5424TIP3   OH237686   1.156   4.282  13.398 -0.1131  0.1803  0.6515
 5424TIP3    H137687   1.225   4.243  13.344  1.3691  1.6371  1.4125
 5424TIP3    H237688   1.102   4.208  13.424  0.7562 -0.9188 -0.5421
 5425TIP3   OH237689   4.937   0.440   1.250  0.3947 -0.1188  0.3416
 5425TIP3    H137690   5.030   0.419   1.254  0.9524  2.0528 -0.0039
 5425TIP3    H237691   4.931   0.516   1.192 -2.0124 -2.0990 -2.2983
 5426TIP3   OH237692   1.878   6.011   1.092 -0.0924  0.5335  0.6162
 5426TIP3    H137693   1.921   5.926   1.101 -1.7779 -0.5478 -0.9155
 5426TIP3    H237694   1.791   5.998   1.128 -0.6702  1.3276 -0.4243
 5427TIP3   OH237695   3.507   4.917  13.892  0.0156  0.3269 -0.4133
 5427TIP3    H137696   3.595   4.888  13.865 -0.5944 -1.8948 -0.1892
 5427TIP3    H237697   3.472   4.844  13.941 -1.5455  1.6536  0.5361
 5428TIP3   OH237698   2.081   3.515   1.910 -0.6133 -0.6385 -0.2597
 5428TIP3    H137699   2.112   3.426   1.895 -1.3132 -0.7083 -1.3695
 5428TIP3    H237700   2.114   3.565   1.835  0.7655  0.3254  0.9140
 5429TIP3   OH237701   4.908   3.512  11.968 -0.3383  0.3738 -0.1339
 5429TIP3    H137702   4.910   3.421  11.999  0.6233 -0.5852 -2.7256
 5429TIP3    H237703   4.821   3.523  11.930 -0.8274  0.9421  1.0596
 5430TIP3   OH237704   1.407   2.535   2.818 -0.4608 -0.1706 -0.4084
 5430TIP3    H137705   1.428   2.465   2.881  1.7274  2.0105  1.4947
 5430TIP3    H237706   1.322   2.568   2.846 -0.2351 -0.2663  0.4045
 5431TIP3   OH237707   4.135   0.809   2.768  0.0663  0.1095  0.4664
 5431TIP3    H137708   4.104   0.887   2.814 -0.3396 -0.3157  0.9273
 5431TIP3    H237709   4.152   0.745   2.837  0.3110 -0.2417  0.0858
 5432TIP3   OH237710   1.592   3.133   3.450 -0.1053 -0.4481  0.0676
 5432TIP3    H137711   1.604   3.083   3.369  2.2214  2.3997 -1.5422
 5432TIP3    H237712   1.519   3.191   3.431 -1.3367 -1.5903  1.1075
 5433TIP3   OH237713   6.387   0.127   3.053 -0.1021  0.2336 -0.1867
 5433TIP3    H137714   6.317   0.160   3.109  0.0417  0.1083  0.0714
 5433TIP3    H237715   6.351   0.047   3.014  0.0569 -0.0797  0.3007
 5434TIP3   OH237716   5.261   2.992   1.503  0.1161  0.3682  0.0764
 5434TIP3    H137717   5.269   2.975   1.597 -0.1105 -0.0387  0.0271
 5434TIP3    H237718   5.351   3.008   1.474  0.5176 -1.8043 -0.0521
 5435TIP3   OH237719   0.371   5.972  14.414 -0.3087 -0.0670 -0.3791
 5435TIP3    H137720   0.408   5.895  14.371 -0.1505 -0.8701  1.1356
 5435TIP3    H237721   0.446   6.015  14.455 -0.6314 -0.0324  0.1813
 5436TIP3   OH237722   2.508   4.287   3.171 -0.3775  0.8515  0.8546
 5436TIP3    H137723   2.437   4.237   3.210 -0.3770  0.6500  0.5977
 5436TIP3    H237724   2.478   4.378   3.175 -0.7301  0.7489  0.5747
 5437TIP3   OH237725   1.722   6.066  17.422  0.6769 -0.0440  0.0473
 5437TIP3    H137726   1.702   5.988  17.474 -2.3121 -0.6827 -1.7921
 5437TIP3    H237727   1.688   6.139  17.475 -0.0923 -0.4254  0.0960
 5438TIP3   OH237728   2.724   4.059   2.252  0.1097 -0.2672  0.2223
 5438TIP3    H137729   2.817   4.058   2.272 -0.3222 -1.5792  2.5681
 5438TIP3    H237730   2.699   3.967   2.248 -0.6105 -0.0859 -3.4686
 5439TIP3   OH237731   4.438   5.610  15.037 -0.4311 -0.1177  0.6452
 5439TIP3    H137732   4.351   5.571  15.044 -0.3832 -0.3105  0.1495
 5439TIP3    H237733   4.433   5.668  14.961  0.0386 -0.5516  0.2776
 5440TIP3   OH237734   1.973   0.715   4.526 -0.5222  0.5052 -0.4327
 5440TIP3    H137735   2.024   0.774   4.470  0.5038 -0.8916 -1.0149
 5440TIP3    H237736   1.915   0.668   4.466 -0.4701  0.0557 -0.1341
 5441TIP3   OH237737   6.460   5.700   5.587 -0.1633 -0.4989  0.5764
 5441TIP3    H137738   6.397   5.654   5.642 -2.1928  1.5719  0.1579
 5441TIP3    H237739   6.454   5.792   5.616  2.1517 -0.1154 -0.0008
 5442TIP3   OH237740   2.547   2.578   4.352 -0.0025 -0.0132  0.4419
 5442TIP3    H137741   2.456   2.574   4.322 -0.5807 -2.1428  2.1679
 5442TIP3    H237742   2.589   2.503   4.310  0.7307  0.4159  0.3949
 5443TIP3   OH237743   5.129   5.835  10.600  0.3667  0.1339  0.2373
 5443TIP3    H137744   5.211   5.880  10.577  0.6250  0.5471  1.8310
 5443TIP3    H237745   5.133   5.753  10.552  1.6906  0.1901  0.1992
 5444TIP3   OH237746   2.359   3.561   1.560  0.1694 -0.3650  0.2712
 5444TIP3    H137747   2.387   3.639   1.609  0.5224 -0.3127 -0.0099
 5444TIP3    H237748   2.423   3.494   1.582  1.0255 -0.0181 -0.9969
 5445TIP3   OH237749   0.635   2.636   3.544 -0.1410  0.5490  0.0159
 5445TIP3    H137750   0.587   2.646   3.627  0.8396  1.3119  0.5071
 5445TIP3    H237751   0.711   2.693   3.553 -0.0549  0.7044 -1.4567
 5446TIP3   OH237752   2.745   3.969  14.279 -0.1255  0.0970  0.6655
 5446TIP3    H137753   2.797   3.912  14.337 -0.0892  0.2127  0.7478
 5446TIP3    H237754   2.806   4.037  14.252  0.0736 -0.3761 -0.1220
 5447TIP3   OH237755   5.070   4.102  11.908  0.1111  0.5004 -0.2669
 5447TIP3    H137756   5.059   4.064  11.995  2.5958 -0.1933 -0.2027
 5447TIP3    H237757   5.024   4.041  11.850  0.2425 -0.1783  0.3241
 5448TIP3   OH237758   5.911   4.531   2.761  0.4399  0.1665 -0.1835
 5448TIP3    H137759   5.903   4.626   2.768  0.4685  0.1921 -0.4808
 5448TIP3    H237760   5.926   4.501   2.851 -2.0687  0.1849  0.3142
 5449TIP3   OH237761   4.485   1.568  14.217  0.4854 -0.2876 -0.2276
 5449TIP3    H137762   4.528   1.628  14.278  0.6478  0.5110 -1.1041
 5449TIP3    H237763   4.556   1.519  14.176  0.4595 -0.0113 -0.6056
 5450TIP3   OH237764   2.257   1.634  14.659 -0.2354 -0.4514  0.3048
 5450TIP3    H137765   2.275   1.567  14.725  0.4998 -1.5651 -0.9668
 5450TIP3    H237766   2.279   1.592  14.576 -1.3579  0.8258 -0.6838
 5451TIP3   OH237767   1.801   6.384  16.232  0.3284 -0.1747  0.2620
 5451TIP3    H137768   1.874   6.341  16.276  0.9491 -0.1792 -0.7628
 5451TIP3    H237769   1.755   6.314  16.186  0.2422 -0.0214  0.1109
 5452TIP3   OH237770   5.830   1.560   3.367  0.2322 -0.2543  0.4655
 5452TIP3    H137771   5.902   1.578   3.428  0.9665  0.6658 -0.6362
 5452TIP3    H237772   5.826   1.464   3.364  0.5315 -0.3240  1.5272
 5453TIP3   OH237773   2.312   5.545  13.179 -0.1867  0.5659 -0.0833
 5453TIP3    H137774   2.257   5.549  13.257  0.4750 -1.8743  0.6039
 5453TIP3    H237775   2.260   5.494  13.116  0.9676 -1.3484  0.4042
 5454TIP3   OH237776   5.439   3.371  13.782  0.1340  0.1592 -0.0851
 5454TIP3    H137777   5.436   3.304  13.714 -1.0208 -0.3344  0.4167
 5454TIP3    H237778   5.347   3.389  13.802  0.3692  2.7669 -1.0273
 5455TIP3   OH237779   1.743   4.743   3.950  0.3066 -0.0492  0.0008
 5455TIP3    H137780   1.764   4.788   4.031  0.7639 -1.5545  0.7520
 5455TIP3    H237781   1.826   4.705   3.922  0.4618  1.5282 -1.9103
 5456TIP3   OH237782   1.013   6.178   2.817  0.2177  0.1318 -0.6904
 5456TIP3    H137783   1.008   6.140   2.905 -0.1343 -2.4767 -1.7582
 5456TIP3    H237784   1.104   6.207   2.809  0.8121 -1.4982 -0.1740
 5457TIP3   OH237785   5.994   2.675  12.358  0.2845  0.0673  0.6977
 5457TIP3    H137786   5.916   2.627  12.385 -3.2954  3.6164 -2.2782
 5457TIP3    H237787   5.990   2.678  12.263  3.5428  1.3551  0.4468
 5458TIP3   OH237788   6.682   2.295   2.146  0.2752 -0.1387  0.1614
 5458TIP3    H137789   6.682   2.268   2.238  1.0165 -0.7619 -0.0114
 5458TIP3    H237790   6.649   2.384   2.147 -1.8065 -0.8684  0.8023
 5459TIP3   OH237791   3.608   2.744  14.179  0.2076  0.6141 -0.0977
 5459TIP3    H137792   3.631   2.825  14.224 -1.9190  0.4426  1.4488
 5459TIP3    H237793   3.578   2.685  14.249  0.7953 -1.1952 -1.2854
 5460TIP3   OH237794   6.091   3.917   5.334  0.2112 -0.0571  0.3644
 5460TIP3    H137795   6.084   3.869   5.251  2.3358 -0.5001  0.3639
 5460TIP3    H237796   6.138   3.856   5.391 -1.2313  0.2436  1.9155
 5461TIP3   OH237797   0.299   6.674   2.950 -0.4147  0.2740  0.3615
 5461TIP3    H137798   0.378   6.642   2.906 -0.2631  0.7593  0.2812
 5461TIP3    H237799   0.331   6.738   3.014 -0.7444  0.5010  0.3035
 5462TIP3   OH237800   0.770   0.470   4.526  0.5273 -0.5640  0.5206
 5462TIP3    H137801   0.822   0.390   4.537  1.0227 -0.2882  0.2206
 5462TIP3    H237802   0.688   0.451   4.571 -0.1428 -1.9727 -1.1986
 5463TIP3   OH237803   0.026   5.353   6.838 -0.5705 -0.2712  0.3986
 5463TIP3    H137804   0.068   5.269   6.855 -1.8714 -1.0579 -0.1247
 5463TIP3    H237805   0.020   5.358   6.743 -1.3947 -0.0533  0.4517
 5464TIP3   OH237806   6.546   2.092   5.765 -0.1958  0.2971 -0.8411
 5464TIP3    H137807   6.619   2.100   5.826  0.5499 -1.7461 -1.3976
 5464TIP3    H237808   6.472   2.131   5.812  0.7027  0.2157  0.7150
 5465TIP3   OH237809   4.643   0.727  11.729  0.2328  0.5272 -0.0682
 5465TIP3    H137810   4.659   0.664  11.659  0.9719 -0.4773  0.9752
 5465TIP3    H237811   4.550   0.749  11.720  0.3330  0.5020 -1.4138
 5466TIP3   OH237812   2.813   6.116  14.627 -0.5867  0.0178 -0.1605
 5466TIP3    H137813   2.778   6.200  14.597 -2.6724 -1.1016 -1.1050
 5466TIP3    H237814   2.826   6.127  14.721  0.6242  1.8279 -0.4914
 5467TIP3   OH237815   5.093   2.509  17.320  0.0174  0.4544 -0.5267
 5467TIP3    H137816   5.052   2.566  17.255 -1.2923 -0.1936 -0.3116
 5467TIP3    H237817   5.081   2.555  17.403 -0.6561  0.0902 -0.4123
 5468TIP3   OH237818   4.360   6.344  14.208 -0.3844 -0.5060  0.6218
 5468TIP3    H137819   4.306   6.266  14.216 -0.9570 -0.1977 -0.0272
 5468TIP3    H237820   4.352   6.369  14.115  2.5782 -1.6354 -0.0305
 5469TIP3   OH237821   6.221   3.721   1.619 -0.5901 -0.5422  0.3481
 5469TIP3    H137822   6.285   3.693   1.554 -0.3097 -1.8274  1.1483
 5469TIP3    H237823   6.258   3.801   1.657 -0.1558 -0.4861 -0.1809
 5470TIP3   OH237824   6.655   3.812   5.274 -0.0068 -0.0869 -0.2220
 5470TIP3    H137825   6.575   3.861   5.258  0.6023  0.7369 -0.8243
 5470TIP3    H237826   6.669   3.761   5.194  1.3983  1.6995 -1.1836
 5471TIP3   OH237827   1.459   2.975   1.406  0.2319  0.3537  0.3795
 5471TIP3    H137828   1.537   2.936   1.368  0.9832 -1.5529  3.5157
 5471TIP3    H237829   1.394   2.905   1.407  0.0486  0.5054  1.9295
 5472TIP3   OH237830   4.020   5.895  17.177 -0.0947 -0.0456  0.8779
 5472TIP3    H137831   4.115   5.883  17.184 -0.3178 -1.8067  1.2340
 5472TIP3    H237832   3.983   5.814  17.211 -1.7961  1.4040  2.7769
 5473TIP3   OH237833   4.847   0.236  12.154  0.1211 -0.2545 -0.2303
 5473TIP3    H137834   4.847   0.175  12.080  0.3408  0.1399 -0.5583
 5473TIP3    H237835   4.896   0.190  12.222 -0.7350 -0.9396 -0.0498
 5474TIP3   OH237836   2.849   0.488  15.406 -0.2149  0.2235  0.2494
 5474TIP3    H137837   2.863   0.417  15.343  0.3761  2.3731 -2.2288
 5474TIP3    H237838   2.937   0.522  15.423 -0.5387  0.7540  0.9159
 5475TIP3   OH237839   3.278   6.021   3.155 -0.5246  0.3164  0.3715
 5475TIP3    H137840   3.236   5.951   3.205 -0.7341  1.4445  1.8411
 5475TIP3    H237841   3.218   6.095   3.161  0.1059  0.9114 -0.3824
 5476TIP3   OH237842   1.180   3.090   6.200  0.2166 -0.0196 -0.1847
 5476TIP3    H137843   1.268   3.114   6.226  2.0100 -0.8637 -4.6086
 5476TIP3    H237844   1.172   2.998   6.224  1.2622 -0.4101 -1.2482
 5477TIP3   OH237845   3.393   1.620  16.022  0.4326  0.0713  0.3432
 5477TIP3    H137846   3.438   1.598  15.941  0.9638 -1.5822  1.0429
 5477TIP3    H237847   3.440   1.696  16.056  1.4274 -0.3922  0.0361
 5478TIP3   OH237848   3.046   6.595  15.003  0.4393 -0.5632 -1.2009
 5478TIP3    H137849   3.135   6.600  15.037  0.1583  1.0738 -0.6518
 5478TIP3    H237850   3.055   6.611  14.909  0.6856  0.1041 -1.0687
 5479TIP3   OH237851   5.787   2.364  11.704 -0.3875 -0.5441  0.1822
 5479TIP3    H137852   5.850   2.304  11.744  1.2478  0.5251 -0.6661
 5479TIP3    H237853   5.831   2.449  11.706 -2.2927  0.4935  0.5869
 5480TIP3   OH237854   5.892   1.308   3.057  0.1276  0.3551  0.1062
 5480TIP3    H137855   5.883   1.221   3.017 -0.4048  0.7449 -0.6358
 5480TIP3    H237856   5.852   1.368   2.994  0.1372  1.0988  0.7956
 5481TIP3   OH237857   0.801   5.327  16.849 -0.2311  0.1560 -0.4212
 5481TIP3    H137858   0.873   5.308  16.790 -0.3791  0.4498 -0.7018
 5481TIP3    H237859   0.827   5.288  16.932 -0.3082 -0.8281 -0.8467
 5482TIP3   OH237860   1.147   5.945  17.069  0.1164 -0.3177  0.0513
 5482TIP3    H137861   1.190   5.901  16.995 -3.2109 -2.3471 -0.9130
 5482TIP3    H237862   1.099   6.018  17.029  0.2701  0.0815  0.5958
 5483TIP3   OH237863   6.506   5.731  17.468 -0.2730 -0.6066  0.4723
 5483TIP3    H137864   6.555   5.702  17.391 -1.2674  0.4342 -0.5703
 5483TIP3    H237865   6.502   5.653  17.524 -0.0448 -1.5406 -0.7748
 5484TIP3   OH237866   1.317   1.407   4.149  0.2085 -0.3150  0.4467
 5484TIP3    H137867   1.343   1.358   4.228 -1.2008 -0.7790  0.6534
 5484TIP3    H237868   1.223   1.417   4.158  0.1142  0.1371 -0.9210
 5485TIP3   OH237869   0.222   0.526  16.110 -0.3491 -0.6920 -0.2598
 5485TIP3    H137870   0.300   0.529  16.166  0.5623  1.0263 -1.4946
 5485TIP3    H237871   0.257   0.534  16.021 -1.8610 -1.4812 -0.9497
 5486TIP3   OH237872   0.003   5.910   3.586  0.5552 -0.1158  0.0800
 5486TIP3    H137873   0.071   5.867   3.534  0.8680  0.0070  0.3804
 5486TIP3    H237874  -0.046   5.838   3.626 -0.1129 -0.2269 -0.9098
 5487TIP3   OH237875   1.791   0.274  17.248 -0.3323  0.4303  0.0133
 5487TIP3    H137876   1.833   0.351  17.208 -0.5110 -0.5296 -2.1077
 5487TIP3    H237877   1.797   0.206  17.182 -0.0645 -1.4710  1.9031
 5488TIP3   OH237878   5.443   3.984   2.571  0.2806  0.5113  0.3619
 5488TIP3    H137879   5.391   3.914   2.531 -0.8298  0.0458  2.4806
 5488TIP3    H237880   5.383   4.059   2.575  1.0512  1.2172 -0.7027
 5489TIP3   OH237881   1.210   1.031   0.283 -0.1127  0.0848  0.3769
 5489TIP3    H137882   1.208   0.959   0.220  1.4005 -0.0456  0.4494
 5489TIP3    H237883   1.150   1.096   0.246 -1.3227 -1.0861  0.1877
 5490TIP3   OH237884   0.953   2.738   3.134 -0.2509 -0.2976  0.5235
 5490TIP3    H137885   0.931   2.703   3.048  1.3259  0.1667 -0.0910
 5490TIP3    H237886   0.873   2.784   3.162 -0.5661  0.1262 -0.9813
 5491TIP3   OH237887   5.405   0.878  15.779  0.1527 -0.1710 -0.1771
 5491TIP3    H137888   5.380   0.882  15.872  0.9522  1.2431  0.0019
 5491TIP3    H237889   5.433   0.967  15.758  0.1941 -0.5296 -1.7288
 5492TIP3   OH237890   5.116   2.890   4.031 -0.4309  0.3916  0.2419
 5492TIP3    H137891   5.206   2.892   4.062 -0.2494 -0.3714 -0.2070
 5492TIP3    H237892   5.123   2.886   3.936 -0.9674  1.7662  0.1200
 5493TIP3   OH237893   3.870   3.831   4.600  0.2643 -0.4165  0.0357
 5493TIP3    H137894   3.887   3.765   4.667  1.7318 -1.0168 -0.8706
 5493TIP3    H237895   3.952   3.837   4.551 -0.8237 -0.2390 -1.8935
 5494TIP3   OH237896   2.311   4.249   0.885  0.5229 -0.3063 -0.2603
 5494TIP3    H137897   2.258   4.328   0.893 -0.2151 -0.8077  0.0254
 5494TIP3    H237898   2.308   4.227   0.791 -0.3790 -0.7084 -0.1558
 5495TIP3   OH237899   4.479   0.692   0.968 -0.3865  0.2364  0.1472
 5495TIP3    H137900   4.412   0.743   0.924 -0.8575  0.1252  0.7201
 5495TIP3    H237901   4.515   0.635   0.900  0.0213  1.1952 -0.4507
 5496TIP3   OH237902   5.263   3.947   5.979  0.1211 -0.5990 -0.0971
 5496TIP3    H137903   5.290   3.991   6.059 -0.2852 -2.7654  1.3035
 5496TIP3    H237904   5.344   3.920   5.937  0.3309  0.4251 -0.3702
 5497TIP3   OH237905   1.216   4.617   1.942  0.2692  0.9856 -0.2836
 5497TIP3    H137906   1.123   4.612   1.920  0.2467 -1.7773 -0.0224
 5497TIP3    H237907   1.220   4.677   2.016 -1.3150  1.1857 -0.3191
 5498TIP3   OH237908   5.271   0.404   0.415 -0.1300 -0.5298 -0.4421
 5498TIP3    H137909   5.268   0.484   0.362  0.5417 -0.7859 -0.8807
 5498TIP3    H237910   5.245   0.432   0.503  2.5014  0.7173  0.0376
 5499TIP3   OH237911   4.059   0.261  13.349 -0.0030  0.1134 -0.4561
 5499TIP3    H137912   4.106   0.256  13.265 -1.8805  0.5598 -1.5891
 5499TIP3    H237913   4.089   0.344  13.388 -0.5224  0.8701 -1.6072
 5500TIP3   OH237914   5.888   0.510  15.053 -0.5554 -0.4452 -0.2115
 5500TIP3    H137915   5.864   0.591  15.099  0.8135 -1.3093  2.2200
 5500TIP3    H237916   5.858   0.523  14.963 -0.3657  2.7542  0.0930
 5501TIP3   OH237917   1.502   5.950   6.271  0.1394  0.0743 -0.8786
 5501TIP3    H137918   1.590   5.987   6.264  0.3151 -0.2223 -0.2461
 5501TIP3    H237919   1.515   5.856   6.274 -0.1797  0.0454 -0.3919
 5502TIP3   OH237920   3.029   2.564   3.138 -0.1624 -0.3002 -0.6216
 5502TIP3    H137921   3.090   2.500   3.173 -1.1539 -0.7326  0.3696
 5502TIP3    H237922   3.082   2.642   3.122  0.6820 -0.7324  0.0214
 5503TIP3   OH237923   5.584   6.363   3.714 -0.0555  0.4437  0.0319
 5503TIP3    H137924   5.644   6.436   3.698  0.3286  0.1901  0.2841
 5503TIP3    H237925   5.523   6.365   3.640 -1.3781  2.3215  1.0959
 5504TIP3   OH237926   4.024   1.570   0.465 -0.1796 -0.7728 -0.2246
 5504TIP3    H137927   4.096   1.624   0.431 -1.3473 -0.2525 -2.0345
 5504TIP3    H237928   3.995   1.615   0.544 -0.4974  0.7346 -1.1643
 5505TIP3   OH237929   0.842   3.204   2.976 -0.2657 -0.7542  0.7527
 5505TIP3    H137930   0.872   3.214   2.886 -1.9377  0.3853  0.2840
 5505TIP3    H237931   0.844   3.110   2.992 -1.5981 -1.1443 -1.0993
 5506TIP3   OH237932   4.440   6.211   1.664  0.0014  0.0859  0.8023
 5506TIP3    H137933   4.519   6.243   1.707  0.7463 -1.2707  0.5196
 5506TIP3    H237934   4.452   6.235   1.572 -1.2107  2.2613  1.1482
 5507TIP3   OH237935   5.183   4.281  15.047  0.2981  0.1470  0.2592
 5507TIP3    H137936   5.212   4.193  15.074 -0.5117  0.4388  2.2480
 5507TIP3    H237937   5.261   4.321  15.009  1.1788 -0.7884  1.0083
 5508TIP3   OH237938   3.719   4.701  13.117  0.1236 -0.1850 -0.2578
 5508TIP3    H137939   3.735   4.791  13.088  1.0453 -0.9652 -2.3439
 5508TIP3    H237940   3.644   4.708  13.176  0.1138  1.9249 -0.4446
 5509TIP3   OH237941   2.633   1.928  17.374  0.5990 -0.7323  0.6179
 5509TIP3    H137942   2.684   1.903  17.298  0.3780 -0.1035  0.2549
 5509TIP3    H237943   2.675   2.008  17.406  0.7409 -1.0363  1.2082
 5510TIP3   OH237944   4.253   1.000  14.169 -0.5470 -0.4166  0.1038
 5510TIP3    H137945   4.171   1.044  14.149  0.2876  0.8174 -0.7916
 5510TIP3    H237946   4.252   0.988  14.264 -1.4039  0.3267  0.2012
 5511TIP3   OH237947   2.789   5.555  13.352  0.0573 -0.4345  0.8051
 5511TIP3    H137948   2.780   5.579  13.444 -0.1631  0.5219  0.5466
 5511TIP3    H237949   2.728   5.483  13.339 -0.6906  0.1177  1.1705
 5512TIP3   OH237950   1.585   5.783   1.487  0.0709 -0.4936 -0.7456
 5512TIP3    H137951   1.537   5.701   1.499  1.7694 -1.2323  1.7523
 5512TIP3    H237952   1.520   5.851   1.507 -0.4929 -1.3805  0.6097
 5513TIP3   OH237953   6.210   5.593  13.170 -0.8506  0.4574 -0.0545
 5513TIP3    H137954   6.136   5.534  13.155 -0.1697 -0.6721  0.8344
 5513TIP3    H237955   6.283   5.553  13.123  0.0431 -0.3933  1.9398
 5514TIP3   OH237956   5.392   6.439  13.073  0.5152 -0.5568 -0.3352
 5514TIP3    H137957   5.372   6.412  13.162 -1.0846 -0.7811 -0.7332
 5514TIP3    H237958   5.421   6.359  13.029 -0.7121 -0.9184 -0.5404
 5515TIP3   OH237959   0.409   1.460   5.284  0.2040  0.2379 -0.8142
 5515TIP3    H137960   0.441   1.541   5.245  0.6539 -0.2907 -1.5586
 5515TIP3    H237961   0.488   1.415   5.313 -0.1396  1.7801  3.2423
 5516TIP3   OH237962   3.828   0.599  13.954  0.1214 -0.5328  0.2041
 5516TIP3    H137963   3.845   0.675  13.899 -0.4473  0.2365  1.0565
 5516TIP3    H237964   3.883   0.530  13.918 -0.1581 -0.0294 -1.2623
 5517TIP3   OH237965   1.492   1.649  10.842 -0.0633  0.2186 -0.1938
 5517TIP3    H137966   1.560   1.660  10.909 -0.5121  1.2137  0.1268
 5517TIP3    H237967   1.454   1.737  10.833 -0.5418 -0.0780 -1.1888
 5518TIP3   OH237968   3.266   3.735  15.710  0.8837  0.6488 -0.3290
 5518TIP3    H137969   3.262   3.718  15.616 -1.5195 -0.9279 -0.0275
 5518TIP3    H237970   3.220   3.818  15.721  0.3618  0.3841 -0.4732
 5519TIP3   OH237971   1.090   1.604   3.939  0.1641  0.0415  0.0168
 5519TIP3    H137972   1.103   1.641   3.852 -0.5749  1.8252  0.6161
 5519TIP3    H237973   1.153   1.531   3.944  0.1007 -0.1971 -2.0320
 5520TIP3   OH237974   1.098   1.949   1.656  0.6046 -0.3031 -0.0634
 5520TIP3    H137975   1.166   2.013   1.672  0.9663 -0.9401  1.0223
 5520TIP3    H237976   1.103   1.888   1.730  0.0300 -1.3660 -0.8587
 5521TIP3   OH237977   1.233   2.140  14.560  0.1717 -0.2036 -0.3616
 5521TIP3    H137978   1.327   2.156  14.558  0.4179 -1.0008  1.9010
 5521TIP3    H237979   1.222   2.055  14.517  0.7441 -0.9267  0.8616
 5522TIP3   OH237980   4.934   6.343  11.144  0.1237 -0.2690 -0.3406
 5522TIP3    H137981   4.994   6.276  11.178  0.3109  0.1872  0.2522
 5522TIP3    H237982   4.868   6.294  11.095  0.2088 -0.8899  0.1562
 5523TIP3   OH237983   4.747   4.948  13.086 -0.3140 -0.0106 -0.2258
 5523TIP3    H137984   4.726   5.031  13.128  1.4521  0.6956 -0.6569
 5523TIP3    H237985   4.695   4.949  13.005  1.6301  1.9614 -1.5638
 5524TIP3   OH237986   1.527   2.934  12.678  0.1697 -0.1472 -0.2862
 5524TIP3    H137987   1.439   2.897  12.689 -0.0113  0.4545  0.3548
 5524TIP3    H237988   1.577   2.864  12.637 -0.4784 -0.6839 -0.1802
 5525TIP3   OH237989   0.255   2.672   1.598 -0.1889 -0.5580 -0.1048
 5525TIP3    H137990   0.291   2.687   1.511 -0.5453 -0.5114 -0.2458
 5525TIP3    H237991   0.327   2.690   1.658 -0.4488  1.2504 -0.2867
 5526TIP3   OH237992   4.407   5.012  12.748  0.7538 -0.4786  0.0221
 5526TIP3    H137993   4.426   5.070  12.675  1.3451 -0.0573  0.5013
 5526TIP3    H237994   4.390   4.927  12.708  0.6193 -0.1493 -0.6302
 5527TIP3   OH237995   5.555   5.999   3.821  0.2501  0.0533 -0.1847
 5527TIP3    H137996   5.467   6.002   3.783 -0.3459 -0.8248  1.0271
 5527TIP3    H237997   5.601   5.934   3.768 -0.9571 -2.0992  1.1883
 5528TIP3   OH237998   6.204   2.244   2.320  0.5130 -0.3163 -0.4815
 5528TIP3    H137999   6.260   2.177   2.281  1.3351 -1.5808  2.6211
 5528TIP3    H238000   6.125   2.198   2.346 -0.4860  0.7262 -1.5576
 5529TIP3   OH238001   5.778   0.460   1.020  0.5783 -0.4887  0.1068
 5529TIP3    H138002   5.811   0.525   1.081 -0.0680  0.2702 -0.3296
 5529TIP3    H238003   5.773   0.506   0.936  2.5244 -1.8166 -0.8193
 5530TIP3   OH238004   1.260   2.763   5.144  0.2941  0.3198 -0.2136
 5530TIP3    H138005   1.318   2.687   5.155 -0.3011 -0.2166 -0.6900
 5530TIP3    H238006   1.172   2.725   5.137  0.1169  0.9536 -1.7538
 5531TIP3   OH238007   2.741   0.667  14.164 -0.7290  0.1965 -0.4596
 5531TIP3    H138008   2.659   0.674  14.212 -0.4845 -0.9177  0.1569
 5531TIP3    H238009   2.756   0.573  14.155  1.6361  0.2748  1.5062
 5532TIP3   OH238010   5.367   4.294  11.802 -0.0747  0.6645  0.1303
 5532TIP3    H138011   5.400   4.337  11.724 -0.4773 -0.4435 -0.6711
 5532TIP3    H238012   5.443   4.286  11.860  0.2546  1.3568 -0.1949
 5533TIP3   OH238013   2.242   2.032  16.506 -0.1480 -0.7207  0.4105
 5533TIP3    H138014   2.150   2.026  16.480 -0.0230  0.1757 -0.3056
 5533TIP3    H238015   2.291   2.019  16.425  0.3993 -1.9436  0.9132
 5534TIP3   OH238016   1.359   1.824  16.929  0.1266 -0.4940  0.3462
 5534TIP3    H138017   1.328   1.876  16.855 -0.2136 -0.6350  0.3833
 5534TIP3    H238018   1.317   1.866  17.005  2.8869  1.6029  0.8666
 5535TIP3   OH238019   1.957   0.528  13.530  0.7293 -0.0456  0.8207
 5535TIP3    H138020   1.966   0.433  13.534 -0.7354 -0.2024  0.9208
 5535TIP3    H238021   1.948   0.555  13.621 -1.4853 -0.1491  0.7072
 5536TIP3   OH238022   4.957   2.850  12.230  0.4842  0.6327 -0.6636
 5536TIP3    H138023   4.895   2.777  12.228  0.7645  0.3952 -0.6801
 5536TIP3    H238024   5.041   2.811  12.207  0.9321  0.6499  0.8266
 5537TIP3   OH238025   3.503   5.697  11.327  0.2193  0.0631 -0.5226
 5537TIP3    H138026   3.415   5.731  11.314  0.0546 -0.1981 -0.0761
 5537TIP3    H238027   3.559   5.756  11.276  0.0350  1.4927  0.8626
 5538TIP3   OH238028   4.198   5.278  11.591  0.2200 -0.0289  0.2807
 5538TIP3    H138029   4.120   5.296  11.643  1.3258 -0.2028  2.0889
 5538TIP3    H238030   4.269   5.319  11.641  0.8839  4.4639 -3.6254
 5539TIP3   OH238031   3.264   4.296  16.305 -0.2707  0.8702 -0.1394
 5539TIP3    H138032   3.232   4.386  16.313  0.3393  1.0950 -0.1650
 5539TIP3    H238033   3.215   4.260  16.232 -0.4713  1.2083 -0.1741
 5540TIP3   OH238034   6.000   5.776   0.599 -0.3104 -0.0662  0.6661
 5540TIP3    H138035   6.072   5.783   0.537 -0.8932  0.9088  0.0581
 5540TIP3    H238036   6.031   5.821   0.677 -0.3401  0.6011  0.3059
 5541TIP3   OH238037   4.055   1.621  16.324 -0.2685  0.1384  1.2248
 5541TIP3    H138038   4.021   1.640  16.237 -0.6520 -0.2364  1.2855
 5541TIP3    H238039   4.096   1.535  16.315 -2.1081 -0.8725  1.8644
 5542TIP3   OH238040   6.154   2.644  15.261 -0.1181 -0.0133  0.0399
 5542TIP3    H138041   6.169   2.657  15.354  2.8859  0.8905 -0.4282
 5542TIP3    H238042   6.121   2.729  15.230 -0.0890  0.0283  0.1235
 5543TIP3   OH238043   3.114   5.799   2.118 -0.0709  0.1640  0.0787
 5543TIP3    H138044   3.038   5.823   2.065  0.0025 -0.9780 -0.5856
 5543TIP3    H238045   3.187   5.798   2.055  0.7478  2.3811  0.9188
 5544TIP3   OH238046   5.089   4.593  12.540  0.1331 -0.2149  0.1657
 5544TIP3    H138047   5.165   4.649  12.556 -0.1415  0.8132 -1.7189
 5544TIP3    H238048   5.098   4.521  12.602  3.2991 -0.7739 -0.7699
 5545TIP3   OH238049   3.862   5.408  12.142 -0.1907 -0.2506 -0.5280
 5545TIP3    H138050   3.778   5.408  12.188 -1.0740 -1.9980 -1.9898
 5545TIP3    H238051   3.887   5.315  12.139  1.8105  0.2307 -0.1532
 5546TIP3   OH238052   4.632   2.793   6.512 -1.1357 -0.0021 -0.4090
 5546TIP3    H138053   4.593   2.719   6.558 -1.4021  0.2895 -0.1582
 5546TIP3    H238054   4.725   2.788   6.532 -1.3191  0.4012  0.5639
 5547TIP3   OH238055   6.492   2.183  17.127 -0.4686  0.0808 -0.2562
 5547TIP3    H138056   6.581   2.218  17.132 -0.3667  0.0749 -1.6249
 5547TIP3    H238057   6.471   2.159  17.217  0.6000  0.8526  0.2284
 5548TIP3   OH238058   6.686   3.385   0.373 -0.3562  0.3904 -0.3137
 5548TIP3    H138059   6.616   3.341   0.421 -1.4153  1.7339 -0.5919
 5548TIP3    H238060   6.717   3.319   0.311 -2.3921  0.2188 -1.2143
 5549TIP3   OH238061   0.495   3.055  16.479 -0.3056  0.1884  0.1668
 5549TIP3    H138062   0.402   3.073  16.462 -0.8279 -1.4932  1.0204
 5549TIP3    H238063   0.495   2.975  16.530  1.6105  0.5382  0.8032
 5550TIP3   OH238064   3.186   5.034  17.209  0.0686  0.7461 -0.4425
 5550TIP3    H138065   3.210   5.045  17.301 -1.0054  1.8236 -0.2616
 5550TIP3    H238066   3.225   4.951  17.183  0.0017  0.2074  1.1168
 5551TIP3   OH238067   2.230   3.305   2.496  0.2586 -0.1212  0.2696
 5551TIP3    H138068   2.289   3.339   2.429 -0.0610  0.1065  0.0994
 5551TIP3    H238069   2.158   3.369   2.499  0.3262 -0.0671  0.9052
 5552TIP3   OH238070   0.523   4.138  16.797  0.0494  0.0141  0.1321
 5552TIP3    H138071   0.545   4.204  16.732 -0.5103 -0.2354 -0.3195
 5552TIP3    H238072   0.434   4.112  16.776 -0.1765 -0.0025  1.0652
 5553TIP3   OH238073   6.254   1.222   5.398  0.7769 -0.3654  0.2556
 5553TIP3    H138074   6.244   1.295   5.460  0.8215 -0.3603  0.2563
 5553TIP3    H238075   6.207   1.251   5.319  0.8284 -0.3195  0.2418
 5554TIP3   OH238076   5.718   0.353  15.431  0.4359  0.0563 -0.1376
 5554TIP3    H138077   5.742   0.332  15.341 -0.7148  2.5029 -1.0928
 5554TIP3    H238078   5.622   0.353  15.431  0.3871 -1.0477  1.4273
 5555TIP3   OH238079   5.566   2.629   4.354  0.3792  0.0477  0.3830
 5555TIP3    H138080   5.625   2.567   4.311  1.3858  1.5487 -0.5234
 5555TIP3    H238081   5.482   2.584   4.356  0.6657 -0.7416 -1.7834
 5556TIP3   OH238082   4.893   6.270   0.389  0.3178 -0.0634  0.6618
 5556TIP3    H138083   4.870   6.209   0.319  0.8100 -1.2482  1.4842
 5556TIP3    H238084   4.939   6.342   0.346 -0.9418  0.1143 -0.4273
 5557TIP3   OH238085   1.811   6.063  15.515  0.2605  0.1005  0.2820
 5557TIP3    H138086   1.882   6.125  15.527 -2.0094  3.2300 -1.1691
 5557TIP3    H238087   1.819   6.034  15.424  0.3273 -0.4689  0.4641
 5558TIP3   OH238088   3.977   4.818  13.983 -0.3514 -0.1833 -0.3236
 5558TIP3    H138089   4.018   4.862  14.057 -0.5507 -2.5248  1.2863
 5558TIP3    H238090   4.039   4.829  13.911  1.1203 -0.0931  0.9157
 5559TIP3   OH238091   1.678   4.739   2.848  0.2625 -0.2841 -0.7635
 5559TIP3    H138092   1.716   4.663   2.893 -0.4042  0.6351  1.5039
 5559TIP3    H238093   1.751   4.801   2.841  0.1071  0.0481  0.2649
 5560TIP3   OH238094   2.248   4.394  14.632  0.3127  0.1049 -0.2247
 5560TIP3    H138095   2.269   4.418  14.723  0.6862  1.4455 -0.6355
 5560TIP3    H238096   2.175   4.451  14.609  0.3784 -0.0569 -0.8449
 5561TIP3   OH238097   3.647   5.329   1.499  0.2157  0.2536  0.5122
 5561TIP3    H138098   3.613   5.240   1.485  2.5854 -0.5613 -0.6649
 5561TIP3    H238099   3.607   5.381   1.429  0.8410 -0.5242 -0.4488
 5562TIP3   OH238100   5.424   0.152   3.467 -0.1330 -0.2629 -0.0877
 5562TIP3    H138101   5.446   0.080   3.408 -3.3036 -0.6001 -1.0893
 5562TIP3    H238102   5.433   0.231   3.414 -0.2843 -0.3051 -0.1782
 5563TIP3   OH238103   4.216   1.114  14.792 -0.2361 -0.1180  0.5368
 5563TIP3    H138104   4.267   1.170  14.734 -1.0770 -1.6303 -1.7880
 5563TIP3    H238105   4.257   1.028  14.784 -2.4012 -1.1300 -0.5502
 5564TIP3   OH238106   6.034   2.520   4.753 -0.4116 -0.4319  1.0749
 5564TIP3    H138107   6.077   2.523   4.839  1.5244  0.7868  0.1545
 5564TIP3    H238108   5.988   2.604   4.747 -0.7604 -0.6255  1.0111
 5565TIP3   OH238109   4.110   5.558  15.894 -0.1001 -0.2981  0.1316
 5565TIP3    H138110   4.081   5.641  15.931 -2.5650 -0.7657 -0.6119
 5565TIP3    H238111   4.148   5.581  15.810 -0.5117  0.1193  0.0568
 5566TIP3   OH238112   1.229   0.757  16.422 -0.2497  0.6806  0.6301
 5566TIP3    H138113   1.272   0.672  16.406 -0.6833  0.1564  2.1208
 5566TIP3    H238114   1.137   0.742  16.400  0.2131  1.8557 -2.7396
 5567TIP3   OH238115   4.546   4.745  17.593  0.2626 -0.1957  0.1657
 5567TIP3    H138116   4.454   4.726  17.576  0.3473  0.1866 -0.7378
 5567TIP3    H238117   4.549   4.766  17.687 -0.3762 -1.2968  0.4566
 5568TIP3   OH238118   6.667   5.655  11.368  0.5916 -0.5536  0.2909
 5568TIP3    H138119   6.622   5.581  11.407 -0.1144  0.1028  0.7525
 5568TIP3    H238120   6.718   5.617  11.296 -0.6597 -1.3348 -0.2238
 5569TIP3   OH238121   5.460   5.245  15.529  0.1367  0.1524 -0.2044
 5569TIP3    H138122   5.417   5.175  15.480 -1.9825  0.4460  1.0878
 5569TIP3    H238123   5.395   5.315  15.532  2.5447  2.6567 -2.2955
 5570TIP3   OH238124   3.972   2.769  14.033 -0.2227 -0.3752 -0.1480
 5570TIP3    H138125   4.043   2.708  14.016 -0.3689 -0.7798  0.6236
 5570TIP3    H238126   4.005   2.825  14.103  0.5618  1.5759 -1.9757
 5571TIP3   OH238127   3.955   2.803   5.242 -0.4756  0.0222  0.0960
 5571TIP3    H138128   3.952   2.888   5.287  1.5175 -0.5165  1.3491
 5571TIP3    H238129   4.000   2.822   5.159 -0.2343  0.2429  0.2752
 5572TIP3   OH238130   0.462   1.909  12.197  0.4276  0.0625  0.1866
 5572TIP3    H138131   0.385   1.958  12.169  2.0655  1.9605 -1.3512
 5572TIP3    H238132   0.457   1.826  12.150  0.4160  1.0756 -1.6752
 5573TIP3   OH238133   5.110   5.641  16.317 -0.5175 -0.8397 -0.0727
 5573TIP3    H138134   5.057   5.590  16.379 -2.2664  0.6159 -0.2887
 5573TIP3    H238135   5.068   5.727  16.314  0.5369 -0.3275 -2.0013
 5574TIP3   OH238136   5.565   1.078   5.916  0.3552  0.6512  0.1931
 5574TIP3    H138137   5.537   0.988   5.903 -0.8952  0.4599  3.4022
 5574TIP3    H238138   5.641   1.072   5.974  0.1062  1.6433  0.6533
 5575TIP3   OH238139   0.109   3.424   6.302 -0.0599  0.4414 -0.1023
 5575TIP3    H138140   0.063   3.478   6.366 -0.1795 -0.2580  0.4033
 5575TIP3    H238141   0.060   3.342   6.298  0.1940  0.3090 -0.7718
 5576TIP3   OH238142   1.312   2.424   0.291 -0.0054  0.3584 -0.0977
 5576TIP3    H138143   1.373   2.490   0.324  2.2955 -1.9367  0.5491
 5576TIP3    H238144   1.283   2.376   0.368  1.4381 -1.7947 -0.7799
 5577TIP3   OH238145   4.872   3.845   3.811 -0.4065 -0.2956  0.1670
 5577TIP3    H138146   4.900   3.880   3.726 -1.7567 -0.8358 -0.5190
 5577TIP3    H238147   4.946   3.792   3.841 -0.0220 -0.3113 -0.7882
 5578TIP3   OH238148   5.216   4.273  14.435  0.1489  0.0575 -0.0233
 5578TIP3    H138149   5.247   4.185  14.457  0.1849  0.1904  0.4770
 5578TIP3    H238150   5.125   4.260  14.408 -0.4658  0.0781  1.8673
 5579TIP3   OH238151   1.750   3.007  16.079  0.1691 -0.2889 -0.1784
 5579TIP3    H138152   1.693   3.033  16.151  0.0737 -2.1930  0.5011
 5579TIP3    H238153   1.837   2.999  16.119  1.0256  2.6069 -1.2075
 5580TIP3   OH238154   5.027   0.825  17.218  0.0482  0.0004  0.1029
 5580TIP3    H138155   5.105   0.802  17.169 -0.1259 -0.2367 -0.0642
 5580TIP3    H238156   5.009   0.750  17.273 -0.8366 -0.5216 -0.8473
 5581TIP3   OH238157   0.056   1.367   0.454  0.1425  0.6429 -0.0690
 5581TIP3    H138158   0.146   1.374   0.485  0.2611  2.1407 -0.6532
 5581TIP3    H238159   0.057   1.409   0.368 -0.3614 -2.5291 -1.7793
 5582TIP3   OH238160   4.412   2.774  11.707 -0.7618  0.2477 -0.2101
 5582TIP3    H138161   4.329   2.746  11.669 -0.2270 -0.6874 -0.7179
 5582TIP3    H238162   4.453   2.694  11.737  0.6887  0.4813 -1.4609
 5583TIP3   OH238163   4.000   5.322   2.614 -0.0352 -0.2844  0.2268
 5583TIP3    H138164   3.922   5.333   2.667 -0.1925  0.2186 -0.1095
 5583TIP3    H238165   3.970   5.330   2.524  0.1829 -1.3952  0.0328
 5584TIP3   OH238166   1.448   3.019  11.847 -0.3523 -0.2974 -0.5437
 5584TIP3    H138167   1.454   3.109  11.815  0.4953 -0.5663 -1.1672
 5584TIP3    H238168   1.354   3.000  11.849 -0.4880  0.2690 -1.3348
 5585TIP3   OH238169   3.251   3.364  12.343  0.5181 -0.1474 -0.2891
 5585TIP3    H138170   3.166   3.321  12.351  0.1641  0.5086 -0.5047
 5585TIP3    H238171   3.290   3.326  12.265  0.1772 -0.0367 -0.5178
 5586TIP3   OH238172   4.302   3.898  11.549  0.2704 -0.5103  0.1189
 5586TIP3    H138173   4.258   3.818  11.521  0.0882 -0.0274 -0.9930
 5586TIP3    H238174   4.232   3.961  11.563  0.5668  0.3217 -1.8487
 5587TIP3   OH238175   0.124   6.598   5.454 -0.0170  0.1730 -0.1069
 5587TIP3    H138176   0.100   6.680   5.410  0.4337  0.9335  1.0357
 5587TIP3    H238177   0.101   6.612   5.546  1.0019 -0.6003  0.2884
 5588TIP3   OH238178   3.799   1.869   1.424 -0.1327 -0.6072 -0.0928
 5588TIP3    H138179   3.888   1.890   1.397  0.2897 -2.1961 -0.0601
 5588TIP3    H238180   3.773   1.798   1.365 -0.8845 -1.0491  0.7453
 5589TIP3   OH238181   2.918   2.262  15.642 -0.0536  0.4353 -0.5145
 5589TIP3    H138182   2.868   2.184  15.666 -0.1863  0.4516 -0.7360
 5589TIP3    H238183   3.003   2.250  15.685 -0.5132  0.7935  0.5458
 5590TIP3   OH238184   4.852   2.429  17.507  0.6731  0.1087  0.6688
 5590TIP3    H138185   4.819   2.373  17.577  1.9493 -1.0564  0.3603
 5590TIP3    H238186   4.935   2.463  17.540  1.3816 -0.6109 -0.3522
 5591TIP3   OH238187   2.535   4.761  12.140 -0.1623  0.0752  0.9770
 5591TIP3    H138188   2.517   4.688  12.080 -2.1999 -0.4666  2.1622
 5591TIP3    H238189   2.600   4.725  12.201 -0.8561 -0.6372  1.3116
 5592TIP3   OH238190   5.513   0.928  17.470 -0.0657  0.6927 -0.1139
 5592TIP3    H138191   5.439   0.910  17.413  0.5624  1.4259 -1.1959
 5592TIP3    H238192   5.501   0.869  17.544  0.3767 -2.1080 -2.1072
 5593TIP3   OH238193   3.026   4.636  15.142 -0.3336  0.0686 -0.0291
 5593TIP3    H138194   3.004   4.705  15.204 -2.8695 -1.7151  1.2268
 5593TIP3    H238195   3.023   4.555  15.193  0.5417 -1.1950 -1.8432
 5594TIP3   OH238196   5.353   2.543   1.645 -0.2876 -0.3317  0.1950
 5594TIP3    H138197   5.266   2.531   1.683  0.0597 -0.3457  0.9923
 5594TIP3    H238198   5.409   2.569   1.718  0.9002 -2.5554  0.1502
 5595TIP3   OH238199   2.817   2.658   3.365  0.2306 -0.5186  0.0037
 5595TIP3    H138200   2.818   2.665   3.461 -0.2452  0.1402 -0.0303
 5595TIP3    H238201   2.906   2.678   3.338  0.5159 -1.2986  0.3442
 5596TIP3   OH238202   3.432   0.682   4.169  0.1041 -0.0507 -0.5627
 5596TIP3    H138203   3.348   0.645   4.145  0.5272 -0.6889 -1.0867
 5596TIP3    H238204   3.422   0.706   4.261 -0.2627 -1.2470 -0.2728
 5597TIP3   OH238205   0.287   4.418  10.617 -0.2677  0.3098 -0.2527
 5597TIP3    H138206   0.316   4.343  10.668  0.0056  1.0821  0.7819
 5597TIP3    H238207   0.193   4.426  10.636 -0.1407  0.6709  0.2498
 5598TIP3   OH238208   3.427   1.513   6.671 -0.1739  0.2877  0.2237
 5598TIP3    H138209   3.369   1.472   6.607 -0.9867 -0.9514  1.6676
 5598TIP3    H238210   3.381   1.501   6.755  1.8697 -0.1419  1.3294
 5599TIP3   OH238211   1.541   5.657  16.176 -0.4083 -0.5812  0.1454
 5599TIP3    H138212   1.453   5.637  16.208 -0.3536 -0.7094  0.2145
 5599TIP3    H238213   1.547   5.753  16.184 -0.1325 -0.6709  1.2199
 5600TIP3   OH238214   1.442   3.507   3.929 -0.0635  0.3480  0.0718
 5600TIP3    H138215   1.482   3.420   3.942 -2.7432 -1.2680 -1.6288
 5600TIP3    H238216   1.479   3.538   3.847 -2.7820 -1.6316 -2.0811
 5601TIP3   OH238217   0.074   4.902   0.230  0.4852 -0.0110 -0.3919
 5601TIP3    H138218   0.021   4.979   0.207  0.2962  0.2384  0.7955
 5601TIP3    H238219   0.083   4.907   0.325  1.8800 -0.5653 -0.4715
 5602TIP3   OH238220   3.277   1.849  16.887 -0.0120  0.2301  0.1791
 5602TIP3    H138221   3.247   1.935  16.859  0.0934  1.3389  3.0708
 5602TIP3    H238222   3.202   1.791  16.874  0.3410  0.3176 -3.1154
 5603TIP3   OH238223   1.504   3.677  12.193  0.0650 -0.1407  0.5590
 5603TIP3    H138224   1.420   3.634  12.178 -0.4455  1.3240 -1.0087
 5603TIP3    H238225   1.553   3.615  12.247 -2.4479 -0.5100  2.5840
 5604TIP3   OH238226   1.953   1.218  15.630  0.2137 -0.6246  0.3889
 5604TIP3    H138227   1.978   1.256  15.546 -0.1697 -0.2294  0.4470
 5604TIP3    H238228   1.899   1.143  15.606 -0.4724 -0.1088  0.2752
 5605TIP3   OH238229   2.241   4.624  11.529 -0.2493 -0.4416 -0.6517
 5605TIP3    H138230   2.272   4.549  11.580  1.3372  1.0899  0.7898
 5605TIP3    H238231   2.162   4.653  11.574  0.3862  0.0653  0.1825
 5606TIP3   OH238232   4.541   1.179   0.701 -0.2943  0.4809  0.0689
 5606TIP3    H138233   4.537   1.243   0.772 -2.8912 -1.8222  2.2330
 5606TIP3    H238234   4.612   1.120   0.726  1.2553  1.6771 -1.2773
 5607TIP3   OH238235   2.212   1.507   5.248  0.6422  0.2435 -0.1241
 5607TIP3    H138236   2.284   1.450   5.221 -0.5895 -2.0981  1.1692
 5607TIP3    H238237   2.134   1.453   5.236 -0.6126  1.6843  1.1641
 5608TIP3   OH238238   1.786   5.965  11.203  0.3829  0.0471 -0.1981
 5608TIP3    H138239   1.718   5.906  11.170 -1.4227  0.0904  3.0796
 5608TIP3    H238240   1.764   6.050  11.164  0.2729 -0.4820 -1.3501
 5609TIP3   OH238241   0.263   0.150   1.385  0.5160 -0.5364  0.3487
 5609TIP3    H138242   0.313   0.103   1.451 -1.7261 -1.0409  1.8065
 5609TIP3    H238243   0.223   0.222   1.433  0.8011  0.5972 -1.0389
 5610TIP3   OH238244   0.292   1.811  16.868  0.0832  0.1111 -0.2243
 5610TIP3    H138245   0.299   1.856  16.953 -2.4034 -0.9704  0.6629
 5610TIP3    H238246   0.222   1.747  16.881 -0.7422  0.2446 -3.2619
 5611TIP3   OH238247   6.408   1.025   3.326  0.5267 -0.1068  0.2954
 5611TIP3    H138248   6.346   1.021   3.253  1.1714  0.9026 -0.3337
 5611TIP3    H238249   6.444   0.936   3.331 -0.6497 -0.5988  0.4103
 5612TIP3   OH238250   4.550   5.482   4.950  0.3546 -0.4279  0.0982
 5612TIP3    H138251   4.560   5.576   4.964  1.0415 -0.2992 -1.0595
 5612TIP3    H238252   4.456   5.469   4.936 -0.0390 -0.2430  2.2513
 5613TIP3   OH238253   4.063   3.589  16.250  0.2225 -0.1205 -0.0595
 5613TIP3    H138254   3.972   3.558  16.245 -0.2893  1.0760  1.2817
 5613TIP3    H238255   4.081   3.623  16.162 -1.1748  1.0568  0.0717
 5614TIP3   OH238256   2.504   3.128  13.109 -0.7510  0.2278 -0.1470
 5614TIP3    H138257   2.565   3.198  13.087 -1.1872  0.1759 -1.5842
 5614TIP3    H238258   2.456   3.161  13.186  0.2044  0.7835  0.2229
 5615TIP3   OH238259   3.665   1.379   0.084 -0.4773  0.3986 -0.0459
 5615TIP3    H138260   3.696   1.467   0.105  0.1867 -0.0293  0.8401
 5615TIP3    H238261   3.745   1.327   0.073 -0.8565 -0.3037  0.4110
 5616TIP3   OH238262   0.517   4.003   3.108 -0.2352  0.1397 -0.2715
 5616TIP3    H138263   0.563   3.928   3.071 -0.3414 -0.1538  0.1865
 5616TIP3    H238264   0.451   3.965   3.167  0.3585  0.5980  0.7216
 5617TIP3   OH238265   5.854   2.183   2.648 -0.3629  0.3926  0.8960
 5617TIP3    H138266   5.842   2.089   2.661 -4.6757  0.2305 -2.0817
 5617TIP3    H238267   5.927   2.190   2.588 -0.8890 -1.2465  0.0027
 5618TIP3   OH238268   3.082   2.746   5.881  0.2826 -0.0273 -0.1971
 5618TIP3    H138269   3.070   2.653   5.900  0.1865  0.1535  0.6761
 5618TIP3    H238270   3.153   2.748   5.816  1.5876 -0.6192  1.1344
 5619TIP3   OH238271   4.886   0.506   6.611 -0.2460 -0.4097  0.0848
 5619TIP3    H138272   4.972   0.540   6.586  0.3641 -0.5151  1.9092
 5619TIP3    H238273   4.902   0.415   6.635 -0.5310 -0.0323  1.8868
 5620TIP3   OH238274   5.711   1.903   1.746  0.1545 -0.1820 -0.8055
 5620TIP3    H138275   5.783   1.961   1.769  0.1203  0.3447 -1.9526
 5620TIP3    H238276   5.708   1.904   1.650  0.4969 -2.5170 -0.9164
 5621TIP3   OH238277   3.017   4.220   5.426 -0.2814 -0.0970  0.5188
 5621TIP3    H138278   3.043   4.169   5.502 -1.0491 -1.3668 -0.0486
 5621TIP3    H238279   2.997   4.155   5.359 -0.1829  0.9828 -0.5903
 5622TIP3   OH238280   2.461   5.082   3.484 -0.1859  0.3942  0.0773
 5622TIP3    H138281   2.426   5.081   3.394 -2.0207 -1.8338  0.6988
 5622TIP3    H238282   2.545   5.126   3.477 -0.3827  0.4995 -2.7011
 5623TIP3   OH238283   2.753   4.825   4.369 -0.3916  0.0071  0.4022
 5623TIP3    H138284   2.686   4.892   4.355  0.5615  1.0256  0.4907
 5623TIP3    H238285   2.728   4.781   4.450 -1.8608 -0.8044 -0.4575
 5624TIP3   OH238286   4.499   5.418  13.718  0.2413  0.2535 -0.1149
 5624TIP3    H138287   4.588   5.452  13.715  0.2274  0.2611 -0.6826
 5624TIP3    H238288   4.485   5.393  13.809 -0.2234  3.0974  0.7088
 5625TIP3   OH238289   6.188   2.690   4.111  0.0121  0.0945 -0.4174
 5625TIP3    H138290   6.233   2.627   4.055  4.1132  0.1843  2.3126
 5625TIP3    H238291   6.225   2.775   4.085 -0.3625  0.5016  0.3583
 5626TIP3   OH238292   3.838   2.454  11.783  0.6412 -0.8419 -0.4162
 5626TIP3    H138293   3.755   2.500  11.772  1.3867  0.6735  0.0959
 5626TIP3    H238294   3.896   2.491  11.717  1.4761 -0.4872  0.4972
 5627TIP3   OH238295   2.065   4.463  15.694 -0.3039  0.1592  0.0162
 5627TIP3    H138296   2.133   4.422  15.640 -1.1966  0.9211 -1.7496
 5627TIP3    H238297   2.105   4.470  15.781  2.1367  1.1188 -1.0942
 5628TIP3   OH238298   1.688   0.177   0.779  0.6692 -0.3512  0.1024
 5628TIP3    H138299   1.700   0.103   0.719  0.9555 -0.1275 -0.1167
 5628TIP3    H238300   1.676   0.136   0.865  0.4337 -0.6654 -0.0791
 5629TIP3   OH238301   1.055   0.696  11.258 -0.3948 -0.1862  0.3718
 5629TIP3    H138302   1.060   0.600  11.254  0.4883 -0.0989 -1.4608
 5629TIP3    H238303   0.970   0.714  11.298  0.3959 -1.7263  3.0046
 5630TIP3   OH238304   3.396   2.678   2.673 -0.2517 -0.0132  0.2020
 5630TIP3    H138305   3.388   2.623   2.596 -1.4165 -1.0595  1.0230
 5630TIP3    H238306   3.462   2.635   2.727 -1.0642 -0.5705  0.7813
 5631TIP3   OH238307   0.032   3.796   3.371  0.1694 -0.7665 -0.1844
 5631TIP3    H138308   0.039   3.720   3.430 -0.3270 -1.2308 -0.7142
 5631TIP3    H238309  -0.025   3.766   3.300  0.7322 -0.1974 -0.8897
 5632TIP3   OH238310   6.702   4.317   3.042  0.4188 -0.1779 -0.0918
 5632TIP3    H138311   6.727   4.389   3.099  0.8341  0.7067 -1.3636
 5632TIP3    H238312   6.723   4.347   2.954 -0.2084 -1.5136 -0.7268
 5633TIP3   OH238313   5.460   6.169  13.037 -0.2188  0.5919  0.3046
 5633TIP3    H138314   5.509   6.114  13.098  0.9430  0.0893 -1.0033
 5633TIP3    H238315   5.422   6.107  12.975 -0.9965  1.1144  0.2586
 5634TIP3   OH238316   5.929   5.640   0.184 -0.0643 -0.6838  0.1302
 5634TIP3    H138317   6.018   5.607   0.196 -0.7269 -1.9506  1.9768
 5634TIP3    H238318   5.882   5.613   0.262 -1.2504  3.0242  0.9043
 5635TIP3   OH238319   1.946   2.270  11.787 -0.4816  0.2800  0.0520
 5635TIP3    H138320   2.023   2.275  11.730 -1.4248 -1.9039 -1.5413
 5635TIP3    H238321   1.894   2.347  11.763 -0.3648 -0.0436 -1.3375
 5636TIP3   OH238322   4.861   1.315   3.665  0.0822 -0.4298 -0.1026
 5636TIP3    H138323   4.789   1.377   3.655 -0.1085 -0.6533 -0.0999
 5636TIP3    H238324   4.820   1.234   3.696  0.2744 -0.6893 -0.5110
 5637TIP3   OH238325   5.588   3.289  12.971 -0.4376  0.2950  0.7332
 5637TIP3    H138326   5.526   3.287  12.898 -0.7736  3.3702  0.8183
 5637TIP3    H238327   5.569   3.209  13.020 -2.2615 -0.3530 -0.8958
 5638TIP3   OH238328   3.528   2.011  14.338  0.0117 -0.1463 -0.4434
 5638TIP3    H138329   3.513   2.088  14.284  0.4088  0.7296  0.6675
 5638TIP3    H238330   3.470   1.944  14.300 -0.4496  0.7266 -1.3281
 5639TIP3   OH238331   4.803   1.561   1.590  0.0665 -0.4975 -0.5841
 5639TIP3    H138332   4.871   1.565   1.656 -0.6567  0.2913  0.1378
 5639TIP3    H238333   4.805   1.471   1.558 -0.7149 -1.4125  1.7511
 5640TIP3   OH238334   6.380   2.903   4.112 -0.1282  0.0092 -0.0239
 5640TIP3    H138335   6.345   2.958   4.183 -0.5288  0.7890 -0.8083
 5640TIP3    H238336   6.365   2.955   4.033  1.4181 -0.3046 -0.5491
 5641TIP3   OH238337   1.683   2.871   1.272  0.1649  0.5718  0.3794
 5641TIP3    H138338   1.660   2.908   1.187 -0.7102  2.4632  1.3813
 5641TIP3    H238339   1.779   2.866   1.272  0.2067  1.3104 -0.4147
 5642TIP3   OH238340   1.884   4.140  14.062  0.2276 -0.6575 -0.2751
 5642TIP3    H138341   1.805   4.102  14.023  1.4587 -1.4633 -2.1239
 5642TIP3    H238342   1.951   4.072  14.052  0.5195 -1.3048  4.1465
 5643TIP3   OH238343   5.644   6.701  17.346  0.0301  0.6018  0.1639
 5643TIP3    H138344   5.625   6.760  17.273 -1.0054  1.9251  1.4379
 5643TIP3    H238345   5.726   6.735  17.383  0.6463 -0.1737 -0.4605
 5644TIP3   OH238346   2.361   2.005  16.237  0.2724 -0.0336  0.2688
 5644TIP3    H138347   2.361   1.991  16.142 -1.7467 -0.2671  0.2694
 5644TIP3    H238348   2.367   1.918  16.274  0.0266 -0.0116  0.3573
 5645TIP3   OH238349   4.899   4.242  16.671  0.0434  0.3268  0.3388
 5645TIP3    H138350   4.936   4.235  16.759  0.8734 -0.0054 -0.0291
 5645TIP3    H238351   4.948   4.313  16.630  0.2059 -0.0484 -0.1206
 5646TIP3   OH238352   3.553   3.034  15.124 -0.7633  0.1934 -0.0124
 5646TIP3    H138353   3.508   3.034  15.040  0.9270  1.2264 -0.9924
 5646TIP3    H238354   3.606   3.114  15.123  1.9135 -1.4243  0.5480
 5647TIP3   OH238355   3.014   3.622  14.065 -0.5600  0.1834 -0.4159
 5647TIP3    H138356   3.033   3.708  14.101 -0.4752  0.9104 -2.1183
 5647TIP3    H238357   2.919   3.621  14.052 -0.6866 -0.3547  0.4823
 5648TIP3   OH238358   2.199   2.002   5.444 -0.0906  0.3476  0.5435
 5648TIP3    H138359   2.193   1.914   5.408 -2.2145  0.6694 -0.0055
 5648TIP3    H238360   2.176   1.993   5.536  2.4288 -0.0307  1.2026
 5649TIP3   OH238361   5.632   2.002   5.535  0.3461  0.9408 -0.0706
 5649TIP3    H138362   5.624   1.907   5.519  0.0897  0.4620  2.5345
 5649TIP3    H238363   5.709   2.010   5.591  0.2314  2.2772 -0.0899
 5650TIP3   OH238364   5.437   6.528   5.700  0.1608  0.2851  0.8602
 5650TIP3    H138365   5.475   6.613   5.678  0.8960  0.0644  1.2194
 5650TIP3    H238366   5.439   6.479   5.618  0.9958  0.1590  0.9415
 5651TIP3   OH238367   4.118   0.139  16.913 -0.4041 -0.9177  0.2401
 5651TIP3    H138368   4.187   0.204  16.922  0.9655 -2.3080  0.1716
 5651TIP3    H238369   4.072   0.162  16.832 -0.6143  0.5314  0.7445
 5652TIP3   OH238370   5.026   0.771  11.632  0.2973 -0.2386 -0.1181
 5652TIP3    H138371   4.994   0.786  11.543 -1.6909  0.4272  0.6287
 5652TIP3    H238372   5.094   0.705  11.623  0.7435  0.4227 -2.2094
 5653TIP3   OH238373   4.663   3.504  10.980 -0.3220 -0.1389 -0.3185
 5653TIP3    H138374   4.656   3.463  11.066  1.1043 -2.4528 -1.1837
 5653TIP3    H238375   4.720   3.579  10.993 -0.1890 -0.4094  0.7577
 5654TIP3   OH238376   6.250   2.250   3.901 -0.1093  0.4128 -0.0985
 5654TIP3    H138377   6.272   2.183   3.836 -1.6124 -0.1614 -0.0694
 5654TIP3    H238378   6.184   2.304   3.857 -1.3147 -0.1190  1.0011
 5655TIP3   OH238379   2.613   3.030  16.096 -0.6399  0.2354  0.2298
 5655TIP3    H138380   2.519   3.044  16.103 -0.5101  0.5044  1.9464
 5655TIP3    H238381   2.623   2.954  16.039 -1.9811 -0.7288  1.2119
 5656TIP3   OH238382   6.033   4.669   3.813  0.2920 -0.0320 -0.8336
 5656TIP3    H138383   5.968   4.733   3.842  0.8116  0.4749 -0.7788
 5656TIP3    H238384   6.070   4.635   3.894  1.8719  1.5148 -0.8567
 5657TIP3   OH238385   5.740   6.041  10.756  0.0400  0.3220  0.2551
 5657TIP3    H138386   5.662   6.066  10.805 -1.6861 -0.3840 -1.9723
 5657TIP3    H238387   5.717   5.957  10.715  1.6834  0.4787 -1.0920
 5658TIP3   OH238388   1.398   0.111   5.314 -0.1370 -0.1414 -0.0718
 5658TIP3    H138389   1.341   0.186   5.330  0.9786  0.5213  0.9327
 5658TIP3    H238390   1.405   0.106   5.218 -0.4680  0.8456 -0.1528
 5659TIP3   OH238391   0.947   1.264  17.298 -0.0169  0.2810  0.1340
 5659TIP3    H138392   0.858   1.294  17.317 -0.5952 -1.1639 -0.1382
 5659TIP3    H238393   0.950   1.252  17.203  0.5015  0.3941  0.1291
 5660TIP3   OH238394   1.193   4.455  16.309 -0.0611  0.3809 -0.0659
 5660TIP3    H138395   1.245   4.454  16.228 -0.2312  0.9335 -0.1823
 5660TIP3    H238396   1.103   4.437  16.280 -0.3627  1.9390 -0.1821
 5661TIP3   OH238397   5.269   1.949  15.196  0.5165 -0.1519 -0.5694
 5661TIP3    H138398   5.250   1.899  15.117  0.5060 -0.2622 -0.4979
 5661TIP3    H238399   5.328   1.892  15.246 -0.9171 -0.8856  0.3552
 5662TIP3   OH238400   3.103   3.632  12.416  0.0261  0.3885 -0.2484
 5662TIP3    H138401   3.106   3.539  12.437 -0.3470  0.6082  0.8992
 5662TIP3    H238402   3.019   3.644  12.371  0.6434 -0.0264 -1.5429
 5663TIP3   OH238403   2.812   0.605   2.792 -0.7812 -0.0636 -0.0492
 5663TIP3    H138404   2.852   0.519   2.778 -0.0366  0.1278  0.8208
 5663TIP3    H238405   2.770   0.625   2.708  0.9548 -0.2863 -1.0350
 5664TIP3   OH238406   5.964   4.870  15.179 -1.4277  0.7404 -0.4067
 5664TIP3    H138407   5.964   4.813  15.103 -1.1651 -1.5506  1.2279
 5664TIP3    H238408   5.951   4.812  15.254  2.1631  2.3038  1.7089
 5665TIP3   OH238409   1.949   4.595  13.056 -0.4850 -0.1955  0.1511
 5665TIP3    H138410   2.006   4.544  13.113 -1.5710 -0.1963  1.2650
 5665TIP3    H238411   1.953   4.684  13.090  0.7707  0.3457 -1.2981
 5666TIP3   OH238412   0.454   6.097   3.478 -1.0895 -0.1304  0.1950
 5666TIP3    H138413   0.537   6.137   3.453 -0.8219 -1.8604 -2.0481
 5666TIP3    H238414   0.387   6.156   3.444 -0.8081  0.5842  0.8338
 5667TIP3   OH238415   3.561   6.512   1.746 -0.3036 -0.0122 -0.0421
 5667TIP3    H138416   3.618   6.472   1.681 -1.1389 -0.3421 -0.5986
 5667TIP3    H238417   3.526   6.589   1.702  0.3897  0.6918  0.6096
 5668TIP3   OH238418   1.196   5.382  17.515 -0.2346 -0.1138  0.7111
 5668TIP3    H138419   1.265   5.404  17.452  0.5018 -0.8653  1.2208
 5668TIP3    H238420   1.191   5.457  17.574 -0.0652  0.0758  0.4820
 5669TIP3   OH238421   5.598   4.937  13.027  0.2959  0.4945 -0.0560
 5669TIP3    H138422   5.565   4.892  12.949 -0.8456  0.4591  0.4417
 5669TIP3    H238423   5.615   5.026  12.998  0.0146  0.4441 -0.3742
 5670TIP3   OH238424   2.839   0.269  12.431 -0.0018  0.1854 -0.2973
 5670TIP3    H138425   2.908   0.229  12.378  1.0574  1.6395 -0.0829
 5670TIP3    H238426   2.764   0.211  12.421  1.4232 -1.7739 -0.0624
 5671TIP3   OH238427   5.608   5.383   5.800 -0.0875 -0.0823 -0.6163
 5671TIP3    H138428   5.537   5.337   5.845  2.2021 -1.4002  1.9354
 5671TIP3    H238429   5.633   5.453   5.860  1.2088 -0.0831 -1.1253
 5672TIP3   OH238430   5.827   5.840   5.420  0.2983  0.1505 -1.1236
 5672TIP3    H138431   5.800   5.905   5.355 -1.5233 -0.4407 -1.0201
 5672TIP3    H238432   5.835   5.890   5.502 -0.1151  0.4236 -1.2474
 5673TIP3   OH238433   1.261   2.398   2.305  0.2096 -0.4527  0.1518
 5673TIP3    H138434   1.337   2.340   2.309 -1.0360 -2.0826  1.2132
 5673TIP3    H238435   1.285   2.471   2.362  1.0260 -0.8726  0.3742
 5674TIP3   OH238436   6.282   1.503   5.085  0.3188 -0.3030 -0.1360
 5674TIP3    H138437   6.361   1.479   5.134  0.1899  0.2583  0.3634
 5674TIP3    H238438   6.233   1.421   5.078  1.6966 -1.0482 -1.9147
 5675TIP3   OH238439   2.617   5.502  16.348 -0.0383  0.6594 -0.1247
 5675TIP3    H138440   2.633   5.571  16.413 -2.4940  1.4822 -0.2682
 5675TIP3    H238441   2.551   5.540  16.290 -2.3886 -2.1852  0.4633
 5676TIP3   OH238442   4.647   1.148   5.192 -0.7830 -0.8018  0.8621
 5676TIP3    H138443   4.695   1.149   5.275  0.7712 -0.0019 -0.0012
 5676TIP3    H238444   4.633   1.056   5.173 -0.8508 -1.0016  1.8278
 5677TIP3   OH238445   4.012   1.488  15.651  0.1572 -0.7522  0.1248
 5677TIP3    H138446   3.941   1.488  15.587  0.7932  3.0080 -0.8368
 5677TIP3    H238447   4.092   1.492  15.597  0.8643 -0.4736  1.1650
 5678TIP3   OH238448   5.100   5.866   3.265 -0.2618 -1.1617  0.1985
 5678TIP3    H138449   5.034   5.924   3.305  2.2856  0.2532  2.6567
 5678TIP3    H238450   5.136   5.919   3.193  1.3414  0.0112  1.7914
 5679TIP3   OH238451   3.124   1.438  13.182  0.0144 -0.2423 -0.1998
 5679TIP3    H138452   3.083   1.361  13.221 -0.8566  0.9526  1.3413
 5679TIP3    H238453   3.064   1.510  13.200 -0.4847  0.4530 -3.8165
 5680TIP3   OH238454   1.828   6.415  13.454 -0.4449 -1.0783 -0.1814
 5680TIP3    H138455   1.822   6.424  13.549  0.6855  2.1395 -0.3189
 5680TIP3    H238456   1.911   6.369  13.439  0.5205  0.4200  0.3783
 5681TIP3   OH238457   3.068   1.239  12.413 -0.1436 -0.1585 -0.1058
 5681TIP3    H138458   2.999   1.174  12.427 -1.0599  0.6456 -0.7869
 5681TIP3    H238459   3.030   1.322  12.443  0.6284  0.2512 -0.2274
 5682TIP3   OH238460   5.381   1.797  12.906  0.0852 -0.2315 -0.1409
 5682TIP3    H138461   5.365   1.776  12.813 -2.3073 -0.6057  0.2753
 5682TIP3    H238462   5.309   1.754  12.952  0.6429  0.8104  1.7899
 5683TIP3   OH238463   6.595   3.727  17.023 -0.0187  0.2971 -0.2015
 5683TIP3    H138464   6.522   3.784  17.046  0.1899  0.3991  0.2331
 5683TIP3    H238465   6.565   3.678  16.947  0.4986  2.3664 -1.8199
 5684TIP3   OH238466   0.359   1.700  15.920  0.5393 -0.0098 -0.0152
 5684TIP3    H138467   0.349   1.690  16.015  0.8403 -0.5790 -0.0383
 5684TIP3    H238468   0.294   1.641  15.883  0.2969  0.3497 -0.1665
 5685TIP3   OH238469   4.733   6.701  10.492 -0.0529  0.0063 -0.1925
 5685TIP3    H138470   4.756   6.671  10.580 -0.4073  0.3687  0.0262
 5685TIP3    H238471   4.643   6.733  10.500  0.2805  1.0482 -0.4361
 5686TIP3   OH238472   0.774   3.489   6.022  0.1501 -0.2833 -0.7662
 5686TIP3    H138473   0.747   3.471   6.112  1.5908 -2.4583 -0.6902
 5686TIP3    H238474   0.695   3.474   5.970 -1.3016  3.0272  0.1946
 5687TIP3   OH238475   3.812   1.204   1.140  0.8261 -0.6221 -0.0480
 5687TIP3    H138476   3.740   1.171   1.087  1.1247  0.7060 -1.3621
 5687TIP3    H238477   3.835   1.132   1.198 -1.6219 -1.0519  0.5090
 5688TIP3   OH238478   2.028   4.625  16.494 -0.4040  0.5545  0.5964
 5688TIP3    H138479   1.938   4.631  16.527 -0.4865  0.7378  0.3340
 5688TIP3    H238480   2.037   4.534  16.466 -0.8192  0.7703 -0.2719
 5689TIP3   OH238481   6.664   1.075   0.287 -0.4909  0.0603  0.0504
 5689TIP3    H138482   6.604   1.108   0.354  0.4849  1.9017  0.0615
 5689TIP3    H238483   6.640   1.123   0.208 -1.4026 -1.8434 -0.9124
 5690TIP3   OH238484   4.389   2.792  16.766 -0.4378  0.2257 -0.5691
 5690TIP3    H138485   4.415   2.782  16.858 -3.4138 -1.8073  0.1862
 5690TIP3    H238486   4.412   2.708  16.726  1.2706  1.2566 -1.9172
 5691TIP3   OH238487   2.977   6.324   0.145  0.0586  0.1963  0.2024
 5691TIP3    H138488   2.895   6.345   0.189 -0.2856 -1.0638  0.2117
 5691TIP3    H238489   2.996   6.401   0.091 -1.0919  0.5318  0.2420
 5692TIP3   OH238490   6.432   3.307  17.569 -0.2054 -0.2616  0.3036
 5692TIP3    H138491   6.466   3.219  17.583 -1.0522 -0.4969  1.0263
 5692TIP3    H238492   6.338   3.299  17.588 -1.1025 -0.0612 -3.3599
 5693TIP3   OH238493   5.082   5.573  14.074 -0.5631 -0.0571  0.5462
 5693TIP3    H138494   5.038   5.654  14.099 -1.6834 -0.4057 -0.2400
 5693TIP3    H238495   5.077   5.517  14.151 -0.7133  0.2309  0.7442
 5694TIP3   OH238496   0.547   4.990  14.110  0.2300  0.2696 -0.4920
 5694TIP3    H138497   0.551   4.978  14.016 -0.0132  1.6321 -0.6911
 5694TIP3    H238498   0.454   4.993  14.131  0.1728 -2.9479  0.2375
 5695TIP3   OH238499   1.903   4.043   2.671 -0.0915 -0.1095 -0.8093
 5695TIP3    H138500   1.938   4.127   2.642  0.4731  1.2432  3.1073
 5695TIP3    H238501   1.975   3.981   2.657 -0.0092  0.3034 -2.4219
 5696TIP3   OH238502   4.628   6.051   2.503 -0.4629 -0.3034 -0.1197
 5696TIP3    H138503   4.569   6.104   2.449  1.2235  1.5185 -0.2936
 5696TIP3    H238504   4.699   6.111   2.527  2.1545 -2.7186 -1.2090
 5697TIP3   OH238505   0.713   4.206   5.851 -0.1809 -0.1735 -0.5066
 5697TIP3    H138506   0.750   4.137   5.907 -2.0986 -0.9444 -0.0756
 5697TIP3    H238507   0.683   4.273   5.913  0.7978  0.6091 -0.8631
 5698TIP3   OH238508   4.227   0.749   0.244  0.1431  0.5280  0.5822
 5698TIP3    H138509   4.268   0.836   0.253  0.5350  0.4464 -0.3326
 5698TIP3    H238510   4.297   0.688   0.265  0.3734  0.3995 -0.5025
 5699TIP3   OH238511   1.731   0.344   5.603  0.3840  0.8188 -0.3709
 5699TIP3    H138512   1.733   0.322   5.510 -0.6208 -2.0036  0.1631
 5699TIP3    H238513   1.817   0.318   5.636  0.8842  2.1891 -0.5407
 5700TIP3   OH238514   0.409   3.658  12.806 -0.5702 -0.5541  0.4728
 5700TIP3    H138515   0.349   3.643  12.879 -0.1213 -0.7560  0.8068
 5700TIP3    H238516   0.493   3.676  12.848 -0.8774  2.1489  0.1128
 5701TIP3   OH238517   4.838   5.824   3.649  0.1466 -0.4754 -0.0181
 5701TIP3    H138518   4.819   5.917   3.639  0.8398 -0.2068  0.9418
 5701TIP3    H238519   4.922   5.811   3.604 -0.3788 -0.8294 -0.9090
 5702TIP3   OH238520   3.818   0.533  14.246 -0.5991  0.0649  0.2074
 5702TIP3    H138521   3.761   0.608  14.264  0.5577  0.2580  3.8734
 5702TIP3    H238522   3.838   0.540  14.152 -3.4125  2.1928 -0.3505
 5703TIP3   OH238523   1.762   0.362  12.235 -0.2886  0.2282  0.4268
 5703TIP3    H138524   1.763   0.433  12.300 -1.3749 -1.1419  2.0379
 5703TIP3    H238525   1.674   0.326  12.242 -0.2503 -0.3125 -1.4867
 5704TIP3   OH238526   2.336   5.465   2.733  0.5121 -0.0555 -0.0042
 5704TIP3    H138527   2.422   5.483   2.771 -0.1676  0.1820  1.4665
 5704TIP3    H238528   2.277   5.462   2.807 -1.2350  2.5144 -1.1577
 5705TIP3   OH238529   6.464   1.754   2.866 -0.4684  0.4510 -0.0965
 5705TIP3    H138530   6.530   1.809   2.823 -2.3005  1.6716 -1.4845
 5705TIP3    H238531   6.409   1.722   2.795 -0.2574 -2.2115  0.8056
 5706TIP3   OH238532   2.569   4.710  17.017  0.5836  0.4128  0.3036
 5706TIP3    H138533   2.533   4.713  17.106  0.3703 -0.3112  0.2499
 5706TIP3    H238534   2.627   4.634  17.018  0.5721  0.3956 -0.1767
 5707TIP3   OH238535   5.412   2.748  12.803  0.2846 -0.1890 -0.3316
 5707TIP3    H138536   5.332   2.725  12.758  1.3920  0.4071 -2.7724
 5707TIP3    H238537   5.408   2.844  12.812  0.0297 -0.3007  1.0357
 5708TIP3   OH238538   4.540   5.456   3.144 -0.5712  0.2745  0.3938
 5708TIP3    H138539   4.486   5.425   3.072 -2.3297  3.0660  0.3611
 5708TIP3    H238540   4.606   5.513   3.103  1.2443 -1.5267  0.6415
 5709TIP3   OH238541   3.139   1.345  17.114  0.8823 -0.2805  0.3053
 5709TIP3    H138542   3.196   1.388  17.050  0.4286 -0.0861  0.0297
 5709TIP3    H238543   3.060   1.322  17.065 -0.2751  1.5394  1.1843
 5710TIP3   OH238544   4.907   0.650   6.102 -0.5871  0.2710 -0.0971
 5710TIP3    H138545   4.925   0.693   6.185  0.3530 -3.0533  1.5850
 5710TIP3    H238546   4.989   0.654   6.054  0.2983 -1.6887  1.1398
 5711TIP3   OH238547   5.923   5.571  13.373 -0.1194  0.1256  0.3816
 5711TIP3    H138548   5.949   5.662  13.378  0.3390 -0.0631  1.6237
 5711TIP3    H238549   5.888   5.551  13.460 -0.8492 -0.6913 -0.0840
 5712TIP3   OH238550   3.182   3.108   0.864 -0.4913 -0.4684  0.3237
 5712TIP3    H138551   3.146   3.087   0.950 -0.6214  0.8859  0.6274
 5712TIP3    H238552   3.200   3.023   0.824 -1.7174 -1.1383  1.1316
 5713TIP3   OH238553   5.319   6.397   5.443  0.1437  0.3753  0.0124
 5713TIP3    H138554   5.317   6.317   5.496  1.5057 -0.4943 -1.1893
 5713TIP3    H238555   5.228   6.410   5.415 -0.3009 -0.0561  1.1856
 5714TIP3   OH238556   6.388   1.900   0.699  0.5200  0.2770 -0.4294
 5714TIP3    H138557   6.306   1.948   0.703  0.0823 -0.4287 -0.8061
 5714TIP3    H238558   6.382   1.836   0.770  0.1023 -0.7556 -1.3632
 5715TIP3   OH238559   6.335   4.681   6.803  0.3762  0.0556  0.5957
 5715TIP3    H138560   6.274   4.614   6.772 -0.3686  1.1574 -0.4569
 5715TIP3    H238561   6.418   4.659   6.761 -0.5727  1.4189 -2.2407
 5716TIP3   OH238562   3.339   5.506  11.707  0.0640 -0.1986 -0.1240
 5716TIP3    H138563   3.354   5.449  11.782  0.0319  1.3623  1.1266
 5716TIP3    H238564   3.420   5.556  11.698 -0.2834  0.3015 -0.5217
 5717TIP3   OH238565   4.933   3.490  13.784 -0.3371  0.2920 -0.1706
 5717TIP3    H138566   4.904   3.478  13.694 -0.0257  0.3275 -0.2756
 5717TIP3    H238567   4.905   3.578  13.807 -1.5369 -0.1598  0.1913
 5718TIP3   OH238568   3.175   5.240   5.742 -0.3475  0.1185 -0.6869
 5718TIP3    H138569   3.214   5.323   5.713 -0.5769 -0.2420 -2.0763
 5718TIP3    H238570   3.088   5.265   5.774 -0.6224  0.3720 -1.5838
 5719TIP3   OH238571   2.751   4.604   5.873 -0.3551  0.2790  0.3293
 5719TIP3    H138572   2.722   4.533   5.816  0.0282 -0.3853  0.9454
 5719TIP3    H238573   2.826   4.568   5.920 -1.4825  0.3272  2.2700
 5720TIP3   OH238574   5.906   4.772   5.404 -0.3018  0.3414  0.0336
 5720TIP3    H138575   5.875   4.773   5.495 -0.8811 -0.2814 -0.1434
 5720TIP3    H238576   5.826   4.766   5.352  0.0927 -0.8946 -0.4575
 5721TIP3   OH238577   1.523   2.821  13.917 -0.0237 -0.2015 -0.4522
 5721TIP3    H138578   1.589   2.761  13.952  1.2244  0.8930 -0.8811
 5721TIP3    H238579   1.471   2.766  13.858  0.0350 -1.2442  0.4350
 5722TIP3   OH238580   4.568   2.097  11.763  0.1060  0.3699 -0.1522
 5722TIP3    H138581   4.626   2.098  11.840  1.6597 -1.5537 -1.2022
 5722TIP3    H238582   4.530   2.009  11.764 -1.9285  1.1884 -0.1962
 5723TIP3   OH238583   5.887   4.996  15.736 -0.6992 -0.1238  0.2940
 5723TIP3    H138584   5.957   5.060  15.718 -1.2349  0.3145 -0.2593
 5723TIP3    H238585   5.934   4.920  15.770  0.1755 -0.2076 -0.9786
 5724TIP3   OH238586   2.307   6.160   5.422  0.0298  0.2348  0.5344
 5724TIP3    H138587   2.307   6.091   5.356  0.1281  0.0091  0.7677
 5724TIP3    H238588   2.357   6.231   5.382  1.3961 -0.4625  0.9336
 5725TIP3   OH238589   3.599   0.113   0.219 -0.3689 -0.4745 -0.1684
 5725TIP3    H138590   3.578   0.139   0.308  2.0345 -0.1380  0.3720
 5725TIP3    H238591   3.588   0.193   0.167 -0.1637 -0.2523  0.1315
 5726TIP3   OH238592   0.629   5.671  12.525  0.4034 -0.0206 -0.6836
 5726TIP3    H138593   0.591   5.748  12.566  1.1369  0.3316 -0.6545
 5726TIP3    H238594   0.722   5.675  12.547 -0.0404 -3.0979  2.9360
 5727TIP3   OH238595   5.180   0.555  11.689  0.1585 -0.3648  0.5420
 5727TIP3    H138596   5.109   0.490  11.694 -0.8559  0.7293  0.5923
 5727TIP3    H238597   5.193   0.583  11.779  0.8032 -0.6814  0.5600
 5728TIP3   OH238598   2.552   2.445   0.221 -0.5351 -0.2501 -0.5512
 5728TIP3    H138599   2.466   2.476   0.192 -0.7497 -0.8399 -0.5646
 5728TIP3    H238600   2.609   2.522   0.216 -1.2280  0.3164  0.1441
 5729TIP3   OH238601   0.898   2.818  15.965  0.5998  0.5887 -0.3593
 5729TIP3    H138602   0.924   2.731  15.933 -0.0018  0.4138 -0.3903
 5729TIP3    H238603   0.979   2.868  15.966  0.8434  0.2246 -0.9932
 5730TIP3   OH238604   0.675   0.767   3.028  0.3352 -0.2864  0.0499
 5730TIP3    H138605   0.710   0.803   2.947  2.2971 -2.0123  0.0315
 5730TIP3    H238606   0.695   0.833   3.094  1.0051  0.0424 -0.4703
 5731TIP3   OH238607   0.848   1.966  16.901 -0.7085  0.2937  0.3571
 5731TIP3    H138608   0.753   1.952  16.905 -0.5548 -0.6128  1.3310
 5731TIP3    H238609   0.881   1.897  16.844 -0.6136  0.4985  0.1625
 5732TIP3   OH238610   5.879   1.802  12.866  0.2493 -0.5326 -0.0961
 5732TIP3    H138611   5.803   1.859  12.861  0.5562 -0.1205 -0.0994
 5732TIP3    H238612   5.872   1.760  12.952  0.6253  0.3647  0.3806
 5733TIP3   OH238613   5.184   5.631  17.165  0.0509  0.0955 -0.2069
 5733TIP3    H138614   5.127   5.651  17.091 -0.2632  0.1797  0.0587
 5733TIP3    H238615   5.201   5.716  17.206 -0.2916 -0.0321  0.1963
 5734TIP3   OH238616   0.090   3.653  13.636  0.2020 -0.3350 -0.3438
 5734TIP3    H138617   0.001   3.687  13.626  0.4291  0.5133  0.3525
 5734TIP3    H238618   0.079   3.570  13.683 -0.1887  0.1103  0.3840
 5735TIP3   OH238619   2.531   5.010   4.319 -0.2425  0.1252 -0.0183
 5735TIP3    H138620   2.492   5.048   4.240  0.9584 -1.3305 -1.3746
 5735TIP3    H238621   2.455   4.985   4.373 -1.3540 -2.3422 -2.4448
 5736TIP3   OH238622   3.074   1.253  12.126 -0.5493 -0.3448  0.0939
 5736TIP3    H138623   3.080   1.273  12.220  0.1255 -0.9048  0.1811
 5736TIP3    H238624   3.056   1.159  12.123 -0.3900 -0.3635 -0.3379
 5737TIP3   OH238625   4.454   3.127  14.948 -0.3516 -0.5736 -0.2912
 5737TIP3    H138626   4.405   3.208  14.957 -0.3276 -0.3995 -1.5906
 5737TIP3    H238627   4.507   3.122  15.028 -1.7838 -0.3154  0.7098
 5738TIP3   OH238628   5.287   5.994  13.306 -0.2839 -0.2878 -0.3858
 5738TIP3    H138629   5.372   5.981  13.265  0.5747  0.4185  1.0825
 5738TIP3    H238630   5.293   6.080  13.348 -1.7303 -0.2032 -0.2833
 5739TIP3   OH238631   2.014   0.493  15.598 -0.5243  0.2604  0.0909
 5739TIP3    H138632   1.935   0.547  15.605  0.4244  1.4804  2.1338
 5739TIP3    H238633   2.070   0.523  15.669  2.1032 -0.1027 -1.7030
 5740TIP3   OH238634   3.508   1.573   5.772  0.6459 -0.0709 -0.2336
 5740TIP3    H138635   3.517   1.478   5.766  0.7460 -0.1812  1.1981
 5740TIP3    H238636   3.569   1.599   5.841  0.3630  0.9942 -0.3553
 5741TIP3   OH238637   3.938   1.238   4.585 -0.0806 -0.2585 -0.7723
 5741TIP3    H138638   3.878   1.167   4.610  2.3030 -2.0348  0.3190
 5741TIP3    H238639   3.914   1.311   4.642 -0.0105 -1.5722  1.0173
 5742TIP3   OH238640   5.531   2.170  14.463  0.1704 -0.4278 -0.7717
 5742TIP3    H138641   5.512   2.192  14.554  1.8876 -1.4968 -0.1060
 5742TIP3    H238642   5.577   2.247  14.429  0.6903 -0.5233 -0.3105
 5743TIP3   OH238643   1.486   4.191  13.010 -0.3119  0.1424 -0.0600
 5743TIP3    H138644   1.551   4.259  12.989 -1.4068  2.2975  2.8573
 5743TIP3    H238645   1.539   4.116  13.038  0.9541  1.0548  0.0978
 5744TIP3   OH238646   5.769   1.269   4.296 -0.2805  0.0340 -0.3734
 5744TIP3    H138647   5.677   1.277   4.319 -0.6441 -0.9955 -1.3932
 5744TIP3    H238648   5.807   1.217   4.367 -0.9336 -1.2774 -0.9501
 5745TIP3   OH238649   5.936   3.230  13.338 -0.2320 -0.5080  0.0393
 5745TIP3    H138650   5.959   3.213  13.247 -0.9954  0.3952 -0.3450
 5745TIP3    H238651   5.866   3.167  13.357  0.4904 -1.2483  0.2672
 5746TIP3   OH238652   4.554   1.495   0.674  0.2943 -0.2351  0.2103
 5746TIP3    H138653   4.570   1.578   0.629 -1.0867  0.1448  0.3886
 5746TIP3    H238654   4.538   1.432   0.604 -0.8934  0.1516  0.1050
 5747TIP3   OH238655   4.034   2.008  14.365  0.2808 -0.2659 -0.3985
 5747TIP3    H138656   3.991   2.077  14.314  0.0125  0.8160  1.2438
 5747TIP3    H238657   3.991   1.928  14.335 -0.5933  0.4371 -1.1359
 5748TIP3   OH238658   5.455   6.520  15.268 -0.5251 -0.2403  0.4824
 5748TIP3    H138659   5.369   6.511  15.228  0.0193 -0.6930 -0.6419
 5748TIP3    H238660   5.458   6.452  15.335 -1.1823  0.0461  0.8075
 5749TIP3   OH238661   2.706   3.424   5.532 -0.4228 -0.0580  0.3916
 5749TIP3    H138662   2.735   3.342   5.494 -0.7574 -0.4819  1.0329
 5749TIP3    H238663   2.697   3.484   5.457  1.6427 -0.0241  0.1302
 5750TIP3   OH238664   4.109   6.093   4.560 -0.2765 -0.0050 -0.5630
 5750TIP3    H138665   4.188   6.147   4.571 -0.6601  0.8386 -1.7848
 5750TIP3    H238666   4.077   6.114   4.473 -1.1616 -1.2873 -0.5759
 5751TIP3   OH238667   4.656   4.372   5.834  0.5085  0.0903 -0.2800
 5751TIP3    H138668   4.588   4.389   5.769  0.8530  2.4040 -0.1372
 5751TIP3    H238669   4.630   4.424   5.910  1.4915 -0.4520  0.4576
 5752TIP3   OH238670   2.008   0.271  16.292  0.0908 -0.7171  0.5183
 5752TIP3    H138671   1.975   0.240  16.208 -0.8409  1.2682  0.0894
 5752TIP3    H238672   2.099   0.295  16.274 -0.3409  0.4766 -0.1731
 5753TIP3   OH238673   3.277   1.194   5.579 -0.5098 -0.3982 -0.1994
 5753TIP3    H138674   3.340   1.260   5.551  0.1239 -0.4680  0.9590
 5753TIP3    H238675   3.204   1.202   5.519  0.0331  0.6164 -0.7405
 5754TIP3   OH238676   3.032   1.032   3.436 -0.0891 -0.4049  0.0165
 5754TIP3    H138677   2.980   0.973   3.491  0.6651 -0.4980  0.6631
 5754TIP3    H238678   3.050   0.981   3.357  0.7200 -1.1474  0.6528
 5755TIP3   OH238679   0.975   0.125   4.715  0.6373 -0.0103 -0.0613
 5755TIP3    H138680   0.935   0.202   4.754 -1.8461 -1.8819  1.3698
 5755TIP3    H238681   1.044   0.100   4.777  0.5865  0.3000  0.1209
 5756TIP3   OH238682   2.426   2.078   2.346 -0.2810 -0.1423  0.2575
 5756TIP3    H138683   2.334   2.063   2.368 -0.1640  1.1948  1.7509
 5756TIP3    H238684   2.473   2.008   2.392 -0.5697 -1.3047 -1.1342
 5757TIP3   OH238685   5.458   3.991  15.972  0.0595  0.2939 -0.8012
 5757TIP3    H138686   5.380   3.994  16.028 -0.7341 -0.6543 -1.8032
 5757TIP3    H238687   5.532   3.986  16.033 -0.7592 -0.4615  0.1705
 5758TIP3   OH238688   5.124   2.983   0.033 -0.0988  0.3005 -0.6723
 5758TIP3    H138689   5.068   2.975   0.111 -1.1598  1.5719 -1.2566
 5758TIP3    H238690   5.180   3.058   0.052  0.3069  0.0180 -0.7508
 5759TIP3   OH238691   4.733   1.797   4.302 -0.0281 -0.1982 -0.6740
 5759TIP3    H138692   4.762   1.867   4.243 -1.2570  1.3103  0.4219
 5759TIP3    H238693   4.666   1.838   4.356 -1.3316 -2.4561 -0.4716
 5760TIP3   OH238694   5.302   3.528  12.342  0.1258 -0.5162  0.2621
 5760TIP3    H138695   5.344   3.509  12.258 -0.5520 -0.9455  0.0143
 5760TIP3    H238696   5.355   3.482  12.407  0.7209 -0.0885  0.0843
 5761TIP3   OH238697   0.656   0.044   2.018 -0.7026  0.3955 -0.0091
 5761TIP3    H138698   0.582   0.015   1.964 -1.6274  0.3608  1.2457
 5761TIP3    H238699   0.655   0.140   2.012 -0.6057  0.3821 -0.2821
 5762TIP3   OH238700   5.006   6.601  16.580 -0.6697  0.0910  0.0141
 5762TIP3    H138701   5.004   6.521  16.528  1.9871 -0.3595  0.4504
 5762TIP3    H238702   5.030   6.670  16.518 -1.8122  0.3898 -0.1307
 5763TIP3   OH238703   3.889   6.143  17.372  0.5657  0.5399  0.3558
 5763TIP3    H138704   3.854   6.056  17.393 -1.5719  1.0675 -0.7735
 5763TIP3    H238705   3.984   6.131  17.373  0.3327 -1.8359  0.1389
 5764TIP3   OH238706   0.835   0.916  12.884 -0.5213  0.3708 -0.1412
 5764TIP3    H138707   0.744   0.926  12.910 -0.7496 -1.4954 -0.0784
 5764TIP3    H238708   0.837   0.941  12.792 -1.1364  0.2533 -0.1887
 5765TIP3   OH238709   4.254   2.097  14.235 -0.3476  1.0921  0.1684
 5765TIP3    H138710   4.184   2.042  14.271 -0.2411  0.2759 -0.8373
 5765TIP3    H238711   4.213   2.144  14.163  0.3235  0.0130 -0.9345
 5766TIP3   OH238712   3.519   0.415  12.274  0.2340  0.0897  0.1228
 5766TIP3    H138713   3.563   0.411  12.358 -1.3342 -1.3052  0.9358
 5766TIP3    H238714   3.565   0.484  12.226  0.9826  1.1299  2.2118
 5767TIP3   OH238715   1.578   3.267   1.963 -1.3056  0.5113  0.3451
 5767TIP3    H138716   1.528   3.307   1.892 -1.0335 -0.8571 -0.6799
 5767TIP3    H238717   1.669   3.269   1.932 -1.2425 -0.5261  0.4035
 5768TIP3   OH238718   1.865   3.732  13.819  0.2834  0.2572 -0.2887
 5768TIP3    H138719   1.806   3.688  13.757  0.3149  0.5685 -0.5385
 5768TIP3    H238720   1.949   3.688  13.807 -0.3174 -1.5582  1.4550
 5769TIP3   OH238721   0.032   5.851   2.340  0.2503  0.3469 -0.1139
 5769TIP3    H138722   0.033   5.779   2.278 -1.2748  0.4938 -0.3448
 5769TIP3    H238723  -0.061   5.873   2.350  0.5876  1.3743  0.9951
 5770TIP3   OH238724   0.479   0.682  11.007  0.2890 -0.0588 -0.3324
 5770TIP3    H138725   0.561   0.728  11.024  0.2201  1.0038 -2.5436
 5770TIP3    H238726   0.497   0.628  10.930 -0.8796 -0.3635 -0.4105
 5771TIP3   OH238727   1.937   2.862  10.624  0.2413  0.3611 -0.7568
 5771TIP3    H138728   2.008   2.798  10.616  0.2978  0.2152  0.6445
 5771TIP3    H238729   1.858   2.809  10.637 -0.2889  0.4966 -3.0601
 5772TIP3   OH238730   1.126   5.987   3.969 -0.7470 -0.2972  0.5429
 5772TIP3    H138731   1.190   6.058   3.983 -2.2703  1.0188  1.1841
 5772TIP3    H238732   1.084   5.976   4.055 -0.7087 -1.8609  0.3918
 5773TIP3   OH238733   5.200   1.482  16.889  0.8811 -0.8202  0.6008
 5773TIP3    H138734   5.284   1.437  16.883  0.7021 -1.5362  2.6075
 5773TIP3    H238735   5.209   1.540  16.965 -0.5213 -1.1261  1.0418
 5774TIP3   OH238736   5.297   2.521  16.555 -0.7073  0.2837 -0.4419
 5774TIP3    H138737   5.285   2.576  16.478  1.5490 -0.7350 -1.6040
 5774TIP3    H238738   5.265   2.435  16.528 -2.4933  0.5263  0.7438
 5775TIP3   OH238739   1.903   3.762  13.331 -0.7851  0.2682  0.2726
 5775TIP3    H138740   1.994   3.750  13.357 -0.9666  0.6697  1.0966
 5775TIP3    H238741   1.895   3.712  13.250  0.0718 -0.0666  0.3874
 5776TIP3   OH238742   0.599   0.764  14.544 -0.4928  0.2398 -0.0293
 5776TIP3    H138743   0.550   0.753  14.462 -1.6634  0.2995  0.6332
 5776TIP3    H238744   0.688   0.785  14.516 -0.7268 -0.2997 -1.2864
 5777TIP3   OH238745   4.297   1.397  12.341 -0.3411  0.0820  0.0204
 5777TIP3    H138746   4.249   1.465  12.388  0.0930  0.7570 -0.5078
 5777TIP3    H238747   4.355   1.358  12.406  0.3294  1.0781  0.0384
 5778TIP3   OH238748   1.084   1.093   2.129 -0.1150 -0.7987 -0.3847
 5778TIP3    H138749   1.165   1.067   2.085  0.1994 -0.4007 -0.0488
 5778TIP3    H238750   1.089   1.188   2.133  0.7324 -0.8733  2.0896
 5779TIP3   OH238751   3.286   6.484   1.491 -0.3759  0.2781 -0.1143
 5779TIP3    H138752   3.200   6.465   1.455 -0.6033 -0.5480  0.8206
 5779TIP3    H238753   3.340   6.410   1.465 -0.2919  0.1510  0.4136
 5780TIP3   OH238754   5.810   2.098   5.754  0.1949  0.6421 -0.1445
 5780TIP3    H138755   5.899   2.079   5.784 -0.4729  0.8465  2.1984
 5780TIP3    H238756   5.812   2.190   5.729  0.6681  0.6139 -0.2076
 5781TIP3   OH238757   0.736   3.801  14.594 -0.3631 -0.3181 -0.2358
 5781TIP3    H138758   0.674   3.808  14.667 -1.1082 -1.2612 -0.7559
 5781TIP3    H238759   0.736   3.889  14.555  0.7732  0.4830  1.4286
 5782TIP3   OH238760   2.529   1.259   3.832  0.1466 -0.2549 -0.0104
 5782TIP3    H138761   2.580   1.178   3.840 -2.5651 -2.0455  0.3836
 5782TIP3    H238762   2.532   1.298   3.919  0.4258 -0.5763  0.1268
 5783TIP3   OH238763   5.219   3.669  13.680  0.2878 -0.3135 -0.0589
 5783TIP3    H138764   5.128   3.698  13.673  0.2019 -0.5012  0.2570
 5783TIP3    H238765   5.217   3.599  13.745  1.0401  1.3877  1.9421
 5784TIP3   OH238766   6.544   4.613  13.770 -0.2421  0.5202  0.2646
 5784TIP3    H138767   6.596   4.603  13.850  1.4192  2.4987 -0.4824
 5784TIP3    H238768   6.469   4.667  13.795 -0.2328  0.3456  0.6700
 5785TIP3   OH238769   3.016   2.295   5.060  0.0019  0.4341  1.2655
 5785TIP3    H138770   3.107   2.321   5.053 -0.1427  0.7247  0.3198
 5785TIP3    H238771   2.989   2.277   4.969 -0.2651 -1.8084  1.7198
 5786TIP3   OH238772   0.460   4.949   4.807 -0.4251  0.1967 -0.2195
 5786TIP3    H138773   0.410   4.995   4.874  1.8176  0.6481  1.2452
 5786TIP3    H238774   0.507   5.018   4.761 -0.2005 -0.2995 -0.7509
 5787TIP3   OH238775   0.968   2.661   2.198  0.2653 -0.0454  0.1849
 5787TIP3    H138776   0.921   2.732   2.154 -1.8021 -1.6244 -0.3486
 5787TIP3    H238777   1.060   2.683   2.188 -0.2337  1.4016 -1.9550
 5788TIP3   OH238778   2.248   2.289   5.712  0.2319  0.2249  0.2664
 5788TIP3    H138779   2.226   2.309   5.621  1.2056 -1.5488 -0.4111
 5788TIP3    H238780   2.164   2.283   5.757 -0.2204  2.2386 -0.2129
 5789TIP3   OH238781   2.006   3.279  12.268 -0.2563 -0.2440  0.2578
 5789TIP3    H138782   1.916   3.277  12.300 -0.1638 -0.6015  0.4949
 5789TIP3    H238783   2.001   3.329  12.187 -0.3721  1.3755  1.2072
 5790TIP3   OH238784   1.400   2.359   4.754  0.1200 -0.3650  0.1488
 5790TIP3    H138785   1.430   2.286   4.808 -0.4112 -1.5272 -1.0700
 5790TIP3    H238786   1.441   2.343   4.669 -1.2529 -0.1311 -0.5750
 5791TIP3   OH238787   5.452   4.441   2.934  0.0125  0.4549 -0.3772
 5791TIP3    H138788   5.490   4.476   2.854 -0.0473 -0.9962 -1.0896
 5791TIP3    H238789   5.526   4.427   2.993 -0.0239  2.2273  0.1500
 5792TIP3   OH238790   3.144   1.850  15.971 -0.1826 -0.1395  0.0105
 5792TIP3    H138791   3.067   1.906  15.960 -0.3798 -0.0650  1.5546
 5792TIP3    H238792   3.116   1.782  16.033  0.6024 -0.8908 -0.4273
 5793TIP3   OH238793   4.200   2.190  13.064 -0.0841  1.1105 -0.0257
 5793TIP3    H138794   4.170   2.137  12.990  0.7938  0.3076  0.1761
 5793TIP3    H238795   4.124   2.244  13.086 -0.4102  1.2706 -1.4111
 5794TIP3   OH238796   2.599   5.963  13.909  0.3558 -0.6737  0.1965
 5794TIP3    H138797   2.582   6.040  13.962 -0.7296 -2.0653  2.0111
 5794TIP3    H238798   2.512   5.934  13.880  0.6244 -1.7851  0.4308
 5795TIP3   OH238799   2.642   5.478   3.952  0.4646  0.0137  0.7381
 5795TIP3    H138800   2.688   5.547   3.904 -0.8942  1.5047  1.4831
 5795TIP3    H238801   2.662   5.398   3.904  3.2627  0.6698  0.6654
 5796TIP3   OH238802   6.223   5.262   2.609 -0.4546 -0.0391  0.3214
 5796TIP3    H138803   6.136   5.301   2.618 -0.3061  0.4910 -0.4188
 5796TIP3    H238804   6.266   5.315   2.542  0.0618 -0.9612 -0.0996
 5797TIP3   OH238805   4.742   1.736   3.890 -0.3146  0.1970 -0.5624
 5797TIP3    H138806   4.829   1.701   3.874 -0.9494 -0.7309 -2.2435
 5797TIP3    H238807   4.757   1.817   3.939  1.6220  1.0639 -2.4419
 5798TIP3   OH238808   0.603   5.568  16.120 -0.3069  0.3227  0.3380
 5798TIP3    H138809   0.642   5.638  16.068  0.5989  0.4069  1.0927
 5798TIP3    H238810   0.649   5.573  16.204  0.0998 -1.4471  0.2639
 5799TIP3   OH238811   3.376   1.073  13.487  0.2040 -0.0141 -0.2505
 5799TIP3    H138812   3.463   1.050  13.521  0.1308 -0.1753 -0.1705
 5799TIP3    H238813   3.315   1.041  13.553  0.0280 -0.8488 -0.8005
 5800TIP3   OH238814   4.174   6.134   2.029  0.3526  0.2884  0.1040
 5800TIP3    H138815   4.158   6.212   2.082  2.5400 -0.2686  1.7278
 5800TIP3    H238816   4.203   6.167   1.945 -2.1060  1.1930 -0.4677
 5801TIP3   OH238817   4.852   3.561  16.642  0.0859  0.4271 -0.4088
 5801TIP3    H138818   4.829   3.539  16.732 -0.3676 -0.3023 -0.6952
 5801TIP3    H238819   4.947   3.550  16.638  0.0157 -0.2917 -0.2179
 5802TIP3   OH238820   1.820   1.681   2.926 -0.4071 -0.0928 -0.0579
 5802TIP3    H138821   1.843   1.610   2.987 -1.4546 -0.6516 -0.2971
 5802TIP3    H238822   1.740   1.719   2.961 -0.9801 -0.3674 -1.0317
 5803TIP3   OH238823   0.514   6.156  17.051  0.1080  0.1635 -0.1843
 5803TIP3    H138824   0.596   6.207  17.050 -0.2777  0.7860 -0.3292
 5803TIP3    H238825   0.464   6.188  16.977 -0.2641 -0.2329 -0.1091
 5804TIP3   OH238826   1.915   0.069  12.014 -0.4037  0.6211  0.4283
 5804TIP3    H138827   1.978   0.000  11.994 -0.8638 -0.4135  2.2592
 5804TIP3    H238828   1.966   0.137  12.058 -0.0666  1.1681 -0.7786
 5805TIP3   OH238829   5.171   3.361  14.215  0.3842 -0.4007 -0.5486
 5805TIP3    H138830   5.188   3.455  14.219  1.6834 -0.5338 -2.1029
 5805TIP3    H238831   5.103   3.351  14.149  0.2285 -0.5443 -0.3665
 5806TIP3   OH238832   3.797   3.649   4.804  0.5251 -0.3264 -0.5920
 5806TIP3    H138833   3.735   3.646   4.731 -1.0542  0.9075  0.6454
 5806TIP3    H238834   3.780   3.569   4.853 -0.5136  0.2730  0.0518
 5807TIP3   OH238835   4.520   5.643  10.970  0.4163  0.2024  0.3163
 5807TIP3    H138836   4.439   5.642  10.919  1.0016  1.6461 -0.7163
 5807TIP3    H238837   4.539   5.551  10.987 -0.9133 -0.2098 -0.2697
 5808TIP3   OH238838   5.710   6.692  12.459  0.3678  0.4947  0.0969
 5808TIP3    H138839   5.675   6.608  12.489 -2.2403  1.1765 -0.8236
 5808TIP3    H238840   5.784   6.709  12.518  0.4795 -2.0354  0.8153
 5809TIP3   OH238841   4.867   0.885  16.278 -0.0798 -0.1788  0.3923
 5809TIP3    H138842   4.864   0.814  16.342  0.7927  0.3171  1.0092
 5809TIP3    H238843   4.797   0.944  16.305  1.6367  1.1437  2.3028
 5810TIP3   OH238844   0.601   2.344  16.459 -0.1902  0.5096  0.0271
 5810TIP3    H138845   0.595   2.405  16.531  0.0260  0.8150 -0.2090
 5810TIP3    H238846   0.570   2.393  16.383  0.3448  0.4501 -0.2327
 5811TIP3   OH238847   5.883   0.777  16.519 -0.0920 -0.0531  0.0474
 5811TIP3    H138848   5.921   0.706  16.571  2.1605  0.0041 -1.3876
 5811TIP3    H238849   5.853   0.735  16.438  1.5208  0.5989 -0.9406
 5812TIP3   OH238850   0.836   0.054  15.367 -0.1220 -0.2986  0.5279
 5812TIP3    H138851   0.775  -0.021  15.368 -0.3542 -0.1399  2.3196
 5812TIP3    H238852   0.918   0.018  15.401  0.6370 -0.3395 -1.2095
 5813TIP3   OH238853   4.774   4.878   3.760 -0.4866  0.6814 -0.0835
 5813TIP3    H138854   4.752   4.955   3.814  0.8118  0.4102  0.8897
 5813TIP3    H238855   4.868   4.887   3.744 -0.4417 -0.3866 -0.4741
 5814TIP3   OH238856   5.328   6.367   5.100  0.0008  0.2113  0.2737
 5814TIP3    H138857   5.241   6.327   5.098 -0.4582  1.1745 -1.5392
 5814TIP3    H238858   5.334   6.407   5.186 -0.6811 -1.2351  1.0287
 5815TIP3   OH238859   3.844   0.760  13.719 -0.6814 -0.6124 -0.0901
 5815TIP3    H138860   3.900   0.713  13.658 -0.0998  1.5694 -1.3468
 5815TIP3    H238861   3.755   0.740  13.690 -0.4203 -0.0696 -1.3347
 5816TIP3   OH238862   1.089   1.770  15.007  0.2896 -0.4709 -0.2280
 5816TIP3    H138863   1.061   1.786  14.917  2.2586 -1.3561 -1.0602
 5816TIP3    H238864   1.171   1.820  15.016 -1.2007  1.7980  1.9923
 5817TIP3   OH238865   1.879   2.515  11.649 -0.6229 -0.2525  0.0830
 5817TIP3    H138866   1.937   2.580  11.689 -1.7595  0.7227  0.2430
 5817TIP3    H238867   1.883   2.533  11.555 -0.9356  0.0644  0.1273
 5818TIP3   OH238868   5.368   1.775   2.337  0.0439 -0.6932  0.2327
 5818TIP3    H138869   5.415   1.708   2.386 -0.3426 -0.6831  0.6173
 5818TIP3    H238870   5.391   1.758   2.245  1.7383  0.0453  0.4897
 5819TIP3   OH238871   0.073   5.139  14.406  0.0436 -0.6713  0.2192
 5819TIP3    H138872   0.060   5.138  14.501 -0.3516  0.3931  0.1835
 5819TIP3    H238873  -0.015   5.146  14.369  0.2713  0.0751 -0.1936
 5820TIP3   OH238874   1.428   3.233   3.971  0.1101  0.0210  0.4356
 5820TIP3    H138875   1.410   3.243   4.065  0.7588  0.4752  0.5177
 5820TIP3    H238876   1.341   3.234   3.930 -0.2064 -0.5596  1.0605
 5821TIP3   OH238877   6.205   0.242   5.093 -0.1863 -0.0933 -0.2028
 5821TIP3    H138878   6.154   0.305   5.042  1.5686  0.6305 -1.1560
 5821TIP3    H238879   6.209   0.279   5.181  2.8838  2.5763 -1.2814
 5822TIP3   OH238880   5.573   1.966  16.800  0.3392  0.5133 -0.0103
 5822TIP3    H138881   5.509   1.897  16.781  0.9386 -0.2839  0.8081
 5822TIP3    H238882   5.543   2.003  16.883  1.9848 -1.1868  1.4233
 5823TIP3   OH238883   4.786   1.408   4.129 -0.0214 -0.2083 -0.2879
 5823TIP3    H138884   4.841   1.484   4.113 -0.7519  0.3481 -0.1990
 5823TIP3    H238885   4.801   1.385   4.220 -0.0906  0.0673 -0.2074
 5824TIP3   OH238886   6.010   5.749  10.900 -0.0280  0.2486 -0.1545
 5824TIP3    H138887   6.043   5.809  10.966 -0.2517  1.8614 -1.4599
 5824TIP3    H238888   6.005   5.801  10.820 -3.2945 -0.5483 -0.6228
 5825TIP3   OH238889   6.671   1.980  16.290  0.4346  0.1508 -0.0044
 5825TIP3    H138890   6.645   2.012  16.377  0.1677 -0.7456  0.2543
 5825TIP3    H238891   6.759   2.014  16.278  0.2035  0.8839  0.3087
 5826TIP3   OH238892   5.009   0.049  14.461  0.1287 -0.1537 -0.2716
 5826TIP3    H138893   4.952   0.012  14.394  1.3156  0.0713 -1.4300
 5826TIP3    H238894   4.976   0.137  14.475  0.4363  0.1250 -1.2449
 5827TIP3   OH238895   3.982   1.347  16.536  0.3844  0.0653  0.2589
 5827TIP3    H138896   4.053   1.411  16.531 -2.1829  3.2974  1.0001
 5827TIP3    H238897   3.938   1.354  16.451 -0.7447  0.4047  0.8509
 5828TIP3   OH238898   2.961   3.990   4.373 -0.2602  0.2784 -0.4047
 5828TIP3    H138899   3.050   3.985   4.407 -0.6839 -1.4586  0.5794
 5828TIP3    H238900   2.906   3.996   4.451 -1.1755 -2.4353 -0.7196
 5829TIP3   OH238901   3.292   4.605   5.584  0.2636 -0.2998 -0.4196
 5829TIP3    H138902   3.368   4.622   5.640 -0.8981 -0.6286  1.3475
 5829TIP3    H238903   3.307   4.517   5.549  0.9043 -0.1926 -0.4142
 5830TIP3   OH238904   4.017   1.820  11.679 -0.1790  0.3507 -0.5352
 5830TIP3    H138905   4.106   1.818  11.644 -0.1024 -1.8240 -0.3400
 5830TIP3    H238906   4.024   1.778  11.765 -1.0326  2.1767  0.4778
 5831TIP3   OH238907   3.655   0.981  12.514  0.6001 -0.3047  0.9097
 5831TIP3    H138908   3.708   1.059  12.528 -0.2065  0.6399 -0.8890
 5831TIP3    H238909   3.565   1.014  12.510  0.3463 -1.0994 -1.0836
 5832TIP3   OH238910   4.904   4.245   6.158 -0.3374  0.4372 -0.4030
 5832TIP3    H138911   4.847   4.267   6.232  0.5171  1.8284 -0.1247
 5832TIP3    H238912   4.985   4.292   6.175 -0.2798  1.1747 -2.4744
 5833TIP3   OH238913   5.474   0.943   0.881  0.5732 -0.0453  0.1177
 5833TIP3    H138914   5.466   0.991   0.964 -0.5313  1.3149 -0.7432
 5833TIP3    H238915   5.423   0.863   0.896  2.9362 -1.3523  1.7693
 5834TIP3   OH238916   1.450   5.861  14.296 -0.4679  0.3881 -0.0332
 5834TIP3    H138917   1.492   5.776  14.287  1.2393  1.1704  0.2887
 5834TIP3    H238918   1.359   5.840  14.317 -0.3931 -1.3477 -1.2191
 5835TIP3   OH238919   6.447   2.284  11.534 -0.1411 -0.1712 -0.0448
 5835TIP3    H138920   6.408   2.214  11.587 -1.0879 -0.2995 -0.8681
 5835TIP3    H238921   6.429   2.258  11.444 -1.1031  1.4347 -0.3657
 5836TIP3   OH238922   1.435   3.596  13.293  0.4030 -0.5199 -0.3108
 5836TIP3    H138923   1.489   3.538  13.346  1.9662  1.9693  1.0315
 5836TIP3    H238924   1.460   3.576  13.203  1.1710 -1.6601  0.1370
 5837TIP3   OH238925   4.039   4.917   2.504 -0.3438 -0.2303  0.0352
 5837TIP3    H138926   3.962   4.862   2.513  0.4964 -1.2663  1.5545
 5837TIP3    H238927   4.020   4.976   2.431 -1.5040 -2.1703 -1.2932
 5838TIP3   OH238928   1.371   3.980   3.977  0.0191  0.0942  0.0245
 5838TIP3    H138929   1.280   4.008   3.967 -0.3090 -0.7693  0.4993
 5838TIP3    H238930   1.378   3.901   3.923  0.5393  0.2510 -0.1436
 5839TIP3   OH238931   6.716   5.739   5.361 -0.9387 -0.4628 -0.1111
 5839TIP3    H138932   6.748   5.660   5.317 -1.6686  0.8155 -3.1789
 5839TIP3    H238933   6.744   5.728   5.452  2.5784 -2.3567 -1.2146
 5840TIP3   OH238934   2.246   2.583  11.406  0.3516  0.3242 -0.6617
 5840TIP3    H138935   2.338   2.560  11.413  0.5688  0.5492 -2.2972
 5840TIP3    H238936   2.224   2.568  11.314 -0.8305  1.7587 -0.6603
 5841TIP3   OH238937   5.744   0.721   4.538 -0.4852 -0.0047  0.2462
 5841TIP3    H138938   5.680   0.702   4.607  0.3342  1.7745  1.5816
 5841TIP3    H238939   5.691   0.740   4.461 -1.5160  0.1923  0.9768
 5842TIP3   OH238940   3.210   2.896   1.757 -0.2169 -0.0371 -0.7872
 5842TIP3    H138941   3.251   2.980   1.735 -1.6525  0.3442 -2.2185
 5842TIP3    H238942   3.122   2.920   1.784 -1.2809 -1.1597 -3.0179
 5843TIP3   OH238943   2.009   4.857  11.790  0.1667  0.1266 -0.3539
 5843TIP3    H138944   2.098   4.880  11.763  0.6315 -0.3931  0.6890
 5843TIP3    H238945   2.004   4.884  11.882 -0.3774 -0.8450 -0.0893
 5844TIP3   OH238946   0.438   3.474  13.290 -0.2134  0.5335  0.1171
 5844TIP3    H138947   0.524   3.436  13.311  0.0284  1.1589  0.2643
 5844TIP3    H238948   0.426   3.543  13.354 -0.2419  1.3111 -0.7059
 5845TIP3   OH238949   0.081   3.405  13.199  0.6812 -0.2417 -0.8410
 5845TIP3    H138950   0.064   3.450  13.281 -0.5803 -0.4819 -0.9608
 5845TIP3    H238951   0.041   3.319  13.209  2.0680 -0.9433 -1.0540
 5846TIP3   OH238952   3.317   4.870  16.634 -0.2140 -0.3012 -0.1858
 5846TIP3    H138953   3.313   4.786  16.589  1.5450 -0.5849  0.1342
 5846TIP3    H238954   3.282   4.852  16.721 -2.5479 -0.0063 -0.9904
 5847TIP3   OH238955   3.827   0.604  16.168 -0.0460 -0.4488 -0.0615
 5847TIP3    H138956   3.849   0.691  16.133 -0.7079 -0.2207  0.0748
 5847TIP3    H238957   3.862   0.543  16.104  1.2407 -0.1075  0.2907
 5848TIP3   OH238958   6.416   4.870   3.393  0.4506 -0.0607  0.2795
 5848TIP3    H138959   6.379   4.957   3.380  1.7770  0.4739 -0.1820
 5848TIP3    H238960   6.368   4.833   3.467 -1.5241  0.2319 -0.7940
 5849TIP3   OH238961   4.763   1.100   5.726  0.5617 -0.4824  0.1688
 5849TIP3    H138962   4.720   1.046   5.660  0.3286  0.1925 -0.2438
 5849TIP3    H238963   4.816   1.039   5.777  0.8036 -0.9954 -0.6893
 5850TIP3   OH238964   5.768   1.026   0.296  0.2072  0.1645 -0.3422
 5850TIP3    H138965   5.848   1.068   0.327 -0.3233  0.3395  0.8535
 5850TIP3    H238966   5.759   1.056   0.206  2.1013 -0.8067 -0.8916
 5851TIP3   OH238967   2.650   6.659   4.224 -0.4289 -0.3723 -0.2831
 5851TIP3    H138968   2.617   6.742   4.191  0.5768 -0.1173 -0.6921
 5851TIP3    H238969   2.588   6.634   4.292 -0.2324  1.1785  0.5022
 5852TIP3   OH238970   5.524   1.049   0.434 -0.3504  0.1976  0.0598
 5852TIP3    H138971   5.463   0.978   0.414  1.2031 -0.4689 -2.9593
 5852TIP3    H238972   5.602   1.028   0.382  2.0536  1.5934  2.8552
 5853TIP3   OH238973   4.147   1.384  14.487 -0.5865 -0.4778 -0.0385
 5853TIP3    H138974   4.124   1.323  14.417  0.0262 -1.5665  0.6870
 5853TIP3    H238975   4.212   1.443  14.447  0.6993 -1.8544 -0.0796
 5854TIP3   OH238976   2.760   2.634   2.091  0.2216  0.2327 -0.0046
 5854TIP3    H138977   2.731   2.548   2.061 -0.2487  0.9033 -1.6212
 5854TIP3    H238978   2.714   2.648   2.174 -0.2331 -0.7716 -0.0764
 5855TIP3   OH238979   5.799   0.829   0.963  0.1249 -0.1420  0.0318
 5855TIP3    H138980   5.767   0.917   0.982 -1.9272 -0.6630 -0.6370
 5855TIP3    H238981   5.819   0.791   1.048  0.8509  0.8830  0.3366
 5856TIP3   OH238982   5.033   1.723  17.351 -0.1292  0.0439  0.4327
 5856TIP3    H138983   5.024   1.647  17.408  1.5862  0.0824  0.8264
 5856TIP3    H238984   4.945   1.738  17.316 -0.3429 -2.6884 -0.4086
 5857TIP3   OH238985   2.115   2.983  16.913  0.2600 -0.8834 -0.1184
 5857TIP3    H138986   2.119   3.078  16.905 -0.0386 -0.9920 -1.9734
 5857TIP3    H238987   2.206   2.956  16.926  0.5278 -0.4333 -1.0042
 5858TIP3   OH238988   5.057   2.824   1.731  0.0700 -0.0810 -0.0348
 5858TIP3    H138989   5.051   2.824   1.636 -0.0429  0.1167 -0.0290
 5858TIP3    H238990   5.061   2.731   1.755 -2.3064 -0.2692 -0.0965
 5859TIP3   OH238991   3.665   3.842  16.490 -0.1414 -0.1479 -0.3270
 5859TIP3    H138992   3.643   3.756  16.455 -0.6284  1.3225 -4.1322
 5859TIP3    H238993   3.760   3.849  16.479 -0.2064  0.0630 -0.7894
 5860TIP3   OH238994   0.859   1.071  12.635  0.0992  0.0594 -0.3439
 5860TIP3    H138995   0.812   1.151  12.656  0.6545  0.7494 -1.6294
 5860TIP3    H238996   0.944   1.101  12.602  0.2805 -1.0509 -0.9343
 5861TIP3   OH238997   5.629   2.684  14.194  0.1526 -0.5425  0.5686
 5861TIP3    H138998   5.664   2.723  14.114  0.6749 -0.9415  0.5986
 5861TIP3    H238999   5.542   2.722  14.203  0.7828  0.9180  0.8066
 5862TIP3   OH239000   4.198   4.604   2.780 -0.6536 -0.0790  0.4497
 5862TIP3    H139001   4.139   4.569   2.847  0.8919  1.2489  2.6472
 5862TIP3    H239002   4.283   4.565   2.799 -0.4584 -0.9254 -1.8294
 5863TIP3   OH239003   5.755   4.939  11.900 -0.3485 -0.1445 -0.7195
 5863TIP3    H139004   5.803   5.013  11.863 -1.4330  0.2524 -1.3730
 5863TIP3    H239005   5.677   4.930  11.844 -1.6789  0.0269  1.0108
 5864TIP3   OH239006   1.976   5.590  16.835 -0.1566  0.0362 -0.0094
 5864TIP3    H139007   1.997   5.498  16.818 -0.5376 -0.1360  0.4203
 5864TIP3    H239008   1.944   5.624  16.751  0.2597 -0.1440 -0.2421
 5865TIP3   OH239009   1.092   1.040  17.536  0.4476  0.7788 -0.0747
 5865TIP3    H139010   1.100   1.135  17.523  3.5946  0.3806 -2.4504
 5865TIP3    H239011   1.002   1.020  17.512 -0.0645  3.0721 -0.3098
 5866TIP3   OH239012   2.207   1.760   5.346 -0.2434  0.2562  0.1754
 5866TIP3    H139013   2.173   1.677   5.312 -1.5482  0.8442 -0.0411
 5866TIP3    H239014   2.248   1.736   5.430 -1.1648 -0.5264  0.4274
 5867TIP3   OH239015   0.265   6.153   0.074  0.1353  1.4096 -0.4179
 5867TIP3    H139016   0.269   6.232   0.019  0.4278  1.3270 -0.5181
 5867TIP3    H239017   0.326   6.092   0.032 -2.3144 -0.0290 -2.1615
 5868TIP3   OH239018   2.844   6.183  13.488 -0.2041 -0.4913  0.7415
 5868TIP3    H139019   2.890   6.134  13.419  1.7701  0.8316  1.0441
 5868TIP3    H239020   2.811   6.116  13.547 -0.7142 -1.5927 -0.7288
 5869TIP3   OH239021   5.163   2.326  16.190  0.1109 -0.1278 -0.5252
 5869TIP3    H139022   5.221   2.318  16.265 -2.0296 -1.3439  1.1023
 5869TIP3    H239023   5.170   2.242  16.145 -2.7100 -1.6415  1.5755
 5870TIP3   OH239024   1.558   5.999   5.721 -0.4817  0.5304  0.5693
 5870TIP3    H139025   1.618   6.019   5.793 -0.5774 -0.2475  0.8781
 5870TIP3    H239026   1.498   6.074   5.719  1.8845  2.5386 -1.3246
 5871TIP3   OH239027   5.177   6.355  11.282 -0.0391 -0.3719 -0.5702
 5871TIP3    H139028   5.190   6.264  11.308 -3.0365 -0.6597  0.3773
 5871TIP3    H239029   5.156   6.400  11.364 -1.8890  0.4240 -1.4193
 5872TIP3   OH239030   4.316   1.855   1.205  0.4364 -0.2444  0.1243
 5872TIP3    H139031   4.292   1.785   1.265 -1.4877 -0.1552 -0.4500
 5872TIP3    H239032   4.405   1.835   1.178  0.2167 -2.0216  0.5931
 5873TIP3   OH239033   3.085   3.555  12.991  0.4099 -0.3371  0.1925
 5873TIP3    H139034   3.163   3.554  12.936 -1.2684  0.4867 -2.3925
 5873TIP3    H239035   3.038   3.475  12.968 -0.6974  0.4041 -0.2473
 5874TIP3   OH239036   5.798   0.706   1.737  0.3022  0.4828  0.1829
 5874TIP3    H139037   5.706   0.702   1.712  0.2689 -2.0187  0.4812
 5874TIP3    H239038   5.813   0.798   1.758 -2.1745  0.9072  0.3590
 5875TIP3   OH239039   6.310   5.572  16.764  0.6903  0.1308 -0.0910
 5875TIP3    H139040   6.329   5.496  16.708 -0.5202  0.1898 -0.6172
 5875TIP3    H239041   6.355   5.553  16.846  1.5671 -0.4912 -0.6952
 5876TIP3   OH239042   1.743   1.380   3.338  0.5674  0.3043 -0.4719
 5876TIP3    H139043   1.754   1.328   3.417  0.9766  1.2911  0.1299
 5876TIP3    H239044   1.664   1.344   3.296 -0.1190  0.3020  0.7858
 5877TIP3   OH239045   1.419   0.925  11.053  0.0951  0.3692 -0.1774
 5877TIP3    H139046   1.480   0.855  11.034 -0.9566 -0.5889 -0.1289
 5877TIP3    H239047   1.449   0.962  11.136 -0.3150 -1.1466  0.6714
 5878TIP3   OH239048   2.455   6.039   3.920  0.1196 -0.4836 -0.0834
 5878TIP3    H139049   2.467   6.124   3.964  0.9559 -0.2666 -0.7195
 5878TIP3    H239050   2.458   5.975   3.991 -1.1948  0.0498  0.4926
 5879TIP3   OH239051   1.262   1.946  14.352  0.0558  0.1192  0.5688
 5879TIP3    H139052   1.254   1.890  14.275  0.8162 -0.8000  1.1402
 5879TIP3    H239053   1.355   1.946  14.372  0.0333  1.3686  0.7587
 5880TIP3   OH239054   1.955   3.116   0.374 -0.0492 -1.0325 -0.0560
 5880TIP3    H139055   1.908   3.071   0.443  1.0426  0.6735  1.9168
 5880TIP3    H239056   1.900   3.105   0.296 -2.9683 -0.3419  1.7678
 5881TIP3   OH239057   6.014   4.354   3.985  0.4108  0.5184  0.5350
 5881TIP3    H139058   5.933   4.335   3.937  0.3526 -1.3183  1.2891
 5881TIP3    H239059   6.022   4.284   4.049  2.4474  0.8190  0.7031
 5882TIP3   OH239060   2.995   3.979  16.719  0.4071 -0.1357 -0.7304
 5882TIP3    H139061   3.013   4.073  16.712  0.3771 -0.0954 -0.3183
 5882TIP3    H239062   2.906   3.974  16.754  0.8058 -0.2946  0.3227
 5883TIP3   OH239063   3.047   6.502  15.869 -0.1248  0.5518 -0.1389
 5883TIP3    H139064   3.029   6.533  15.780 -2.1262  0.0910  0.0676
 5883TIP3    H239065   3.060   6.407  15.859  2.5219  0.8459 -0.2809
 5884TIP3   OH239066   3.619   6.163  16.730 -0.0030 -0.4888  0.3769
 5884TIP3    H139067   3.593   6.078  16.694  1.3689 -0.9438  0.3849
 5884TIP3    H239068   3.585   6.163  16.819 -3.2345  0.5486 -0.6995
 5885TIP3   OH239069   3.116   0.802  16.946 -0.5351 -0.5047  0.0233
 5885TIP3    H139070   3.103   0.864  17.018 -2.9850 -2.4013  1.3818
 5885TIP3    H239071   3.060   0.835  16.875  0.1776  0.1785 -0.2354
 5886TIP3   OH239072   4.581   5.822   3.529 -0.1668 -0.0793  0.3035
 5886TIP3    H139073   4.669   5.826   3.568 -0.9086 -2.0674  2.3783
 5886TIP3    H239074   4.579   5.737   3.485 -0.5446  0.6691 -1.1890
 5887TIP3   OH239075   0.353   0.632   0.655  0.2199 -0.5697 -0.2360
 5887TIP3    H139076   0.273   0.661   0.611  0.3227 -0.2661 -0.2215
 5887TIP3    H239077   0.357   0.538   0.638  0.6456 -0.3368 -1.4726
 5888TIP3   OH239078   4.400   4.827  11.489  0.2467 -0.1359 -0.1465
 5888TIP3    H139079   4.328   4.881  11.457 -1.1350 -1.7038  0.1592
 5888TIP3    H239080   4.478   4.881  11.476 -0.9718  1.6864 -0.3562
 5889TIP3   OH239081   3.334   5.682  12.941  0.0956 -0.3812  0.0709
 5889TIP3    H139082   3.347   5.749  12.875  0.7444 -0.5811 -0.0071
 5889TIP3    H239083   3.413   5.685  12.995 -0.9165  0.5844  1.5810
 5890TIP3   OH239084   1.447   1.652   4.163  0.0583  0.6993  0.3307
 5890TIP3    H139085   1.399   1.710   4.222 -1.1402  1.3076 -1.1593
 5890TIP3    H239086   1.404   1.567   4.173  0.2672  0.6423  0.7753
 5891TIP3   OH239087   3.646   3.585  11.029 -0.7807 -0.1411  0.0884
 5891TIP3    H139088   3.605   3.504  11.061 -0.8871 -0.3971 -0.6683
 5891TIP3    H239089   3.573   3.647  11.023 -0.5153  0.3942  1.7810
 5892TIP3   OH239090   5.834   3.656   2.203  0.4211  0.3040  0.1544
 5892TIP3    H139091   5.805   3.571   2.234  0.2966  0.6734  1.0619
 5892TIP3    H239092   5.770   3.680   2.135  0.5083 -0.3515 -0.1684
 5893TIP3   OH239093   1.217   2.604  13.550  0.5183 -0.5072  0.2070
 5893TIP3    H139094   1.193   2.602  13.643 -0.1565 -0.4390  0.0404
 5893TIP3    H239095   1.146   2.651  13.508  1.2656  0.2531 -0.2305
 5894TIP3   OH239096   4.457   4.684   3.486  0.1536 -0.0530 -0.6035
 5894TIP3    H139097   4.517   4.754   3.511  1.8615 -1.6495 -0.0427
 5894TIP3    H239098   4.484   4.660   3.398  0.3135 -0.7448 -0.3672
 5895TIP3   OH239099   2.994   3.925  13.899  0.5900  0.1378 -0.0091
 5895TIP3    H139100   3.059   3.920  13.970 -0.3063  0.7631  0.8974
 5895TIP3    H239101   2.910   3.926  13.945 -0.0167  0.3295 -1.1063
 5896TIP3   OH239102   5.613   4.792  12.479 -0.1050 -0.4218 -0.1983
 5896TIP3    H139103   5.682   4.772  12.542 -1.1881 -2.9417  0.2963
 5896TIP3    H239104   5.642   4.751  12.398  0.0457  0.5409 -0.6422
 5897TIP3   OH239105   2.905   0.309   4.624 -0.5894 -0.3488  0.2412
 5897TIP3    H139106   2.998   0.324   4.605 -0.1015 -2.8669  0.2726
 5897TIP3    H239107   2.890   0.354   4.707  1.6500 -2.8939  2.1992
 5898TIP3   OH239108   4.058   6.067   4.942 -0.2598  0.3163 -0.0372
 5898TIP3    H139109   3.991   6.116   4.989  1.1242  1.9328  0.3249
 5898TIP3    H239110   4.009   5.999   4.896 -2.0420  0.8893  0.8996
 5899TIP3   OH239111   3.928   1.637  16.076 -0.0514 -1.1328 -0.1079
 5899TIP3    H139112   3.837   1.623  16.100 -0.0626 -1.0010 -0.0767
 5899TIP3    H239113   3.926   1.707  16.011  0.0823 -0.7172  0.3302
 5900TIP3   OH239114   3.855   3.994  11.903  0.0558 -0.1491  0.4751
 5900TIP3    H139115   3.829   4.030  11.819  0.4824  0.6066  0.6519
 5900TIP3    H239116   3.805   3.913  11.912  1.4778 -1.3315 -1.4151
 5901TIP3   OH239117   4.204   1.542   1.027 -0.2997 -0.1411 -0.0174
 5901TIP3    H139118   4.194   1.629   0.989  1.9574  0.4010  0.5151
 5901TIP3    H239119   4.124   1.530   1.079 -2.4238 -0.0109 -3.0158
 5902TIP3   OH239120   1.289   2.348  14.781  0.2944 -0.0079 -0.5789
 5902TIP3    H139121   1.362   2.391  14.737 -0.1494 -0.2824 -1.6048
 5902TIP3    H239122   1.253   2.288  14.716 -0.8376  0.1087 -0.0872
 5903TIP3   OH239123   3.548   2.637  12.679  0.5666  0.0679 -0.0133
 5903TIP3    H139124   3.473   2.687  12.710  0.9020  1.4718 -1.3363
 5903TIP3    H239125   3.596   2.614  12.758 -1.4355 -1.2609  0.9182
 5904TIP3   OH239126   1.540   5.505  16.899 -0.5251 -0.6339 -0.1220
 5904TIP3    H139127   1.615   5.466  16.944  0.2477 -0.0124 -0.8345
 5904TIP3    H239128   1.463   5.463  16.939  0.2056 -1.4945  0.4169
 5905TIP3   OH239129   0.692   5.225   0.211 -0.2041  0.0382  0.1811
 5905TIP3    H139130   0.679   5.231   0.117  1.6650  0.7096 -0.0968
 5905TIP3    H239131   0.779   5.186   0.221 -0.7416 -0.8652  1.6532
 5906TIP3   OH239132   6.302   1.849  16.714  0.4133  0.1388  0.1626
 5906TIP3    H139133   6.214   1.857  16.751  0.0513  0.1250 -0.6664
 5906TIP3    H239134   6.313   1.756  16.698  0.3315  0.2066 -0.3036
 5907TIP3   OH239135   5.171   1.621  17.113 -0.0679  0.4864 -0.3876
 5907TIP3    H139136   5.108   1.622  17.184  0.6785 -0.9992  0.3189
 5907TIP3    H239137   5.211   1.709  17.116 -0.4790  0.6533  0.6149
 5908TIP3   OH239138   1.554   4.238  12.115 -0.1190 -0.2594  0.4038
 5908TIP3    H139139   1.512   4.240  12.201 -0.4342  2.0550  0.2705
 5908TIP3    H239140   1.523   4.318  12.072 -0.9585 -1.9466 -2.3654
 5909TIP3   OH239141   0.114   4.387  12.231 -0.4656  0.7953  0.0951
 5909TIP3    H139142   0.041   4.442  12.258 -0.7197  0.8776 -0.7380
 5909TIP3    H239143   0.186   4.448  12.217 -0.0215  0.6509  1.5527
 5910TIP3   OH239144   1.548   0.940  11.837  0.3548  0.0618 -0.4086
 5910TIP3    H139145   1.559   0.984  11.753  0.5084 -0.3028 -0.5811
 5910TIP3    H239146   1.454   0.932  11.848  0.3157  0.6843 -0.2410
 5911TIP3   OH239147   4.284   1.161  12.187 -0.9076 -0.0295 -0.1874
 5911TIP3    H139148   4.276   1.246  12.229  2.0837  0.2597  0.0245
 5911TIP3    H239149   4.295   1.180  12.094  2.7576  0.1663  0.1659
 5912TIP3   OH239150   0.125   5.864  11.502 -0.2054 -0.1828  0.3902
 5912TIP3    H139151   0.172   5.808  11.563  0.3526  0.3654  0.4857
 5912TIP3    H239152   0.062   5.807  11.459  0.5446 -0.9399  0.2765
 5913TIP3   OH239153   3.511   5.223   1.817 -0.1988 -0.1557  0.1870
 5913TIP3    H139154   3.448   5.237   1.746 -0.0022 -0.3466 -0.0262
 5913TIP3    H239155   3.547   5.136   1.801 -0.5481 -0.4288  0.8343
 5914TIP3   OH239156   3.051   6.476  10.609  0.2723 -0.0203 -0.4298
 5914TIP3    H139157   3.143   6.452  10.598  0.1756 -1.9862  1.9895
 5914TIP3    H239158   3.054   6.553  10.666  0.5991 -2.7216  3.6893
 5915TIP3   OH239159   2.972   4.460   6.002 -0.1110  0.0460 -0.0293
 5915TIP3    H139160   3.066   4.453   6.022  0.2933  0.4529 -1.6502
 5915TIP3    H239161   2.938   4.372   6.017  0.7277 -0.3407 -0.3215
 5916TIP3   OH239162   3.283   5.731  13.781  0.2840 -0.1158  0.0308
 5916TIP3    H139163   3.216   5.666  13.802 -0.4116  0.7716  0.6646
 5916TIP3    H239164   3.234   5.805  13.745  0.9898  0.3324 -0.0273
 5917TIP3   OH239165   6.134   2.021   1.081 -0.3844 -0.1523  0.4645
 5917TIP3    H139166   6.120   2.021   1.175  0.3931 -0.6442  0.5854
 5917TIP3    H239167   6.184   2.101   1.064 -1.5756  0.5912  0.2860
 5918TIP3   OH239168   3.741   3.030   0.476  0.3734 -0.7511  0.2769
 5918TIP3    H139169   3.782   3.069   0.553  0.8493 -1.2851  0.2951
 5918TIP3    H239170   3.648   3.054   0.485  0.5969  0.1052  0.4472
 5919TIP3   OH239171   6.654   5.699  16.714  0.3100 -0.1197  0.2418
 5919TIP3    H139172   6.664   5.685  16.808 -2.9091  0.0650  0.7498
 5919TIP3    H239173   6.631   5.792  16.706 -1.6727 -0.6096 -0.3982
 5920TIP3   OH239174   2.103   6.121  12.460 -0.1905  0.0204 -0.0065
 5920TIP3    H139175   2.021   6.080  12.433  0.2041 -2.2248  1.9206
 5920TIP3    H239176   2.090   6.145  12.552  0.4190  2.2310 -0.4190
 5921TIP3   OH239177   2.925   4.024   5.067  0.0936  0.1522 -1.4176
 5921TIP3    H139178   2.990   4.031   5.136  1.3116  1.0534 -2.5916
 5921TIP3    H239179   2.942   3.939   5.026 -0.4153 -0.2372 -0.8359
 5922TIP3   OH239180   6.571   3.760   5.554 -0.1143 -0.0552 -0.3352
 5922TIP3    H139181   6.661   3.793   5.547 -0.4446  0.9181 -0.1336
 5922TIP3    H239182   6.531   3.781   5.470 -0.4254  0.3604 -0.0838
 5923TIP3   OH239183   2.762   1.765  11.964 -0.3056  0.0222 -0.8979
 5923TIP3    H139184   2.824   1.823  11.920  2.6775 -1.0731  1.4421
 5923TIP3    H239185   2.817   1.700  12.008 -2.9477 -0.0782  2.8158
 5924TIP3   OH239186   2.222   3.008  15.060  0.0733 -0.2987  1.0840
 5924TIP3    H139187   2.269   3.058  15.126  0.6734  0.7209 -0.0714
 5924TIP3    H239188   2.176   3.074  15.007  1.0963 -0.8899 -0.6412
 5925TIP3   OH239189   3.010   3.033   1.891  0.4313  0.4201 -0.5403
 5925TIP3    H139190   3.020   3.124   1.863  1.6158 -0.0302 -1.6743
 5925TIP3    H239191   2.917   3.024   1.912  0.5869  2.3317  1.2324
 5926TIP3   OH239192   3.506   1.330   1.754  0.2710 -0.0580  0.3881
 5926TIP3    H139193   3.469   1.244   1.732 -1.2044  1.0912 -1.9489
 5926TIP3    H239194   3.452   1.361   1.827 -0.5694 -0.2313 -0.1512
 5927TIP3   OH239195   4.110   5.161  15.676 -0.0837  0.3776  0.2358
 5927TIP3    H139196   4.064   5.083  15.644 -0.9706  0.6472  0.8271
 5927TIP3    H239197   4.175   5.126  15.737  0.5771 -0.0101 -0.6531
 5928TIP3   OH239198   4.112   3.478   1.502  0.3378  0.1376  0.1967
 5928TIP3    H139199   4.023   3.446   1.522 -0.1022  0.3335 -1.3373
 5928TIP3    H239200   4.123   3.462   1.409  2.1582 -0.3984  0.4656
 5929TIP3   OH239201   6.465   0.010  12.108  0.4240  0.3215  0.0123
 5929TIP3    H139202   6.440   0.074  12.041 -0.0592  0.6368  0.4826
 5929TIP3    H239203   6.512   0.061  12.174  3.0390 -0.3700 -1.1806
 5930TIP3   OH239204   0.100   0.153  16.925  0.0027 -0.5113  0.1085
 5930TIP3    H139205   0.064   0.240  16.907 -0.4024 -0.8433 -0.7395
 5930TIP3    H239206   0.031   0.093  16.896  0.8778 -1.1467 -0.6869
 5931TIP3   OH239207   3.565   2.116   2.032 -0.2842 -0.1019  0.0865
 5931TIP3    H139208   3.560   2.126   2.127 -0.0328 -0.0214  0.0908
 5931TIP3    H239209   3.634   2.177   2.005 -1.1046  0.6899 -0.2690
 5932TIP3   OH239210   1.848   6.205   0.884 -0.4033 -0.0845  0.4059
 5932TIP3    H139211   1.842   6.131   0.825  0.5395  1.1608 -1.3559
 5932TIP3    H239212   1.848   6.167   0.972  0.5425 -2.1831 -0.4505
 5933TIP3   OH239213   0.970   3.557  15.944  0.0044 -0.4100  0.2853
 5933TIP3    H139214   1.051   3.606  15.927 -0.4021  0.1548 -0.0554
 5933TIP3    H239215   0.912   3.620  15.985 -0.7862 -0.3859 -0.8247
 5934TIP3   OH239216   6.708   5.076  16.546 -0.2883 -0.2528  0.7009
 5934TIP3    H139217   6.713   5.161  16.501 -2.8852  0.1686  1.0445
 5934TIP3    H239218   6.786   5.074  16.601  1.7161  0.2894 -1.9210
 5935TIP3   OH239219   2.835   1.309   5.242 -0.3934 -0.0471 -0.7013
 5935TIP3    H139220   2.762   1.255   5.271 -0.2780 -0.2280 -0.7433
 5935TIP3    H239221   2.834   1.385   5.300 -1.1182  0.3556 -1.2365
 5936TIP3   OH239222   2.516   5.222  17.341 -0.6125  0.1087 -0.8386
 5936TIP3    H139223   2.568   5.176  17.275 -0.4726 -0.1211 -0.5689
 5936TIP3    H239224   2.482   5.299  17.295 -1.7412 -0.8137 -1.6167
 5937TIP3   OH239225   0.401   5.641   3.391 -0.4187 -0.4140  0.3831
 5937TIP3    H139226   0.390   5.704   3.320  0.7201  0.0158  0.5694
 5937TIP3    H239227   0.378   5.557   3.351 -2.5091  0.1506  0.2966
 5938TIP3   OH239228   4.916   4.568   1.966  0.2159  0.1202 -0.1495
 5938TIP3    H139229   4.833   4.573   2.014 -0.2211  0.1563 -0.8990
 5938TIP3    H239230   4.899   4.616   1.885  1.1989  0.7572  0.0104
 5939TIP3   OH239231   1.180   2.307  13.810  0.3455 -0.4739  0.1286
 5939TIP3    H139232   1.173   2.260  13.727 -3.1900  0.4308 -0.2307
 5939TIP3    H239233   1.186   2.399  13.786 -0.5961 -0.2059  0.8336
 5940TIP3   OH239234   3.851   1.925   3.405 -0.0788 -0.1626  0.0333
 5940TIP3    H139235   3.927   1.899   3.354 -0.1413  1.1511 -0.7935
 5940TIP3    H239236   3.791   1.851   3.398  1.4665 -1.6282  1.5236
 5941TIP3   OH239237   3.330   0.500   2.388 -0.3341  0.7566 -0.4649
 5941TIP3    H139238   3.324   0.525   2.480 -3.1544 -0.5650 -0.2055
 5941TIP3    H239239   3.376   0.574   2.346  0.9259  1.4217  1.9192
 5942TIP3   OH239240   4.949   3.102  13.571  0.2000  0.9001  0.0498
 5942TIP3    H139241   5.031   3.055  13.559  1.1019  1.6657  2.6741
 5942TIP3    H239242   4.881   3.036  13.556  1.1256  0.4896 -3.2097
 5943TIP3   OH239243   5.310   1.421   1.512 -0.0128 -0.5132 -0.1464
 5943TIP3    H139244   5.336   1.446   1.423  1.5053 -1.0633  0.1235
 5943TIP3    H239245   5.378   1.456   1.568  0.4604 -2.4459  0.5403
 5944TIP3   OH239246   4.314   6.700  13.880  0.1860 -0.1101 -0.2113
 5944TIP3    H139247   4.380   6.661  13.824  0.8755  1.1538 -0.3216
 5944TIP3    H239248   4.232   6.658  13.854  1.0249 -2.2656  0.4684
 5945TIP3   OH239249   0.753   4.465  11.036 -0.4574 -0.8604 -0.4269
 5945TIP3    H139250   0.705   4.502  10.962 -0.5938 -2.8865 -1.4178
 5945TIP3    H239251   0.705   4.495  11.114 -0.5903  0.8967 -1.1365
 5946TIP3   OH239252   2.688   0.945  14.530 -0.4444  0.3045 -0.0477
 5946TIP3    H139253   2.747   0.964  14.603  0.2932 -1.3891 -0.1558
 5946TIP3    H239254   2.727   0.991  14.456  1.0794 -1.1724 -0.2267
 5947TIP3   OH239255   0.035   2.542  14.915  0.6951  0.3296  0.2495
 5947TIP3    H139256  -0.016   2.462  14.930  0.2326  0.2285 -1.6429
 5947TIP3    H239257   0.120   2.524  14.956  1.0906 -1.7298 -1.3074
 5948TIP3   OH239258   3.891   5.850  14.582 -0.2196  0.3255  0.3921
 5948TIP3    H139259   3.878   5.936  14.620 -3.3445 -0.1139  0.5869
 5948TIP3    H239260   3.833   5.848  14.506 -3.6999 -2.9029  2.7613
 5949TIP3   OH239261   3.416   1.948  11.978 -0.3774  0.6015  0.5709
 5949TIP3    H139262   3.431   1.927  12.070  0.1015  1.2118  0.6400
 5949TIP3    H239263   3.504   1.954  11.940 -0.4964  1.8473  0.4308
 5950TIP3   OH239264   4.820   3.439  12.882 -0.7241  0.2255  0.2700
 5950TIP3    H139265   4.739   3.457  12.835 -1.4302 -1.3889  0.8185
 5950TIP3    H239266   4.814   3.347  12.908  1.6142 -0.1800 -0.3355
 5951TIP3   OH239267   2.554   6.491  10.206  0.1345 -0.0708 -0.1476
 5951TIP3    H139268   2.604   6.432  10.150  0.4720 -1.1349  1.2162
 5951TIP3    H239269   2.617   6.556  10.237  0.0988  0.1090 -0.4502
 5952TIP3   OH239270   0.193   3.458   2.562  0.1156  0.4390 -0.1012
 5952TIP3    H139271   0.181   3.495   2.650 -1.9616 -0.3326 -0.0026
 5952TIP3    H239272   0.241   3.526   2.514  0.2572  1.3676  1.2924
 5953TIP3   OH239273   0.476   4.639  13.898 -0.5156  0.1088 -0.0845
 5953TIP3    H139274   0.512   4.557  13.864  0.6329 -0.4097  2.2321
 5953TIP3    H239275   0.550   4.699  13.896 -1.3953  1.2401 -1.9478
 5954TIP3   OH239276   4.171   1.990  16.624 -0.1623 -0.6721 -0.6561
 5954TIP3    H139277   4.159   1.947  16.709 -0.3913 -0.0691 -0.3793
 5954TIP3    H239278   4.159   2.083  16.642  0.7766 -0.4313 -1.1565
 5955TIP3   OH239279   4.738   4.943   2.810 -0.3944  0.0758  0.2502
 5955TIP3    H139280   4.674   4.889   2.856 -0.2288  0.0310  0.4241
 5955TIP3    H239281   4.693   5.027   2.798 -0.5661 -0.0259  0.1797
 5956TIP3   OH239282   0.597   2.142  12.056  0.2792 -0.2093  0.6257
 5956TIP3    H139283   0.540   2.208  12.096  1.7639  1.9618 -0.6173
 5956TIP3    H239284   0.613   2.079  12.125 -0.7327  1.0598  2.0841
 5957TIP3   OH239285   5.226   4.359  12.712 -0.0172 -0.2239  0.0731
 5957TIP3    H139286   5.313   4.328  12.735  0.0885 -0.1528 -0.2211
 5957TIP3    H239287   5.202   4.419  12.782  0.5698  0.4943 -0.3277
 5958TIP3   OH239288   3.535   4.910   0.398 -0.2779  0.1430  0.4552
 5958TIP3    H139289   3.446   4.886   0.426 -0.1578  0.3633  1.0359
 5958TIP3    H239290   3.524   4.998   0.361 -0.3083  0.1547  0.4914
 5959TIP3   OH239291   1.257   0.838   2.985 -0.2644 -0.0168  0.6149
 5959TIP3    H139292   1.162   0.848   2.981 -0.2188  0.0618 -0.8355
 5959TIP3    H239293   1.292   0.926   2.975 -0.0407 -0.1426  0.2313
 5960TIP3   OH239294   0.173   4.332   4.683  0.1227 -0.4198  0.4412
 5960TIP3    H139295   0.129   4.363   4.762 -1.1855 -1.2867  0.0830
 5960TIP3    H239296   0.149   4.239   4.677  2.3553 -1.0680  0.4491
 5961TIP3   OH239297   4.161   6.573  16.936 -0.2279 -0.1622  0.0578
 5961TIP3    H139298   4.219   6.577  16.860  1.0636  0.6400  1.0536
 5961TIP3    H239299   4.128   6.662  16.946 -0.4518 -0.2840  0.4026
 5962TIP3   OH239300   4.376   6.435  17.038  0.1072  0.1590  0.3418
 5962TIP3    H139301   4.297   6.483  17.013  0.9631  0.7263 -1.4821
 5962TIP3    H239302   4.448   6.495  17.017  1.0911 -0.9264  0.5017
 5963TIP3   OH239303   6.636   0.948  12.502  0.1529  0.3028 -0.0231
 5963TIP3    H139304   6.693   0.970  12.429  0.3300 -1.9155 -0.6229
 5963TIP3    H239305   6.561   0.902  12.462  1.5122 -3.4129  1.2215
 5964TIP3   OH239306   3.771   6.576  17.579  0.0543  0.2211 -0.4451
 5964TIP3    H139307   3.770   6.497  17.525 -1.1851  0.4064 -0.7308
 5964TIP3    H239308   3.810   6.643  17.524 -0.8476  0.3124 -0.9906
 5965TIP3   OH239309   2.963   6.498   1.916 -0.5099  0.6049  0.1945
 5965TIP3    H139310   2.943   6.485   2.009  1.3837  0.8909  0.6972
 5965TIP3    H239311   3.040   6.443   1.901  0.2933  1.9097 -0.7121
 5966TIP3   OH239312   0.442   2.441   4.927 -0.0324 -0.1045  0.3737
 5966TIP3    H139313   0.395   2.438   5.010  0.2126 -0.2974  0.5068
 5966TIP3    H239314   0.374   2.444   4.861 -0.2511  1.2992  0.6144
 5967TIP3   OH239315   1.686   0.358   5.931 -0.6222  0.1367  0.2405
 5967TIP3    H139316   1.592   0.371   5.935 -0.6483 -0.0739  0.2945
 5967TIP3    H239317   1.705   0.340   5.839 -0.8015 -1.1006  0.4265
 5968TIP3   OH239318   1.356   2.765  14.208  0.0941  0.3810 -0.1064
 5968TIP3    H139319   1.436   2.813  14.188  0.8749 -0.0534  1.7679
 5968TIP3    H239320   1.382   2.673  14.204  0.0462  0.2606  1.7843
 5969TIP3   OH239321   2.057   2.723  13.269 -0.1610 -0.1732  0.4314
 5969TIP3    H139322   2.010   2.801  13.241  1.4462  1.3745  1.7533
 5969TIP3    H239323   2.128   2.713  13.205  0.9589  0.8321  1.4577
 5970TIP3   OH239324   5.147   3.547  14.557 -0.2098  0.1696 -0.1740
 5970TIP3    H139325   5.203   3.549  14.480 -0.8473 -0.0040 -0.6538
 5970TIP3    H239326   5.099   3.464  14.549  0.0403 -0.0658  0.6448
 5971TIP3   OH239327   5.102   5.623  16.009 -0.0784  0.2554 -0.2750
 5971TIP3    H139328   5.024   5.568  16.015  0.7527 -0.8865  0.8137
 5971TIP3    H239329   5.144   5.614  16.095  0.9244  1.3367 -0.6198
 5972TIP3   OH239330   4.191   1.155   1.373 -0.1272 -0.3115 -0.3626
 5972TIP3    H139331   4.214   1.248   1.369 -1.3956 -0.0234 -1.3843
 5972TIP3    H239332   4.224   1.126   1.459  2.5928  0.4080 -1.0552
 5973TIP3   OH239333   2.257   0.107  13.149 -0.3800  0.1088  0.4642
 5973TIP3    H139334   2.214   0.088  13.066  0.9368 -2.7454  0.3358
 5973TIP3    H239335   2.325   0.171  13.127  0.0246 -0.6931 -0.6993
 5974TIP3   OH239336   6.606   3.634   2.780 -0.5615  0.5120 -0.4119
 5974TIP3    H139337   6.590   3.658   2.689  0.5092  2.9871 -0.0429
 5974TIP3    H239338   6.698   3.607   2.782 -0.7560 -0.1563 -0.1593
 5975TIP3   OH239339   3.356   2.661  16.296  0.1983 -0.2978 -0.4577
 5975TIP3    H139340   3.427   2.663  16.231  0.8382 -0.4569  0.2136
 5975TIP3    H239341   3.333   2.753  16.309  0.1249 -0.2604 -0.8515
 5976TIP3   OH239342   2.723   6.062   6.214  0.2318 -0.3683  0.3741
 5976TIP3    H139343   2.723   6.100   6.126  0.9237  0.8927  0.8872
 5976TIP3    H239344   2.807   6.088   6.251 -0.1293 -0.7182  1.4826
 5977TIP3   OH239345   4.903   4.459  13.487  0.5673 -0.0812 -0.1833
 5977TIP3    H139346   4.989   4.445  13.447  0.5035 -0.2059 -0.2761
 5977TIP3    H239347   4.840   4.429  13.422  0.4721 -0.4531  0.0775
 5978TIP3   OH239348   2.654   2.466   5.896  0.0345  0.4103 -0.0376
 5978TIP3    H139349   2.674   2.519   5.973  0.6720  0.6173 -0.3341
 5978TIP3    H239350   2.737   2.424   5.874 -0.2108  0.1336 -0.4439
 5979TIP3   OH239351   0.135   1.935  12.490 -0.1651 -0.0406 -0.7904
 5979TIP3    H139352   0.083   1.963  12.566  0.8188  0.4155 -0.2737
 5979TIP3    H239353   0.170   1.850  12.515 -2.0914 -1.2191 -1.8532
 5980TIP3   OH239354   0.527   2.625   6.185 -0.6886  0.4234  0.5598
 5980TIP3    H139355   0.480   2.704   6.211 -0.6056  0.9569 -0.8357
 5980TIP3    H239356   0.459   2.560   6.171 -0.7511  0.2016  1.8183
 5981TIP3   OH239357   2.787   2.813  17.460 -0.1426  0.0008 -0.0674
 5981TIP3    H139358   2.758   2.753  17.529  0.2861 -0.2025 -0.0601
 5981TIP3    H239359   2.840   2.878  17.506 -0.1232  0.0487 -0.1572
 5982TIP3   OH239360   4.530   1.601  11.387  0.5798 -0.3192  0.3966
 5982TIP3    H139361   4.566   1.533  11.330 -0.0287 -0.5350  0.2656
 5982TIP3    H239362   4.437   1.580  11.395  0.3649  0.5343  0.3019
 5983TIP3   OH239363   4.057   3.208  16.709  0.0490  0.0059 -0.3323
 5983TIP3    H139364   4.143   3.249  16.698  0.0311  0.1727  0.1077
 5983TIP3    H239365   4.076   3.114  16.716  0.0768 -0.0944 -1.4906
 5984TIP3   OH239366   5.615   4.163   1.465  0.2915 -0.4393  0.4053
 5984TIP3    H139367   5.661   4.234   1.419 -0.7845 -0.3176 -0.5126
 5984TIP3    H239368   5.590   4.202   1.549  1.8231 -0.5095  0.9423
 5985TIP3   OH239369   3.267   3.262  12.613  0.0932 -0.0721 -0.4207
 5985TIP3    H139370   3.281   3.301  12.527  0.0803  0.5601 -0.1458
 5985TIP3    H239371   3.172   3.247  12.617 -0.4511  2.8314  0.6477
 5986TIP3   OH239372   3.784   3.740  13.300  0.0406 -0.1301  0.0835
 5986TIP3    H139373   3.811   3.679  13.369 -1.5523  0.2858  1.1192
 5986TIP3    H239374   3.800   3.827  13.336  0.7763  0.0919 -0.7505
 5987TIP3   OH239375   6.020   3.540   1.574 -0.8865 -0.0087  0.2317
 5987TIP3    H139376   6.090   3.600   1.601  0.9806 -0.6284 -2.7042
 5987TIP3    H239377   6.045   3.456   1.612  0.0057 -0.2043 -0.7174
 5988TIP3   OH239378   3.527   0.222  16.829  0.3775  0.3210  0.5048
 5988TIP3    H139379   3.443   0.260  16.804  1.1879  2.0964  0.3378
 5988TIP3    H239380   3.565   0.193  16.746  0.1371 -0.1106  0.5375
 5989TIP3   OH239381   1.930   2.561  16.394  0.5668 -0.2929 -0.8234
 5989TIP3    H139382   1.950   2.502  16.467  0.8136  0.0590 -0.6056
 5989TIP3    H239383   1.847   2.601  16.418 -0.4292 -1.7347 -1.7199
 5990TIP3   OH239384   4.007   1.596  10.829  0.2375  0.1405  0.0956
 5990TIP3    H139385   3.998   1.630  10.918  0.1697  0.3167  0.0219
 5990TIP3    H239386   4.068   1.523  10.837 -1.1623 -1.0162  0.5926
 5991TIP3   OH239387   5.416   4.835   2.806  0.1813  0.6958  0.1396
 5991TIP3    H139388   5.424   4.915   2.753  1.5942  0.9518  0.6987
 5991TIP3    H239389   5.491   4.781   2.779  0.6095  0.6004  1.4820
 5992TIP3   OH239390   3.160   6.360  11.032 -0.0198  0.1843  0.0425
 5992TIP3    H139391   3.206   6.327  10.955 -0.2997  0.5350 -0.2823
 5992TIP3    H239392   3.226   6.364  11.101  0.4419  0.7069 -0.4233
 5993TIP3   OH239393   5.759   4.519  15.187  0.4011 -0.3525  0.0375
 5993TIP3    H139394   5.736   4.544  15.277 -0.0815 -1.1855  0.1596
 5993TIP3    H239395   5.693   4.560  15.133  0.1688 -0.5724  0.1509
 5994TIP3   OH239396   1.975   1.499   3.449  0.0072  0.6711 -0.3251
 5994TIP3    H139397   2.025   1.418   3.461 -0.5096  0.4554  0.4837
 5994TIP3    H239398   1.898   1.472   3.398  0.2086  0.8028 -0.7002
 5995TIP3   OH239399   6.508   3.594  12.269 -0.1287  0.3953  0.2020
 5995TIP3    H139400   6.593   3.622  12.304  0.4371 -0.5859 -0.3214
 5995TIP3    H239401   6.443   3.636  12.325  0.7208  0.3013  1.2916
 5996TIP3   OH239402   0.415   1.138  11.299 -0.5942  0.5594 -0.3605
 5996TIP3    H139403   0.374   1.073  11.241 -0.0292  1.0868 -1.3763
 5996TIP3    H239404   0.483   1.090  11.345 -0.8582  0.1986 -0.3443
 5997TIP3   OH239405   1.753   1.258   1.697 -0.3554 -0.4293  0.0464
 5997TIP3    H139406   1.706   1.176   1.717  0.2710 -1.1426 -1.2673
 5997TIP3    H239407   1.686   1.326   1.703 -1.6648 -1.4604 -2.0413
 5998TIP3   OH239408   3.084   0.555   3.602 -0.2380 -0.1450  0.1537
 5998TIP3    H139409   3.069   0.549   3.508  0.5527 -0.5049  0.0438
 5998TIP3    H239410   3.009   0.510   3.641  1.5674 -4.0103 -0.4377
 5999TIP3   OH239411   1.082   2.431   2.080 -0.2635  0.6442  0.5090
 5999TIP3    H139412   1.145   2.405   2.148 -0.7256 -0.5657  0.4950
 5999TIP3    H239413   1.096   2.525   2.069  2.3316  0.2410 -0.2985
 6000TIP3   OH239414   0.246   1.210  16.060 -0.2447  0.4718 -0.7091
 6000TIP3    H139415   0.265   1.117  16.045  0.6050  0.3518  0.8381
 6000TIP3    H239416   0.151   1.214  16.069 -0.2558 -0.3201 -0.3778
 6001TIP3   OH239417   1.637   4.902  12.872  0.1585  0.1054 -0.0615
 6001TIP3    H139418   1.605   4.925  12.785 -0.1600 -2.1065 -0.5826
 6001TIP3    H239419   1.729   4.881  12.859  0.0904 -0.3102  0.1273
 6002TIP3   OH239420   1.914   6.419   4.316  0.0348 -0.6888  0.1388
 6002TIP3    H139421   1.885   6.439   4.228  1.5295 -2.0009 -0.7147
 6002TIP3    H239422   1.864   6.342   4.341 -1.0287  0.1956  0.8273
 6003TIP3   OH239423   1.954   3.518   0.004 -1.2399 -0.4163 -0.0884
 6003TIP3    H139424   2.044   3.504   0.034 -1.5307 -0.5040  0.7858
 6003TIP3    H239425   1.963   3.560  -0.081 -0.3674  1.1586  0.7373
 6004TIP3   OH239426   4.196   6.058  13.847 -0.1911 -0.1505 -0.2291
 6004TIP3    H139427   4.139   5.983  13.832  0.6781 -0.9616  0.3679
 6004TIP3    H239428   4.245   6.036  13.926 -0.5849  1.4740  0.5316
 6005TIP3   OH239429   6.025   4.955  11.261 -0.7217  0.5011  0.5982
 6005TIP3    H139430   5.952   5.000  11.303 -0.4381  1.1437  0.4083
 6005TIP3    H239431   6.096   5.019  11.260 -0.5833  0.3610 -0.4566
 6006TIP3   OH239432   1.149   0.602  13.158 -0.4001 -0.0680  0.7921
 6006TIP3    H139433   1.073   0.580  13.104 -0.9699  2.4142  0.4740
 6006TIP3    H239434   1.119   0.589  13.248 -0.5133 -1.0730  0.6154
 6007TIP3   OH239435   3.071   4.271  15.141 -0.4242  0.2134  0.4020
 6007TIP3    H139436   3.112   4.209  15.201 -0.2928  0.5381  0.6494
 6007TIP3    H239437   3.026   4.216  15.076  1.1217 -0.1580 -0.3958
 6008TIP3   OH239438   3.278   1.531  16.510  0.2388 -0.2383 -0.0737
 6008TIP3    H139439   3.229   1.590  16.567  1.1812  0.7981 -0.3074
 6008TIP3    H239440   3.220   1.455  16.498 -1.2343  0.8764 -0.2272
 6009TIP3   OH239441   6.377   1.493  13.034 -0.0133  0.0555  0.6132
 6009TIP3    H139442   6.472   1.483  13.023 -0.3225 -1.7620 -1.0218
 6009TIP3    H239443   6.342   1.405  13.023 -1.8912  0.6108  1.6393
 6010TIP3   OH239444   3.743   3.206  14.195  0.1248  0.4076  0.1630
 6010TIP3    H139445   3.833   3.233  14.209 -0.1008  0.6843  1.2124
 6010TIP3    H239446   3.742   3.113  14.219  0.2327  0.2805 -0.3245
 6011TIP3   OH239447   0.985   5.946   5.598  0.3756  0.3088  0.1341
 6011TIP3    H139448   1.056   5.894   5.561 -0.4002 -1.3484  0.8635
 6011TIP3    H239449   1.005   5.950   5.692  0.4799  1.4602  0.0756
 6012TIP3   OH239450   4.584   1.000   0.296 -0.6869  0.1865  0.4151
 6012TIP3    H139451   4.600   0.907   0.312 -2.0423  0.0747  1.2647
 6012TIP3    H239452   4.645   1.046   0.355 -0.3385 -0.1590  0.3265
 6013TIP3   OH239453   0.195   0.130   6.208 -0.7112  0.5740  0.0845
 6013TIP3    H139454   0.228   0.166   6.126 -0.9168  0.4243 -0.0651
 6013TIP3    H239455   0.117   0.183   6.227 -0.3065  1.0266  0.5147
 6014TIP3   OH239456   0.576   2.537  14.454 -0.2485 -0.5160  0.0994
 6014TIP3    H139457   0.602   2.463  14.400 -0.5348 -1.7198  1.5340
 6014TIP3    H239458   0.600   2.614  14.403  0.6182 -1.5908 -1.1786
 6015TIP3   OH239459   2.744   2.348   1.946 -0.4375 -0.0931  0.1927
 6015TIP3    H139460   2.783   2.401   1.876 -0.4939  0.4036  0.5288
 6015TIP3    H239461   2.811   2.283   1.967  0.1493  0.6453  0.6475
 6016TIP3   OH239462   3.646   0.786   5.356  1.1363 -0.6095 -0.4508
 6016TIP3    H139463   3.690   0.813   5.275  0.7713 -1.0052 -0.7872
 6016TIP3    H239464   3.661   0.858   5.417  1.0879 -0.1346 -0.9916
 6017TIP3   OH239465   2.415   6.075  16.171 -0.1695 -0.0632  0.0233
 6017TIP3    H139466   2.397   6.101  16.261  0.8115 -0.7953  0.4434
 6017TIP3    H239467   2.386   5.984  16.166 -0.9036  0.1941 -0.6217
 6018TIP3   OH239468   1.203   0.365  16.750  0.3826  0.0414 -0.5307
 6018TIP3    H139469   1.288   0.320  16.744 -1.2890 -3.1392 -2.7382
 6018TIP3    H239470   1.172   0.369  16.660 -1.0561  2.8824  0.0075
 6019TIP3   OH239471   1.445   3.099  10.449  0.1459 -0.2262  0.4451
 6019TIP3    H139472   1.439   3.015  10.404  0.3645  1.0481 -2.1630
 6019TIP3    H239473   1.359   3.112  10.488 -1.7324  0.5123 -3.4851
 6020TIP3   OH239474   4.188   2.409   2.803  0.2260 -0.7020 -0.5066
 6020TIP3    H139475   4.272   2.439   2.768 -0.2082  0.8187 -0.3192
 6020TIP3    H239476   4.188   2.440   2.894 -0.9182  0.1716 -0.7836
 6021TIP3   OH239477   2.431   3.661   3.544  0.9472 -0.1776 -0.2186
 6021TIP3    H139478   2.354   3.628   3.590 -0.1104 -0.7761 -2.3065
 6021TIP3    H239479   2.422   3.756   3.547 -0.7488 -0.2377 -1.7443
 6022TIP3   OH239480   3.820   5.899  16.462 -0.0631 -0.3850  0.0836
 6022TIP3    H139481   3.900   5.855  16.491 -0.5746 -0.8518  0.7876
 6022TIP3    H239482   3.819   5.981  16.512  0.2432 -0.1321 -0.3152
 6023TIP3   OH239483   2.005   5.116  11.946  0.2972  0.2014  0.1876
 6023TIP3    H139484   2.006   5.136  11.852 -0.7007  0.4034  0.2081
 6023TIP3    H239485   2.057   5.186  11.986 -0.0970  0.6755 -0.1205
 6024TIP3   OH239486   2.360   3.139   1.373 -0.0953  0.1650  0.1378
 6024TIP3    H139487   2.364   3.233   1.359 -0.9269  0.6099  2.4041
 6024TIP3    H239488   2.267   3.117   1.365  0.2820 -0.8624 -2.2584
 6025TIP3   OH239489   0.207   0.024  10.560 -0.5739 -0.2556 -0.7589
 6025TIP3    H139490   0.171   0.112  10.542 -0.1064  0.3594  1.1210
 6025TIP3    H239491   0.301   0.034  10.546 -0.4602 -0.3039 -0.0772
 6026TIP3   OH239492   1.600   1.004  16.851  0.4396  0.1784  0.4284
 6026TIP3    H139493   1.630   1.066  16.918 -0.8842  1.0323  0.2708
 6026TIP3    H239494   1.537   0.947  16.897 -2.0590  2.0518 -0.4392
 6027TIP3   OH239495   1.703   6.214  13.285  0.0270 -0.2259  0.0637
 6027TIP3    H139496   1.740   6.284  13.232  0.2600 -0.1660  0.3017
 6027TIP3    H239497   1.719   6.241  13.375  0.6233 -0.8457  0.1573
 6028TIP3   OH239498   0.764   2.891   2.864  0.2300 -0.8808  0.0172
 6028TIP3    H139499   0.748   2.959   2.799 -0.2097 -0.0846  0.9216
 6028TIP3    H239500   0.677   2.875   2.902  0.1052 -2.8125 -0.9869
 6029TIP3   OH239501   2.952   2.232   0.316  0.2145 -0.5255 -0.6132
 6029TIP3    H139502   2.949   2.308   0.375  1.1135 -0.4086 -0.7053
 6029TIP3    H239503   2.996   2.164   0.367  1.2380 -0.3381 -1.2316
 6030TIP3   OH239504   5.693   5.165   5.064  0.1040  0.1480  0.2374
 6030TIP3    H139505   5.716   5.239   5.120  1.9622 -0.9690  1.0592
 6030TIP3    H239506   5.609   5.133   5.099  0.1028  0.8683  0.9104
 6031TIP3   OH239507   3.716   1.634  11.839  0.2147  0.0156  0.5027
 6031TIP3    H139508   3.725   1.600  11.928  0.5147 -1.6169 -0.1173
 6031TIP3    H239509   3.644   1.584  11.801  1.2763 -0.6510 -0.7409
 6032TIP3   OH239510   6.074   1.575   0.358 -0.3124  0.1921  0.1575
 6032TIP3    H139511   6.054   1.591   0.266 -0.6146  1.7768  0.4683
 6032TIP3    H239512   6.000   1.615   0.405 -0.0674 -0.4355  1.0983
 6033TIP3   OH239513   2.266   6.647   1.947 -0.1550 -0.3575 -0.7919
 6033TIP3    H139514   2.226   6.654   2.033 -0.1695  1.5860 -0.9241
 6033TIP3    H239515   2.359   6.638   1.964  0.0454  1.6978 -0.5384
 6034TIP3   OH239516   2.447   0.009  15.721 -0.1070 -0.0031 -0.0117
 6034TIP3    H139517   2.488  -0.077  15.709 -0.6402  0.0767 -3.0703
 6034TIP3    H239518   2.361  -0.012  15.760  0.4512 -0.6529  0.9255
 6035TIP3   OH239519   2.584   2.635   4.003  0.2114 -0.2610  0.2282
 6035TIP3    H139520   2.567   2.587   3.922 -1.0251  0.2721  0.1544
 6035TIP3    H239521   2.499   2.638   4.048  0.3998  1.2803  0.5313
 6036TIP3   OH239522   3.569   2.392  13.402  0.1846 -0.0600 -0.0919
 6036TIP3    H139523   3.573   2.487  13.409  1.4952 -0.1154  0.2640
 6036TIP3    H239524   3.476   2.371  13.408 -0.0525  1.1301  0.7626
 6037TIP3   OH239525   2.566   4.221  11.626 -0.3514 -0.2552  0.3930
 6037TIP3    H139526   2.634   4.279  11.662 -0.1520  0.8778 -1.6813
 6037TIP3    H239527   2.610   4.137  11.613  0.5997  0.3872 -0.6691
 6038TIP3   OH239528   1.776   4.905  15.113 -0.0667  0.7088  0.0771
 6038TIP3    H139529   1.726   4.825  15.097 -0.1039  0.5403  0.9377
 6038TIP3    H239530   1.864   4.875  15.136  0.5832  1.0252 -1.8748
 6039TIP3   OH239531   6.587   1.819  14.981  0.0095 -0.1463 -0.6625
 6039TIP3    H139532   6.542   1.783  14.905 -1.0777 -0.8606  0.2773
 6039TIP3    H239533   6.616   1.906  14.953  0.4922 -0.7648 -2.1827
 6040TIP3   OH239534   6.049   6.675  15.220  0.6735  0.4506  0.4278
 6040TIP3    H139535   6.034   6.732  15.144 -2.0239 -0.0785  0.4645
 6040TIP3    H239536   6.092   6.733  15.284 -0.9484  2.1815  0.0533
 6041TIP3   OH239537   3.917   5.665   4.959  0.0130 -0.5408  0.3955
 6041TIP3    H139538   3.916   5.759   4.941 -0.4531 -0.6714 -0.3204
 6041TIP3    H239539   3.904   5.659   5.054  0.4013  0.1212  0.5023
 6042TIP3   OH239540   6.609   4.379  16.986  0.0494  0.7345  0.6712
 6042TIP3    H139541   6.654   4.409  17.066  0.4451 -0.3695  0.8802
 6042TIP3    H239542   6.519   4.360  17.015  0.1905  0.3404  0.8663
 6043TIP3   OH239543   6.279   3.497  11.418 -0.0826  0.4849 -0.6365
 6043TIP3    H139544   6.201   3.511  11.365  0.2697 -0.0369 -1.3240
 6043TIP3    H239545   6.335   3.573  11.398 -0.4181  0.8670 -0.1305
 6044TIP3   OH239546   6.222   2.975  16.820  0.0790  0.0878 -0.2200
 6044TIP3    H139547   6.130   2.951  16.831  0.2886 -0.5503  0.2282
 6044TIP3    H239548   6.223   3.070  16.826 -0.7933  0.2627 -2.1276
 6045TIP3   OH239549   3.167   2.573  14.098 -0.1800 -0.3304 -0.4367
 6045TIP3    H139550   3.178   2.650  14.043  0.5304 -0.4707 -0.5066
 6045TIP3    H239551   3.229   2.586  14.170  1.1470 -1.5691 -1.2839
 6046TIP3   OH239552   1.134   3.104   2.907  0.0283  0.1722  0.2664
 6046TIP3    H139553   1.076   3.109   2.831  0.0673 -2.7061 -0.0619
 6046TIP3    H239554   1.219   3.133   2.874  0.4756 -2.6642 -1.4025
 6047TIP3   OH239555   6.506   5.348  15.876  0.2754  0.8554  0.6144
 6047TIP3    H139556   6.417   5.337  15.844  0.6387  1.3857 -0.6437
 6047TIP3    H239557   6.549   5.402  15.810  1.4312  0.9180  1.3791
 6048TIP3   OH239558   5.202   6.536  12.201  0.6632  0.4521 -0.1458
 6048TIP3    H139559   5.211   6.627  12.173 -2.1102  0.3697 -1.6912
 6048TIP3    H239560   5.123   6.535  12.254 -0.6482 -1.3418 -1.9745
 6049TIP3   OH239561   2.046   4.801  11.107 -0.5184  0.7894  0.4966
 6049TIP3    H139562   2.000   4.763  11.183 -1.1793  0.7245  0.0706
 6049TIP3    H239563   2.103   4.867  11.145 -1.3183  1.2047  1.0036
 6050TIP3   OH239564   2.249   2.793  11.593  0.0510 -0.4753  0.4263
 6050TIP3    H139565   2.158   2.798  11.623  0.3449 -0.6972  1.3949
 6050TIP3    H239566   2.248   2.725  11.526 -0.4744 -0.5864  0.5402
 6051TIP3   OH239567   0.246   5.047   3.888 -0.3050  0.1815  0.4563
 6051TIP3    H139568   0.223   5.041   3.981  0.3640  0.7777  0.6719
 6051TIP3    H239569   0.305   5.122   3.883 -0.4068  0.2112 -0.4697
 6052TIP3   OH239570   1.476   0.341  12.766  0.4145  0.1640  0.5683
 6052TIP3    H139571   1.436   0.298  12.691 -1.3536  0.0995  1.5017
 6052TIP3    H239572   1.519   0.271  12.814  1.1545  0.1329 -0.1253
 6053TIP3   OH239573   0.261   6.126   1.068 -0.0208  0.4848  0.0740
 6053TIP3    H139574   0.315   6.168   1.135  0.4865 -1.7773  1.1887
 6053TIP3    H239575   0.275   6.033   1.082 -1.7573 -0.0971 -1.7075
 6054TIP3   OH239576   1.474   1.086  17.560  0.0331  0.3886 -0.5865
 6054TIP3    H139577   1.570   1.078  17.562  0.1338  0.9671 -1.9371
 6054TIP3    H239578   1.453   1.096  17.467 -1.4419 -0.7526 -0.4034
 6055TIP3   OH239579   3.820   1.284  14.733  0.0299 -0.0072  0.0140
 6055TIP3    H139580   3.880   1.342  14.686  1.4344 -1.1083  0.3640
 6055TIP3    H239581   3.747   1.341  14.759  0.2869  1.0952 -1.5346
 6056TIP3   OH239582   0.782   5.610  16.802  0.4698  1.0336  0.5178
 6056TIP3    H139583   0.777   5.516  16.784  1.1454  0.4236  3.0058
 6056TIP3    H239584   0.842   5.644  16.736  0.2158 -0.2753 -0.4393
 6057TIP3   OH239585   5.905   4.701  15.400 -0.1227 -0.0794  0.7811
 6057TIP3    H139586   5.849   4.720  15.475  0.9088  2.1094  1.0824
 6057TIP3    H239587   5.931   4.610  15.411 -2.3599 -0.6861  1.4419
 6058TIP3   OH239588   4.529   4.633   1.788 -0.3123  0.1474  0.2507
 6058TIP3    H139589   4.529   4.729   1.794 -0.0487  0.0947  1.5640
 6058TIP3    H239590   4.450   4.612   1.739 -0.3988  1.0407 -0.0146
 6059TIP3   OH239591   4.666   2.663   2.263 -0.3207  0.0637 -0.0141
 6059TIP3    H139592   4.727   2.695   2.330  0.0967  0.1869 -0.4540
 6059TIP3    H239593   4.679   2.569   2.261  1.2410  0.2693 -1.4427
 6060TIP3   OH239594   3.570   2.217  12.605  0.3754 -0.4072  0.1800
 6060TIP3    H139595   3.660   2.219  12.574  0.4326 -0.7353  0.3241
 6060TIP3    H239596   3.517   2.215  12.526  0.4970 -0.2985  0.0959
 6061TIP3   OH239597   6.379   1.767   0.358  0.1963  0.3000  0.5929
 6061TIP3    H139598   6.316   1.733   0.294  1.1906 -2.0024  0.7666
 6061TIP3    H239599   6.368   1.711   0.435  2.6725 -0.4052  0.4999
 6062TIP3   OH239600   5.281   0.505  15.991  0.2681 -0.5909  0.6175
 6062TIP3    H139601   5.268   0.424  16.040 -0.3427 -0.8423  0.0498
 6062TIP3    H239602   5.193   0.532  15.964  0.5179 -0.0348  0.3324
 6063TIP3   OH239603   1.254   2.233   0.490  0.5398 -0.3644  0.0370
 6063TIP3    H139604   1.179   2.182   0.459  0.2111 -0.7956  1.4607
 6063TIP3    H239605   1.301   2.173   0.549  1.5084  0.1979 -0.1340
 6064TIP3   OH239606   0.222   1.575  16.458  0.0442  0.1544  0.6315
 6064TIP3    H139607   0.270   1.529  16.526 -0.2245  0.5486  1.0887
 6064TIP3    H239608   0.147   1.613  16.502 -0.5706 -0.2540 -0.0343
 6065TIP3   OH239609   3.253   3.807   0.239  0.2182  1.0365 -0.0731
 6065TIP3    H139610   3.289   3.878   0.293 -0.2310  1.5963 -0.5009
 6065TIP3    H239611   3.204   3.852   0.170 -1.7418  0.3015  0.7716
 6066TIP3   OH239612   4.049   6.329  11.470  0.8392  0.2742  0.4393
 6066TIP3    H139613   4.111   6.361  11.405 -0.6641  3.2824  0.3010
 6066TIP3    H239614   3.973   6.300  11.418  0.8395 -0.2686  0.7380
 6067TIP3   OH239615   3.010   1.269  14.337 -0.3092 -0.5230  0.1670
 6067TIP3    H139616   2.998   1.232  14.249 -0.6888 -0.5252  0.2207
 6067TIP3    H239617   2.981   1.360  14.329  0.4289 -0.2883  0.0878
 6068TIP3   OH239618   2.547   2.484  15.826  0.6277 -0.1024 -0.0364
 6068TIP3    H139619   2.605   2.425  15.874  0.3889  2.0343  3.1964
 6068TIP3    H239620   2.593   2.503  15.745  1.4615 -3.3023 -0.4415
 6069TIP3   OH239621   3.355   6.282  15.059  0.0812  0.1271 -0.1399
 6069TIP3    H139622   3.360   6.366  15.105 -1.7319  0.0574  0.2511
 6069TIP3    H239623   3.323   6.305  14.972 -2.0958 -0.2644  0.4949
 6070TIP3   OH239624   4.654   1.413   4.787  0.1772 -0.1023 -0.4485
 6070TIP3    H139625   4.626   1.415   4.878 -0.9624 -0.9658 -0.7613
 6070TIP3    H239626   4.625   1.497   4.751 -0.0290 -0.0713 -0.2076
 6071TIP3   OH239627   1.413   4.894  13.547 -0.2039 -0.3783 -0.3392
 6071TIP3    H139628   1.384   4.805  13.526 -1.3051 -0.7380  2.3453
 6071TIP3    H239629   1.486   4.882  13.608  0.1423  0.5912 -0.5427
 6072TIP3   OH239630   1.787   4.204   0.057  0.0055 -0.0456 -0.7024
 6072TIP3    H139631   1.837   4.244  -0.015  0.3842  1.2363  0.2418
 6072TIP3    H239632   1.780   4.112   0.032  0.2663  0.3291 -2.3026
 6073TIP3   OH239633   5.529   3.954  12.725  0.1013 -0.1875 -0.0625
 6073TIP3    H139634   5.502   3.978  12.813 -2.2261 -1.1871 -0.4590
 6073TIP3    H239635   5.575   3.871  12.735  1.1973  0.4433  0.3475
 6074TIP3   OH239636   2.978   3.990  14.614 -0.2409 -0.1198 -0.3715
 6074TIP3    H139637   2.963   3.897  14.595  1.7348 -0.1578 -2.1155
 6074TIP3    H239638   3.071   3.995  14.636 -0.5297  1.3438  0.6208
 6075TIP3   OH239639   2.911   5.667  15.801  0.2824  0.3195 -0.2317
 6075TIP3    H139640   2.882   5.750  15.838  2.0989  0.0064  2.1420
 6075TIP3    H239641   2.998   5.652  15.839  0.3942 -2.2577 -1.2492
 6076TIP3   OH239642   4.451   5.670  14.148 -0.0970 -0.1033  0.1587
 6076TIP3    H139643   4.422   5.665  14.239 -2.3363  2.8367 -0.2308
 6076TIP3    H239644   4.538   5.709  14.153 -0.7027  1.2240  1.0513
 6077TIP3   OH239645   6.477   4.681  12.756 -0.0825 -0.1621  0.2620
 6077TIP3    H139646   6.487   4.646  12.845  2.7975 -0.5021 -0.0771
 6077TIP3    H239647   6.515   4.614  12.699 -2.2660 -0.1553 -1.3455
 6078TIP3   OH239648   1.144   0.120   4.301 -0.0387 -0.7251  1.2463
 6078TIP3    H139649   1.100   0.036   4.315 -1.4433 -0.4093 -0.8163
 6078TIP3    H239650   1.215   0.100   4.240 -1.8266 -0.1060 -1.1437
 6079TIP3   OH239651   1.290   2.799  10.544 -0.4204 -0.4425 -0.0568
 6079TIP3    H139652   1.339   2.834  10.470 -0.9012  1.1868  0.3403
 6079TIP3    H239653   1.289   2.871  10.608 -1.2129 -1.3054  0.9453
 6080TIP3   OH239654   5.173   0.149  12.594  0.1457 -0.1667 -0.5522
 6080TIP3    H139655   5.266   0.163  12.616 -0.2104  0.1019  0.9352
 6080TIP3    H239656   5.165   0.054  12.586  0.5525 -0.1922 -0.7142
 6081TIP3   OH239657   3.278   3.176  16.211  0.3929 -0.0630 -0.2848
 6081TIP3    H139658   3.240   3.191  16.124  0.3678 -0.7549 -0.3956
 6081TIP3    H239659   3.345   3.244  16.220 -1.3810  1.7302  0.2435
 6082TIP3   OH239660   6.323   6.677  12.337  0.0288  0.0416 -0.1551
 6082TIP3    H139661   6.336   6.592  12.379 -3.0899 -0.2250  0.4711
 6082TIP3    H239662   6.386   6.678  12.265  1.9737 -1.6366  1.3971
 6083TIP3   OH239663   6.158   1.803  14.518 -0.0882 -0.4518  0.3956
 6083TIP3    H139664   6.247   1.825  14.547  0.6930 -1.0084 -1.4378
 6083TIP3    H239665   6.169   1.722  14.468 -1.7440 -0.8717  0.6800
 6084TIP3   OH239666   2.570   2.497   5.210  0.6236 -0.7139 -0.5055
 6084TIP3    H139667   2.607   2.410   5.225  0.8540 -0.5601 -0.1515
 6084TIP3    H239668   2.635   2.541   5.155  1.6883  0.0313  1.2535
 6085TIP3   OH239669   3.506   3.803  11.712 -0.1717 -0.0673 -0.2971
 6085TIP3    H139670   3.592   3.782  11.748  0.8241  2.0229 -1.2911
 6085TIP3    H239671   3.518   3.796  11.617 -1.4292 -0.8878 -0.4049
 6086TIP3   OH239672   3.227   0.109  13.610  0.1523  0.2505 -0.2011
 6086TIP3    H139673   3.296   0.127  13.674 -0.2765 -1.0255  0.6750
 6086TIP3    H239674   3.195   0.195  13.584  0.5009  0.8155  1.1354
 6087TIP3   OH239675   4.617   3.792  10.559  0.5268  0.2327  0.2756
 6087TIP3    H139676   4.659   3.708  10.573 -1.5967 -0.5857  2.3272
 6087TIP3    H239677   4.552   3.776  10.490  0.8172  0.4703 -0.0588
 6088TIP3   OH239678   3.576   2.637  12.084  0.1773  0.6834  0.2870
 6088TIP3    H139679   3.540   2.715  12.043  0.3508  0.9730  0.6781
 6088TIP3    H239680   3.664   2.662  12.110 -0.1248  0.6914  1.3474
 6089TIP3   OH239681   3.991   1.588   4.995  0.3280 -0.2609 -0.5311
 6089TIP3    H139682   3.922   1.575   5.060  1.3181  2.4630  1.2616
 6089TIP3    H239683   3.948   1.636   4.923 -0.1610 -0.7933 -0.5987
 6090TIP3   OH239684   0.691   4.217   5.114  0.4327  0.5228 -0.3029
 6090TIP3    H139685   0.635   4.294   5.101  1.9606  1.9437  1.0789
 6090TIP3    H239686   0.647   4.166   5.181  0.6200  1.5043  0.5922
 6091TIP3   OH239687   4.681   1.561  13.636  0.3608  0.8636 -0.9658
 6091TIP3    H139688   4.736   1.509  13.695 -1.4700  0.2836  0.3020
 6091TIP3    H239689   4.724   1.647  13.633  1.2065  0.5089  0.1931
 6092TIP3   OH239690   5.020   2.058  15.170  0.3996  0.1391 -0.0341
 6092TIP3    H139691   5.015   2.151  15.194 -0.2602 -0.0228  0.4945
 6092TIP3    H239692   5.113   2.043  15.152  0.4603  0.9840 -0.4861
 6093TIP3   OH239693   2.344   1.455  14.895 -0.2191  0.1115 -0.7530
 6093TIP3    H139694   2.362   1.527  14.956  2.4601  0.4422 -1.8061
 6093TIP3    H239695   2.408   1.388  14.918 -1.4527 -1.1836 -1.0055
 6094TIP3   OH239696   6.011   5.988   1.841  0.2202  0.1571 -0.1331
 6094TIP3    H139697   6.105   5.996   1.859  0.4085 -1.1586 -0.4410
 6094TIP3    H239698   5.997   6.043   1.764  0.7913  0.1653 -0.2381
 6095TIP3   OH239699   0.327   4.402   0.475 -0.9467  0.6821 -0.2919
 6095TIP3    H139700   0.310   4.312   0.502  0.0609  0.3010 -0.8533
 6095TIP3    H239701   0.276   4.456   0.536 -1.4568 -0.2575  0.1305
 6096TIP3   OH239702   3.695   2.695  17.272  0.0374 -0.6340 -0.5156
 6096TIP3    H139703   3.723   2.735  17.355  0.7866  1.5263 -1.7280
 6096TIP3    H239704   3.748   2.616  17.265  1.0358 -0.0738  0.3711
 6097TIP3   OH239705   6.132   6.669  16.906  0.1652 -0.4700  0.5474
 6097TIP3    H139706   6.146   6.600  16.971 -2.7762 -2.0510 -0.3199
 6097TIP3    H239707   6.182   6.642  16.830 -0.5930 -1.4490  0.3793
 6098TIP3   OH239708   5.950   5.726  11.981 -0.0515  0.0430  0.6025
 6098TIP3    H139709   5.940   5.806  11.930 -1.4952 -0.3987  0.1276
 6098TIP3    H239710   5.996   5.666  11.922  1.5586  0.6739  1.1679
 6099TIP3   OH239711   5.743   2.661  15.736  0.3369  0.0379 -0.2435
 6099TIP3    H139712   5.690   2.638  15.660 -0.8434  0.3598  0.4533
 6099TIP3    H239713   5.794   2.736  15.707 -0.5977  0.5829 -0.5279
 6100TIP3   OH239714   2.354   1.254  10.573  0.0823 -0.4596  0.3583
 6100TIP3    H139715   2.413   1.323  10.544 -1.4514  0.1461 -1.5729
 6100TIP3    H239716   2.361   1.186  10.506 -1.3954 -0.3313  0.0233
 6101TIP3   OH239717   3.299   3.132  17.309  0.1810  0.1642 -0.6664
 6101TIP3    H139718   3.285   3.037  17.308 -0.2179  0.1749  1.0533
 6101TIP3    H239719   3.354   3.147  17.386  1.8718  1.1530 -1.9739
 6102TIP3   OH239720   1.663   0.285  11.081 -0.0067  0.6107 -0.1114
 6102TIP3    H139721   1.731   0.346  11.111  0.9347 -0.3025 -0.3521
 6102TIP3    H239722   1.684   0.202  11.123 -2.1387  0.7494  1.4267
 6103TIP3   OH239723   5.222   5.336  16.875  0.5694 -0.0768  0.1396
 6103TIP3    H139724   5.208   5.256  16.824  1.3358 -0.9074  1.2074
 6103TIP3    H239725   5.137   5.380  16.873 -0.2906 -1.6402  0.7571
 6104TIP3   OH239726   2.778   1.330   4.215 -0.3958 -0.1211  0.3277
 6104TIP3    H139727   2.862   1.348   4.174 -0.6019  1.4812  0.5618
 6104TIP3    H239728   2.790   1.244   4.257  1.3244  0.3476  0.8737
 6105TIP3   OH239729   4.840   1.576  12.043  0.2686 -0.2039  0.0064
 6105TIP3    H139730   4.908   1.511  12.023 -0.5419 -0.7878 -0.9048
 6105TIP3    H239731   4.766   1.525  12.076  0.2255  0.4213  0.9316
 6106TIP3   OH239732   2.566   4.735   5.653  0.0400 -0.0820  0.3517
 6106TIP3    H139733   2.526   4.650   5.672 -0.0506 -0.2756 -0.6328
 6106TIP3    H239734   2.658   4.715   5.637  0.7780  0.4523  3.3288
 6107TIP3   OH239735   1.631   5.440  15.467 -0.2205  0.6421 -0.7639
 6107TIP3    H139736   1.698   5.506  15.481  0.8613 -0.2063 -1.7187
 6107TIP3    H239737   1.639   5.380  15.541 -0.4111  0.9333 -0.5086
 6108TIP3   OH239738   0.614   5.598   2.763  0.2922 -0.5771  0.3291
 6108TIP3    H139739   0.603   5.557   2.677  0.4936  0.6362 -0.2860
 6108TIP3    H239740   0.611   5.692   2.746 -0.6207 -0.3143  1.7792
 6109TIP3   OH239741   2.133   5.150   0.967  0.7137 -0.2094 -0.0140
 6109TIP3    H139742   2.162   5.160   1.057  0.7324 -0.4716  0.0109
 6109TIP3    H239743   2.158   5.231   0.924 -2.6229  1.5916  1.0823
 6110TIP3   OH239744   4.746   0.961   1.040  0.6145  0.5851 -0.1588
 6110TIP3    H139745   4.738   0.941   0.947  0.5348  0.8815 -0.2147
 6110TIP3    H239746   4.675   0.911   1.081  0.9696  0.0453 -0.1962
 6111TIP3   OH239747   5.895   2.278  15.941  0.1799  0.1276 -0.3802
 6111TIP3    H139748   5.986   2.256  15.960  0.4251  0.4031 -1.1823
 6111TIP3    H239749   5.865   2.324  16.019  0.7582  0.1125 -0.1414
 6112TIP3   OH239750   6.091   4.552  15.197  0.1522 -0.4856  0.4282
 6112TIP3    H139751   6.126   4.557  15.286  0.7211 -0.4861  0.2080
 6112TIP3    H239752   5.997   4.544  15.209  0.1669  0.1586  1.0140
 6113TIP3   OH239753   0.482   5.431   5.261  0.1351 -0.1035  0.2393
 6113TIP3    H139754   0.530   5.511   5.283 -2.5287  1.4662  0.8535
 6113TIP3    H239755   0.433   5.454   5.182 -1.5099 -0.7214  1.0501
 6114TIP3   OH239756   6.535   5.450   2.085  0.0360 -0.4825 -0.3368
 6114TIP3    H139757   6.561   5.365   2.049 -1.1185 -0.5837 -0.9669
 6114TIP3    H239758   6.440   5.445   2.093  0.1565 -0.2722  2.2480
 6115TIP3   OH239759   3.583   1.158  13.229 -0.1508 -0.4663  0.3204
 6115TIP3    H139760   3.532   1.167  13.148  0.5169 -2.4633 -0.3856
 6115TIP3    H239761   3.521   1.178  13.299 -1.1213 -0.0700 -0.6204
 6116TIP3   OH239762   5.975   3.283  15.777 -0.1015 -0.3443  0.0635
 6116TIP3    H139763   6.046   3.219  15.778 -1.3770 -1.7765  1.0463
 6116TIP3    H239764   5.921   3.262  15.853 -1.4593  0.8734 -0.5141
 6117TIP3   OH239765   0.977   0.908   2.949  0.2600  0.1814  0.6797
 6117TIP3    H139766   0.933   0.864   2.876 -0.4547  0.7360  0.7564
 6117TIP3    H239767   0.990   0.998   2.918  0.6265  0.2295  0.9619
 6118TIP3   OH239768   5.483   2.560  12.115 -0.0514 -0.3870  0.3504
 6118TIP3    H139769   5.466   2.594  12.203  1.3073 -0.0994  0.5112
 6118TIP3    H239770   5.444   2.625  12.057  1.3000  0.7832  0.6937
 6119TIP3   OH239771   1.902   3.797   0.321 -0.1752 -0.1105  0.2097
 6119TIP3    H139772   1.883   3.704   0.324  0.6190 -0.4132 -2.2027
 6119TIP3    H239773   1.997   3.802   0.329 -0.0669  0.3536 -1.1534
 6120TIP3   OH239774   6.250   6.094   0.626  0.7051  0.7277  0.2824
 6120TIP3    H139775   6.337   6.097   0.665  1.3395 -1.1254 -0.8365
 6120TIP3    H239776   6.267   6.089   0.532 -0.5176 -1.0702  0.1037
 6121TIP3   OH239777   0.368   5.147  11.061  0.4251 -0.0184 -0.2135
 6121TIP3    H139778   0.415   5.170  10.981 -0.1100  0.4111 -0.4202
 6121TIP3    H239779   0.299   5.087  11.032 -0.0090  0.4379 -0.1456
 6122TIP3   OH239780   5.658   1.322   0.005 -0.0613 -0.2279 -0.0432
 6122TIP3    H139781   5.577   1.348   0.049 -0.3963 -0.2252 -0.6504
 6122TIP3    H239782   5.658   1.373  -0.076  0.0140 -1.0189 -0.5440
 6123TIP3   OH239783   0.598   2.273   4.041  0.3432 -0.1570 -0.1012
 6123TIP3    H139784   0.528   2.265   3.977 -0.8385 -1.9167  1.3060
 6123TIP3    H239785   0.555   2.259   4.126  2.0226  0.9782  1.0122
 6124TIP3   OH239786   2.395   0.229   0.495  0.6868 -0.1493 -0.2454
 6124TIP3    H139787   2.474   0.229   0.549 -0.2321  0.1058  1.1910
 6124TIP3    H239788   2.403   0.308   0.441  0.1548  1.5118  1.9472
 6125TIP3   OH239789   0.719   6.521  13.970  0.2518 -0.1091  0.4349
 6125TIP3    H139790   0.804   6.550  14.003  0.1689 -0.7488  1.2481
 6125TIP3    H239791   0.721   6.426  13.980  0.3405 -0.3742 -1.7516
 6126TIP3   OH239792   3.738   5.565  11.789  0.0853 -0.0248 -0.4914
 6126TIP3    H139793   3.716   5.494  11.849 -0.1880  0.1343 -0.4018
 6126TIP3    H239794   3.654   5.587  11.747 -0.3503  1.9416  1.2811
 6127TIP3   OH239795   0.662   4.187   0.790 -0.1743 -0.1420  0.7376
 6127TIP3    H139796   0.646   4.269   0.837 -1.1950  0.1748 -0.1214
 6127TIP3    H239797   0.730   4.143   0.841 -1.5240 -0.0234  2.7794
 6128TIP3   OH239798   5.098   1.847   4.055 -0.5260 -0.3802 -0.0510
 6128TIP3    H139799   5.120   1.875   3.966 -1.6435 -0.7374 -0.4637
 6128TIP3    H239800   5.150   1.768   4.069 -0.2891 -0.2802 -0.3597
 6129TIP3   OH239801   3.144   2.425  13.258 -0.3063 -0.4706 -0.9112
 6129TIP3    H139802   3.213   2.486  13.235 -0.1344 -0.6150 -0.7808
 6129TIP3    H239803   3.133   2.369  13.181  0.0344 -0.7361 -0.7716
 6130TIP3   OH239804   5.147   1.402   3.702 -0.3177 -0.0564  0.5158
 6130TIP3    H139805   5.061   1.368   3.680 -0.8468  0.3417  1.8493
 6130TIP3    H239806   5.134   1.450   3.785  1.2102 -0.1525  0.8533
 6131TIP3   OH239807   1.078   5.568  15.697  0.6181  0.0518 -0.9757
 6131TIP3    H139808   1.116   5.501  15.639 -0.0409 -0.9933 -0.2336
 6131TIP3    H239809   0.992   5.585  15.661  0.6494  0.2490 -0.9593
 6132TIP3   OH239810   4.960   5.424  16.871  0.4049 -0.0323  0.4876
 6132TIP3    H139811   4.943   5.478  16.794 -0.2371  0.5859  1.0442
 6132TIP3    H239812   4.892   5.357  16.870 -0.6902  1.0120  1.4251
 6133TIP3   OH239813   6.671   4.108   0.967  0.3250 -0.0728 -0.0369
 6133TIP3    H139814   6.723   4.076   1.042 -0.3435 -0.4552  0.2665
 6133TIP3    H239815   6.583   4.075   0.983 -0.5656  2.3617  0.5948
 6134TIP3   OH239816   1.952   2.137  12.945 -0.1229  0.1171 -0.5261
 6134TIP3    H139817   1.989   2.078  12.880  1.1886  0.3812 -0.0513
 6134TIP3    H239818   2.003   2.217  12.937 -0.8312  0.6331 -0.0815
 6135TIP3   OH239819   4.023   1.408   2.406  0.1265  0.0770  0.4362
 6135TIP3    H139820   4.017   1.329   2.351  4.1534  1.1642 -2.0486
 6135TIP3    H239821   4.106   1.398   2.452 -0.3384  1.9169  1.7824
 6136TIP3   OH239822   5.600   0.301   1.509  0.3957 -0.2639  0.0895
 6136TIP3    H139823   5.560   0.387   1.522 -0.6803 -0.9200  1.3970
 6136TIP3    H239824   5.693   0.320   1.498  0.2616  1.0403  0.9034
 6137TIP3   OH239825   1.567   2.481   5.386  0.4082 -0.0832  0.0480
 6137TIP3    H139826   1.529   2.473   5.473  0.2334  0.9081  0.0758
 6137TIP3    H239827   1.662   2.475   5.400  0.5769  2.8219  0.7057
 6138TIP3   OH239828   2.161   1.768  17.590 -0.4018 -0.1652 -0.1058
 6138TIP3    H139829   2.190   1.849  17.546  0.3790 -0.4436 -0.1227
 6138TIP3    H239830   2.184   1.698  17.529 -0.5368 -0.4482  0.1672
 6139TIP3   OH239831   5.145   3.526   0.153  0.3336  0.0347 -0.4087
 6139TIP3    H139832   5.070   3.470   0.134 -1.2053  1.7332  0.3441
 6139TIP3    H239833   5.115   3.614   0.132  2.5487  0.6685 -1.2055
 6140TIP3   OH239834   5.578   0.794  11.654 -0.0457  0.4557  0.0006
 6140TIP3    H139835   5.553   0.873  11.702  1.3242  0.1247  1.3481
 6140TIP3    H239836   5.555   0.722  11.713 -0.6104 -0.1338 -0.9091
 6141TIP3   OH239837   1.965   1.710  14.618 -0.4805  0.1483  0.6554
 6141TIP3    H139838   1.892   1.667  14.663 -0.7910  2.0556  2.0919
 6141TIP3    H239839   2.043   1.660  14.645 -1.0289 -0.6651  0.7524
 6142TIP3   OH239840   5.204   6.467  15.128 -0.4441 -0.0054  0.3330
 6142TIP3    H139841   5.113   6.491  15.146 -0.9393 -0.0893 -1.8312
 6142TIP3    H239842   5.225   6.511  15.046  1.4981  0.0202  0.7806
 6143TIP3   OH239843   2.314   1.116   5.113  0.1805 -1.0904  0.3392
 6143TIP3    H139844   2.323   1.082   5.202  1.3110 -0.9445  0.2869
 6143TIP3    H239845   2.376   1.188   5.108  0.1471 -1.1166 -0.5815
 6144TIP3   OH239846   4.203   4.177   5.399  0.0574 -0.2900  0.1541
 6144TIP3    H139847   4.254   4.258   5.390  0.9505 -0.9105 -0.7507
 6144TIP3    H239848   4.269   4.108   5.397 -0.7562 -1.0784 -0.0279
 6145TIP3   OH239849   3.183   4.749   5.306  0.1021  0.0020 -0.1357
 6145TIP3    H139850   3.194   4.786   5.219 -1.0396  1.0881  0.1438
 6145TIP3    H239851   3.210   4.657   5.298 -1.0821 -0.2319 -1.9234
 6146TIP3   OH239852   3.427   4.047   1.999  0.5230 -0.1420  0.2525
 6146TIP3    H139853   3.461   4.027   1.912 -2.8731  2.1923 -1.8781
 6146TIP3    H239854   3.391   4.135   1.990 -2.1586 -0.7513  3.2771
 6147TIP3   OH239855   2.918   4.727  10.804 -0.4588 -0.4707  0.1702
 6147TIP3    H139856   2.947   4.773  10.726 -0.5273  0.2881  0.5789
 6147TIP3    H239857   2.830   4.761  10.821  0.2883  0.8170  1.6564
 6148TIP3   OH239858   5.812   1.825  15.306  0.7415 -0.2374  1.0009
 6148TIP3    H139859   5.878   1.788  15.365 -0.0054 -0.3606  1.7681
 6148TIP3    H239860   5.863   1.877  15.243  1.7446 -1.8308  0.4295
 6149TIP3   OH239861   6.119   0.523   4.442  0.0814  0.5463  0.2501
 6149TIP3    H139862   6.146   0.495   4.355  0.1613  0.8169  0.1869
 6149TIP3    H239863   6.198   0.560   4.481 -0.5753  3.2091 -0.6662
 6150TIP3   OH239864   1.184   0.631  15.674 -0.8834 -0.9942 -0.1226
 6150TIP3    H139865   1.169   0.683  15.753  1.9596  1.0625 -0.7514
 6150TIP3    H239866   1.216   0.547  15.707  2.8861  0.6770  1.1959
 6151TIP3   OH239867   5.465   4.784  12.114  0.3831 -0.1539 -0.0607
 6151TIP3    H139868   5.523   4.857  12.138 -1.3934  0.7161  1.9970
 6151TIP3    H239869   5.516   4.706  12.134  1.5506  0.5296 -0.2386
 6152TIP3   OH239870   2.665   4.004  17.335  0.3790 -0.2389  0.1510
 6152TIP3    H139871   2.572   4.000  17.358  0.0590  0.8573 -0.8471
 6152TIP3    H239872   2.674   3.939  17.265 -0.1517  1.1117 -1.2516
 6153TIP3   OH239873   1.189   2.131   0.908  0.5696 -0.3427 -0.5413
 6153TIP3    H139874   1.189   2.035   0.909  1.7563 -0.3734 -1.4363
 6153TIP3    H239875   1.270   2.154   0.863 -0.2936  1.0686 -1.4404
 6154TIP3   OH239876   5.007   3.331   1.456  0.3542  0.1935 -0.3094
 6154TIP3    H139877   5.065   3.396   1.416  2.9516 -1.2770  0.8091
 6154TIP3    H239878   4.958   3.295   1.383  0.6115  1.7166 -1.2802
 6155TIP3   OH239879   4.931   3.283  12.424  0.3591  0.3974  0.3998
 6155TIP3    H139880   4.995   3.354  12.422 -1.2195  2.0127 -3.5173
 6155TIP3    H239881   4.863   3.314  12.483 -0.3025  2.2575 -1.2462
 6156TIP3   OH239882   2.865   3.110  13.764  0.0267 -0.1121  0.1889
 6156TIP3    H139883   2.862   3.096  13.669  3.0938 -0.8250  0.0852
 6156TIP3    H239884   2.844   3.202  13.776 -1.2197 -0.1995 -1.0777
 6157TIP3   OH239885   2.799   3.737  16.552  0.7101 -0.1897  0.7562
 6157TIP3    H139886   2.730   3.689  16.507 -1.1750  1.9805  1.1335
 6157TIP3    H239887   2.877   3.723  16.498 -1.0702  1.0513 -2.4521
 6158TIP3   OH239888   3.386   6.558   3.259  0.3191  0.6095 -0.1225
 6158TIP3    H139889   3.472   6.522   3.279  0.3549  0.4198 -0.6041
 6158TIP3    H239890   3.379   6.552   3.164  0.0618  1.2709 -0.1561
 6159TIP3   OH239891   5.095   3.417   1.102  0.7005  0.2807 -0.6478
 6159TIP3    H139892   5.104   3.334   1.149  0.5682  0.5043 -0.2217
 6159TIP3    H239893   5.014   3.407   1.051  0.3713  0.3537 -0.1553
 6160TIP3   OH239894   0.066   5.309  12.767 -0.6195  0.2547  0.1230
 6160TIP3    H139895   0.061   5.332  12.859 -1.8169  0.0827  0.1142
 6160TIP3    H239896   0.009   5.233  12.757  0.3737 -0.4359 -0.5560
 6161TIP3   OH239897   2.405   0.911   3.960  0.3725 -0.2114  0.4858
 6161TIP3    H139898   2.429   0.824   3.991  0.9015 -0.9608 -1.8565
 6161TIP3    H239899   2.344   0.895   3.887 -0.1157  1.4020  0.5014
 6162TIP3   OH239900   4.886   0.635   1.590 -0.4601 -0.3314 -0.4166
 6162TIP3    H139901   4.827   0.643   1.515 -3.0875 -1.1806  1.3875
 6162TIP3    H239902   4.892   0.541   1.606  1.0972 -0.2289 -0.2891
 6163TIP3   OH239903   4.323   1.925  17.187 -0.2278 -0.2895 -0.2068
 6163TIP3    H139904   4.279   1.841  17.201  0.2532 -0.6790 -0.9497
 6163TIP3    H239905   4.255   1.981  17.150 -1.0862  0.2779  2.1117
 6164TIP3   OH239906   0.770   2.352  14.330 -0.5955 -0.0462 -0.6586
 6164TIP3    H139907   0.851   2.363  14.281 -1.4806  1.0748 -1.9256
 6164TIP3    H239908   0.781   2.269  14.376  1.3966  0.2495 -0.5340
 6165TIP3   OH239909   0.224   3.047   2.660 -0.0730  0.6118 -0.3900
 6165TIP3    H139910   0.216   3.091   2.575  2.3115  0.9966 -0.4852
 6165TIP3    H239911   0.216   2.954   2.640  1.4694  0.6280 -1.2444
 6166TIP3   OH239912   5.026   4.455   6.447  0.6833 -0.5617  0.2093
 6166TIP3    H139913   5.047   4.373   6.403 -0.4867 -0.9641  0.3557
 6166TIP3    H239914   5.071   4.449   6.531  0.6215 -1.0572  0.2129
 6167TIP3   OH239915   6.593   4.692  16.988  0.2956 -0.3809 -0.2783
 6167TIP3    H139916   6.649   4.615  16.989  1.5006  0.4826  0.0759
 6167TIP3    H239917   6.547   4.687  16.904  1.4182 -0.7408 -0.8815
 6168TIP3   OH239918   4.281   6.403  13.954  0.1005 -0.4588  0.6776
 6168TIP3    H139919   4.321   6.341  13.893 -0.7981 -0.5627  0.1910
 6168TIP3    H239920   4.188   6.382  13.954  0.1517 -0.8362  2.5360
 6169TIP3   OH239921   4.365   5.600   4.756  0.0556 -0.0829 -0.2761
 6169TIP3    H139922   4.447   5.639   4.724 -0.6626  1.2321 -0.5945
 6169TIP3    H239923   4.314   5.675   4.787 -0.3427 -1.0495  1.5320
 6170TIP3   OH239924   1.755   2.569  11.228  0.0377 -0.6128 -0.4821
 6170TIP3    H139925   1.704   2.646  11.202  0.3059 -0.1985  0.1793
 6170TIP3    H239926   1.766   2.519  11.147  0.0930  0.1894 -0.9831
 6171TIP3   OH239927   6.249   2.232  11.957 -0.1022  0.0739  0.1436
 6171TIP3    H139928   6.168   2.228  11.906 -0.2107  0.4800  0.2839
 6171TIP3    H239929   6.252   2.148  12.004 -2.3212  1.4428  2.9963
 6172TIP3   OH239930   0.911   4.827   6.311 -0.3357  0.1858  0.7730
 6172TIP3    H139931   0.901   4.735   6.334  2.3458 -0.3504  0.1348
 6172TIP3    H239932   1.004   4.846   6.326 -0.3829  2.2197 -0.9947
 6173TIP3   OH239933   0.644   4.576  14.953 -0.1633 -0.1562  0.3257
 6173TIP3    H139934   0.631   4.658  15.001  1.8354  0.2938  0.1798
 6173TIP3    H239935   0.650   4.510  15.022 -4.0221 -0.6404  0.3893
 6174TIP3   OH239936   4.151   4.169  14.538  0.1329  0.0047 -0.2945
 6174TIP3    H139937   4.209   4.101  14.505  2.0667  1.1826  0.4942
 6174TIP3    H239938   4.109   4.130  14.615  0.8037 -0.4986 -0.1722
 6175TIP3   OH239939   4.749   5.152  14.214  0.1101 -0.0472  0.0916
 6175TIP3    H139940   4.764   5.061  14.239  0.5091 -0.0775 -0.2381
 6175TIP3    H239941   4.672   5.148  14.157  0.1356 -0.1831  0.0643
 6176TIP3   OH239942   0.313   5.707   5.428 -0.6685 -0.3110  0.3090
 6176TIP3    H139943   0.356   5.727   5.345 -0.0086 -0.0382  0.7073
 6176TIP3    H239944   0.254   5.635   5.407 -1.0308  0.2208 -0.5478
 6177TIP3   OH239945   2.778   6.048   3.823 -0.4560 -0.5965 -0.3240
 6177TIP3    H139946   2.797   6.055   3.729  0.6525  0.6620 -0.0403
 6177TIP3    H239947   2.684   6.066   3.829 -0.6868 -1.4144 -1.2545
 6178TIP3   OH239948   3.487   2.786  12.289 -0.1163  0.1650 -0.2640
 6178TIP3    H139949   3.512   2.807  12.379 -0.4573 -2.5289  0.5598
 6178TIP3    H239950   3.533   2.851  12.235  1.5478  0.7547  1.7320
 6179TIP3   OH239951   6.179   1.268   6.064 -0.4293 -0.3168 -0.0953
 6179TIP3    H139952   6.182   1.172   6.062 -1.1563 -0.3369 -0.4880
 6179TIP3    H239953   6.202   1.291   6.154  0.4984 -0.8248 -0.1963
 6180TIP3   OH239954   0.181   5.459  14.059  0.5150  0.4215  0.2399
 6180TIP3    H139955   0.177   5.429  14.150 -1.9775  0.2505  0.1658
 6180TIP3    H239956   0.138   5.389  14.010 -0.1583  1.4812 -0.7407
 6181TIP3   OH239957   3.132   0.403   6.016 -0.0608 -0.5130 -0.4109
 6181TIP3    H139958   3.078   0.325   6.035  1.0539 -1.0180  0.8196
 6181TIP3    H239959   3.206   0.396   6.077  0.2770  1.3075 -0.5728
 6182TIP3   OH239960   3.616   6.330  15.031 -0.3049  0.3141  0.3798
 6182TIP3    H139961   3.523   6.334  15.051 -0.2550  0.9053  0.4958
 6182TIP3    H239962   3.623   6.361  14.941 -0.2346  0.0925  0.3057
 6183TIP3   OH239963   6.139   1.071  15.766  0.1523 -0.4531  0.0067
 6183TIP3    H139964   6.135   1.167  15.764  0.0861 -0.3949 -3.4084
 6183TIP3    H239965   6.200   1.048  15.696 -0.1115 -2.9332  0.4947
 6184TIP3   OH239966   0.733   0.698  12.180 -0.8530  0.1754  0.4081
 6184TIP3    H139967   0.824   0.672  12.188 -0.2833  1.4176 -1.4777
 6184TIP3    H239968   0.691   0.623  12.137 -0.2459  0.4096 -0.6315
 6185TIP3   OH239969   4.950   4.796  13.003  0.0280  0.2871  0.3241
 6185TIP3    H139970   4.924   4.706  13.022  0.7322 -0.1485 -0.7303
 6185TIP3    H239971   4.872   4.848  13.022 -0.1062 -0.4101  1.8440
 6186TIP3   OH239972   5.615   4.479  13.343 -0.1533 -0.3338 -0.1945
 6186TIP3    H139973   5.538   4.451  13.294 -0.0425 -0.6607 -0.1863
 6186TIP3    H239974   5.648   4.556  13.296 -1.2790  0.6655  0.5826
 6187TIP3   OH239975   5.329   0.730   1.273 -0.1484  0.3238 -0.0473
 6187TIP3    H139976   5.302   0.641   1.294 -0.9511  0.7917  0.9616
 6187TIP3    H239977   5.424   0.725   1.264 -0.3468 -1.0169 -1.9968
 6188TIP3   OH239978   2.567   2.430  13.443  0.3278  0.3079 -0.3262
 6188TIP3    H139979   2.557   2.388  13.528  1.5503 -1.5370 -1.0264
 6188TIP3    H239980   2.488   2.483  13.433 -1.2106 -1.6615  0.7464
 6189TIP3   OH239981   3.515   2.922  17.140 -0.1552 -0.1574  0.4335
 6189TIP3    H139982   3.446   2.882  17.087  1.7813 -0.6788 -1.8564
 6189TIP3    H239983   3.577   2.851  17.157  0.9759  0.8047  0.4312
 6190TIP3   OH239984   4.479   2.357   1.033  0.2295  0.3383  0.5734
 6190TIP3    H139985   4.482   2.365   0.938 -0.4891 -0.1236  0.5034
 6190TIP3    H239986   4.462   2.446   1.064 -1.7172  0.1578  0.1402
 6191TIP3   OH239987   1.741   1.359   4.444  0.3677  0.8820  0.4851
 6191TIP3    H139988   1.810   1.323   4.389  0.5251  0.8594  0.6984
 6191TIP3    H239989   1.679   1.398   4.382 -0.5882 -1.0705  0.1356
 6192TIP3   OH239990   6.328   3.894  13.659  0.4614 -0.2587  0.4773
 6192TIP3    H139991   6.419   3.864  13.649  1.5310  3.2949 -3.0852
 6192TIP3    H239992   6.333   3.960  13.729  0.2248 -1.2500  1.4439
 6193TIP3   OH239993   4.435   3.042   3.764 -0.2886  0.1292  0.0327
 6193TIP3    H139994   4.392   3.033   3.849 -1.5384 -1.4221 -0.7157
 6193TIP3    H239995   4.435   3.137   3.748 -1.0147  0.3726  1.2603
 6194TIP3   OH239996   2.438   4.506  10.817 -0.2131 -0.2671 -0.1041
 6194TIP3    H139997   2.405   4.419  10.795  0.1149 -0.5659  0.5518
 6194TIP3    H239998   2.396   4.527  10.901  0.9455 -0.4872  0.5492
 6195TIP3   OH239999   4.182   6.498  17.267 -0.0775 -0.1551 -0.5767
 6195TIP3    H140000   4.221   6.470  17.350 -0.4122 -1.2365 -0.7693
 6195TIP3    H240001   4.167   6.591  17.278 -1.7802 -0.5844  1.2739
 6196TIP3   OH240002   6.530   1.787   4.242 -0.0146  0.3179 -0.5239
 6196TIP3    H140003   6.546   1.711   4.185 -2.7619 -0.1651 -0.8006
 6196TIP3    H240004   6.536   1.752   4.331  1.7059  0.4863 -0.5531
 6197TIP3   OH240005   1.733   2.968   0.485  0.0326  0.2114  0.2345
 6197TIP3    H140006   1.695   2.883   0.509  1.9254 -0.4363  1.1271
 6197TIP3    H240007   1.659   3.018   0.449 -1.1189 -1.8258 -0.3990
 6198TIP3   OH240008   4.115   1.893   2.000  0.4311 -0.0270  0.1838
 6198TIP3    H140009   4.062   1.960   2.043  0.9229 -1.0165  2.5302
 6198TIP3    H240010   4.061   1.814   2.003  0.6696 -0.2315 -0.6480
 6199TIP3   OH240011   1.093   2.545  14.372 -0.6605  0.0317 -0.1540
 6199TIP3    H140012   1.047   2.514  14.294  2.3226 -0.3726 -1.8941
 6199TIP3    H240013   1.087   2.472  14.434 -2.2354 -0.0242 -0.3322
 6200TIP3   OH240014   5.184   4.715  10.692 -0.2207  0.2771  0.2899
 6200TIP3    H140015   5.170   4.666  10.611 -0.1741  1.2398 -0.3112
 6200TIP3    H240016   5.116   4.782  10.692  0.5798  1.0975  0.4128
 6201TIP3   OH240017   6.133   6.365   0.188  0.2566  0.3271  0.1009
 6201TIP3    H140018   6.143   6.279   0.228 -0.3874  0.1502 -0.0983
 6201TIP3    H240019   6.057   6.403   0.233  0.1671  0.5475 -0.2278
 6202TIP3   OH240020   4.140   0.672  10.887  0.4502 -0.1906 -0.5037
 6202TIP3    H140021   4.229   0.703  10.867  0.8217 -1.6026 -1.1771
 6202TIP3    H240022   4.149   0.620  10.966  0.8643 -2.8681 -2.1759
 6203TIP3   OH240023   2.667   0.137   1.388  0.1725  0.4290  0.1286
 6203TIP3    H140024   2.628   0.078   1.453  0.0903  2.1648  1.7501
 6203TIP3    H240025   2.757   0.150   1.418  0.1421  1.2512 -0.1232
 6204TIP3   OH240026   0.655   1.140  13.188  0.1439 -0.4235 -0.1951
 6204TIP3    H140027   0.634   1.226  13.153 -0.6805 -1.1042 -1.4106
 6204TIP3    H240028   0.606   1.135  13.270  1.4391  0.8492  0.7239
 6205TIP3   OH240029   4.069   6.519  14.367 -0.5105 -0.6839  0.6531
 6205TIP3    H140030   4.018   6.457  14.315  0.0006 -1.0435  0.5720
 6205TIP3    H240031   4.118   6.571  14.302 -0.4704 -0.6045  0.7465
 6206TIP3   OH240032   5.695   4.928  14.212 -0.6072  0.2568 -0.4443
 6206TIP3    H140033   5.706   4.891  14.124 -0.4806  0.2694 -0.4352
 6206TIP3    H240034   5.609   4.969  14.210 -0.5314  0.4138 -0.6233
 6207TIP3   OH240035   0.064   1.637  12.175 -0.3468 -0.0631  0.1832
 6207TIP3    H140036   0.117   1.560  12.195  0.4879 -0.4047 -2.8398
 6207TIP3    H240037  -0.005   1.637  12.241 -0.6875 -3.7302 -0.0014
 6208TIP3   OH240038   0.863   5.882  15.673  1.5949 -0.7567  0.1675
 6208TIP3    H140039   0.805   5.944  15.630  0.1643 -2.1636 -0.0075
 6208TIP3    H240040   0.945   5.888  15.624  0.0666 -2.2599 -2.8384
 6209TIP3   OH240041   4.261   4.385  12.190  0.2583  0.0299 -0.3185
 6209TIP3    H140042   4.289   4.396  12.281 -0.0742 -0.6885 -0.1190
 6209TIP3    H240043   4.333   4.420  12.138  0.7806 -0.2367  0.2156
 6210TIP3   OH240044   2.724   2.940  12.326  0.2620 -0.2877  0.4181
 6210TIP3    H140045   2.632   2.966  12.316  0.2017 -0.4595  0.5122
 6210TIP3    H240046   2.744   2.890  12.247 -0.4005 -2.1838  1.3855
 6211TIP3   OH240047   5.294   4.398  13.735  0.4490 -0.4105 -0.0656
 6211TIP3    H140048   5.278   4.469  13.673  2.0696 -0.3189 -0.4324
 6211TIP3    H240049   5.327   4.326  13.682  0.3766 -0.8716  0.5003
 6212TIP3   OH240050   0.032   3.780   3.785  0.1931  0.9071 -0.2343
 6212TIP3    H140051  -0.044   3.745   3.829  0.0632  0.2717 -0.9447
 6212TIP3    H240052  -0.004   3.837   3.716  0.3025 -0.3747 -1.3898
 6213TIP3   OH240053   6.711   2.891  14.548 -0.4978 -0.1381  0.1340
 6213TIP3    H140054   6.797   2.933  14.552  0.4705 -1.9577 -0.2568
 6213TIP3    H240055   6.660   2.947  14.489  0.9601  0.1332 -0.9390
 6214TIP3   OH240056   3.798   2.260  10.908  0.2913 -0.4558  0.1377
 6214TIP3    H140057   3.814   2.332  10.847 -0.1447 -2.4997 -2.6155
 6214TIP3    H240058   3.778   2.185  10.852 -2.2074 -2.0777  2.8560
 6215TIP3   OH240059   0.152   3.585  11.165 -0.3062 -0.2995  0.4528
 6215TIP3    H140060   0.090   3.656  11.178  0.4518  0.0760  2.3220
 6215TIP3    H240061   0.236   3.629  11.151  0.2358 -0.7933  1.9866
 6216TIP3   OH240062   3.732   5.910  13.785 -0.4304 -0.3037  0.2279
 6216TIP3    H140063   3.773   5.825  13.801 -1.3341 -0.6504  0.7965
 6216TIP3    H240064   3.648   5.889  13.744  0.2304  0.4229 -1.5807
 6217TIP3   OH240065   3.104   2.655  15.510 -0.4597  0.5567  0.3370
 6217TIP3    H140066   3.119   2.583  15.571 -0.5896  0.6544  0.4838
 6217TIP3    H240067   3.144   2.625  15.428  0.9095  0.9868  0.8208
 6218TIP3   OH240068   1.042   1.230   0.178  0.0070  0.2937  0.2692
 6218TIP3    H140069   1.045   1.204   0.086  0.2467  0.4913  0.2201
 6218TIP3    H240070   1.035   1.325   0.176  1.6224  0.4380  0.4656
 6219TIP3   OH240071   1.694   1.944   5.148  0.7176  0.3068  0.2553
 6219TIP3    H140072   1.697   1.865   5.202  0.0535 -0.1082 -0.2988
 6219TIP3    H240073   1.696   2.016   5.211  1.6314 -0.1393  0.7552
 6220TIP3   OH240074   1.092   3.161   4.249 -0.2888 -0.0510 -0.3953
 6220TIP3    H140075   1.181   3.196   4.242 -0.2314 -0.3255 -1.0379
 6220TIP3    H240076   1.072   3.127   4.162 -1.3756  0.8542 -0.5214
 6221TIP3   OH240077   5.280   5.503   2.516 -0.0447 -0.3294  0.1567
 6221TIP3    H140078   5.199   5.523   2.468  0.4541  1.4072 -0.0328
 6221TIP3    H240079   5.269   5.548   2.600  1.1043  0.7469 -0.2429
 6222TIP3   OH240080   5.311   3.581  17.082  0.8512 -0.6954 -0.3239
 6222TIP3    H140081   5.229   3.531  17.084  0.4381 -0.0066  1.3262
 6222TIP3    H240082   5.310   3.623  16.996  0.2237 -1.8834 -0.9318
 6223TIP3   OH240083   2.646   0.985   1.101 -0.2774 -0.1963 -0.5008
 6223TIP3    H140084   2.589   1.031   1.039 -0.6374 -0.2060 -0.1863
 6223TIP3    H240085   2.585   0.930   1.151  0.0931 -0.6893 -0.5863
 6224TIP3   OH240086   1.297   3.575   5.659 -0.0172  0.1401  0.6943
 6224TIP3    H140087   1.300   3.546   5.750  0.2088  0.3897  0.7687
 6224TIP3    H240088   1.366   3.526   5.614 -0.2145 -0.0782  0.6280
 6225TIP3   OH240089   4.156   2.149  14.624 -0.3041  0.0291 -0.0267
 6225TIP3    H140090   4.237   2.180  14.584 -0.4322 -0.0671 -0.3699
 6225TIP3    H240091   4.104   2.117  14.550  0.5022 -2.5671  0.4360
 6226TIP3   OH240092   0.396   5.111  15.249  0.1453 -0.1697  0.2145
 6226TIP3    H140093   0.421   5.061  15.327  0.9269  0.2850  0.2659
 6226TIP3    H240094   0.465   5.092  15.185  0.1155  0.3494  0.0249
 6227TIP3   OH240095   0.856   3.831   5.085  0.4348 -0.4958  0.1585
 6227TIP3    H140096   0.825   3.822   5.175  1.2913  0.8270  0.6109
 6227TIP3    H240097   0.864   3.741   5.054  0.4140 -0.9911  1.5021
 6228TIP3   OH240098   1.720   1.097  14.454 -0.3566 -0.3948  0.2936
 6228TIP3    H140099   1.749   1.174  14.404 -1.2648 -0.3043 -0.1172
 6228TIP3    H240100   1.636   1.073  14.414 -0.7453 -0.7716  1.3136
 6229TIP3   OH240101   0.722   5.062  10.997  0.2964 -0.1328  0.1320
 6229TIP3    H140102   0.672   5.016  11.064  0.8412 -0.0886  0.5760
 6229TIP3    H240103   0.659   5.077  10.926 -0.2424 -0.3213  0.5629
 6230TIP3   OH240104   0.831   2.400  11.133 -0.0755 -0.0611  0.4028
 6230TIP3    H140105   0.818   2.355  11.217 -1.9117  2.3510  1.5272
 6230TIP3    H240106   0.744   2.431  11.109 -0.0024 -2.1614 -3.4303
 6231TIP3   OH240107   1.401   1.708  12.555 -0.3237  0.2180  0.0934
 6231TIP3    H140108   1.434   1.724  12.466 -2.4261  0.7472 -0.6460
 6231TIP3    H240109   1.308   1.730  12.550 -1.1538 -2.5382  1.7027
 6232TIP3   OH240110   1.556   1.472   1.718  0.3139 -0.5463  0.3319
 6232TIP3    H140111   1.517   1.553   1.684  1.8275 -0.4844 -1.4283
 6232TIP3    H240112   1.511   1.457   1.801 -1.1286  1.2305 -0.0520
 6233TIP3   OH240113   5.599   5.481  15.787 -0.8739  0.6738 -0.6761
 6233TIP3    H140114   5.577   5.393  15.817 -1.8341  1.3252  0.6616
 6233TIP3    H240115   5.629   5.469  15.697  0.3182 -1.1616 -0.0841
 6234TIP3   OH240116   2.254   6.325   1.440 -0.7290  0.5858  0.4120
 6234TIP3    H140117   2.193   6.397   1.428 -0.8620  0.1412 -2.4669
 6234TIP3    H240118   2.209   6.249   1.403  1.6040  0.3211 -2.2309
 6235TIP3   OH240119   5.142   6.107   0.138 -0.1015 -0.5663 -0.3961
 6235TIP3    H140120   5.181   6.134   0.221 -0.5131  0.9981 -0.6817
 6235TIP3    H240121   5.091   6.183   0.110 -0.3652 -1.2479 -1.8390
 6236TIP3   OH240122   6.700   0.150  13.564 -0.3038 -0.0674  0.2735
 6236TIP3    H140123   6.648   0.096  13.624 -1.0382 -0.3560 -0.6002
 6236TIP3    H240124   6.639   0.215  13.530 -0.7443 -1.7149 -2.3995
 6237TIP3   OH240125   6.627   3.850   3.059  0.3767 -0.0371  0.1324
 6237TIP3    H140126   6.599   3.856   2.968  0.9578  0.2216 -0.0362
 6237TIP3    H240127   6.718   3.820   3.054  0.5092  0.2701  0.6136
 6238TIP3   OH240128   5.667   4.640   6.800 -0.6425  0.1314  0.0888
 6238TIP3    H140129   5.664   4.735   6.813 -1.4275 -0.0700  1.7515
 6238TIP3    H240130   5.647   4.628   6.707  0.2516  1.6146 -0.3277
 6239TIP3   OH240131   2.312   1.321  11.583  0.7653  0.5337 -0.1677
 6239TIP3    H140132   2.367   1.394  11.611 -1.1125  2.2425 -0.7316
 6239TIP3    H240133   2.276   1.348  11.499 -1.2957 -0.2712  0.3815
 6240TIP3   OH240134   5.494   4.909  13.805 -0.0023  0.2222  0.0084
 6240TIP3    H140135   5.438   4.961  13.863 -1.7907 -1.2716 -0.3044
 6240TIP3    H240136   5.554   4.864  13.864 -0.2710  0.4927  0.4957
 6241TIP3   OH240137   2.631   5.597   0.190 -0.1756  0.2092  0.0670
 6241TIP3    H140138   2.609   5.553   0.272 -0.2433 -0.6546 -0.4019
 6241TIP3    H240139   2.550   5.599   0.140  0.3736 -1.4870 -0.9750
 6242TIP3   OH240140   0.451   0.207   3.771 -0.5007  0.1825 -0.1890
 6242TIP3    H140141   0.385   0.173   3.831 -0.2231 -2.3563 -1.1781
 6242TIP3    H240142   0.423   0.176   3.685  2.4909 -2.1501 -0.5138
 6243TIP3   OH240143   1.814   5.368  16.170  0.1234  0.6684  0.5779
 6243TIP3    H140144   1.781   5.282  16.143  1.1882  0.7520 -1.1294
 6243TIP3    H240145   1.838   5.357  16.262  4.9250 -2.4734 -0.6566
 6244TIP3   OH240146   1.345   2.893  14.820 -0.0489  0.5022 -0.4129
 6244TIP3    H140147   1.324   2.968  14.765 -0.3219 -0.5282 -1.7637
 6244TIP3    H240148   1.263   2.846  14.829  0.2258  0.0864 -0.0062
 6245TIP3   OH240149   0.230   3.615  13.019 -0.2257  0.2570  0.2134
 6245TIP3    H140150   0.283   3.694  13.033  0.1107  0.1783 -0.5803
 6245TIP3    H240151   0.145   3.636  13.059 -0.0308  0.8976  0.3039
 6246TIP3   OH240152   1.411   1.750  11.836 -0.0785 -0.5575  0.6531
 6246TIP3    H140153   1.476   1.780  11.773 -2.5079 -0.3548 -1.9657
 6246TIP3    H240154   1.424   1.806  11.912  2.5541 -0.3405  0.1292
 6247TIP3   OH240155   6.229   6.275  11.611  0.0983 -0.0397  0.4714
 6247TIP3    H140156   6.314   6.311  11.637 -2.1175  4.6953  2.3550
 6247TIP3    H240157   6.212   6.314  11.525 -0.3657 -0.6593  0.2740
 6248TIP3   OH240158   1.563   2.623   4.854 -0.3743 -0.5319  0.1165
 6248TIP3    H140159   1.626   2.560   4.821  0.7952  1.0777 -0.9232
 6248TIP3    H240160   1.495   2.627   4.786  0.8530  1.0959 -1.1045
 6249TIP3   OH240161   6.142   0.196  11.673 -0.4732 -0.4100  0.5159
 6249TIP3    H140162   6.190   0.252  11.734 -0.9348 -0.0892  0.5873
 6249TIP3    H240163   6.206   0.173  11.606 -0.2119 -0.0067  0.6252
 6250TIP3   OH240164   5.649   2.866  17.230  0.0988 -0.2345 -0.4880
 6250TIP3    H140165   5.601   2.887  17.150  0.6663 -0.3005 -0.8559
 6250TIP3    H240166   5.694   2.783  17.210 -1.5899 -1.5077  0.6990
 6251TIP3   OH240167   2.555   4.350   0.527 -0.4206 -0.7776  0.6249
 6251TIP3    H140168   2.630   4.359   0.586 -1.3595 -1.2062  1.9275
 6251TIP3    H240169   2.594   4.339   0.441  1.0090 -0.6045  1.2193
 6252TIP3   OH240170   4.446   0.691   0.648 -0.3201 -0.2565  0.0678
 6252TIP3    H140171   4.415   0.779   0.672  0.5187  0.0751 -0.0329
 6252TIP3    H240172   4.506   0.706   0.576  1.3106 -0.7130  1.2706
 6253TIP3   OH240173   3.441   5.967   5.871  0.1758 -0.3835  0.1265
 6253TIP3    H140174   3.386   6.045   5.884  0.0457  0.1727 -2.8561
 6253TIP3    H240175   3.380   5.900   5.841  0.7187 -0.5957 -0.5281
 6254TIP3   OH240176   2.508   5.543   2.125 -0.4383 -0.3563  0.0274
 6254TIP3    H140177   2.460   5.613   2.170 -0.2219  0.3753 -0.8422
 6254TIP3    H240178   2.454   5.465   2.137 -1.4022  0.2568 -0.1624
 6255TIP3   OH240179   5.478   2.978   3.310 -0.0733 -0.0798 -0.5221
 6255TIP3    H140180   5.438   3.045   3.365  1.0458 -0.2475  0.5374
 6255TIP3    H240181   5.460   2.895   3.354  2.1265 -0.0916  0.4948
 6256TIP3   OH240182   6.687   1.979   0.291 -0.7822 -0.1983  0.2622
 6256TIP3    H140183   6.687   2.014   0.202  0.8265  0.2959  0.4132
 6256TIP3    H240184   6.773   1.937   0.300 -0.6109  0.3978  1.8029
 6257TIP3   OH240185   5.153   4.781   5.768 -0.5833  0.0335  0.0994
 6257TIP3    H140186   5.119   4.728   5.840 -2.5935 -0.8177 -1.3838
 6257TIP3    H240187   5.131   4.871   5.793  0.3280 -0.0536  1.3240
 6258TIP3   OH240188   0.358   0.926  11.121 -0.3103 -0.0359 -0.5781
 6258TIP3    H140189   0.263   0.922  11.109 -0.2469 -1.5309 -0.8297
 6258TIP3    H240190   0.391   0.848  11.076  0.9233 -0.2152  0.5621
 6259TIP3   OH240191   1.134   2.455  13.134  0.3652  0.0653  0.4950
 6259TIP3    H140192   1.212   2.491  13.178 -0.7971  1.4080  1.5576
 6259TIP3    H240193   1.128   2.506  13.053  1.5193 -1.2182 -0.4466
 6260TIP3   OH240194   2.604   0.717  11.705 -0.3043 -0.5601 -0.0029
 6260TIP3    H140195   2.641   0.657  11.640  2.2643 -1.3254  1.9519
 6260TIP3    H240196   2.607   0.803  11.664  0.5738 -1.1206 -1.1515
 6261TIP3   OH240197   3.851   2.830  12.746 -0.0122  0.4207 -0.1935
 6261TIP3    H140198   3.813   2.827  12.834 -0.3213  2.5128 -0.2092
 6261TIP3    H240199   3.863   2.738  12.722 -0.4670 -0.2018  1.7897
 6262TIP3   OH240200   2.839   3.961  11.260  0.9590 -0.0396  0.0283
 6262TIP3    H140201   2.930   3.955  11.287  0.8580  1.4637  0.8639
 6262TIP3    H240202   2.842   3.985  11.167  1.4229  0.3238  0.1367
 6263TIP3   OH240203   2.282   3.125   1.637 -0.2316  0.3651 -0.5822
 6263TIP3    H140204   2.225   3.053   1.662  1.4792 -1.2350 -1.0353
 6263TIP3    H240205   2.321   3.097   1.554  0.4038  1.8608 -0.8196
 6264TIP3   OH240206   1.044   3.246  13.397  0.4284  0.3125  0.1079
 6264TIP3    H140207   1.025   3.337  13.375  1.6287  0.8479  1.1406
 6264TIP3    H240208   1.058   3.203  13.312  2.4010  1.7116 -0.3404
 6265TIP3   OH240209   5.717   5.727  14.616  0.2014 -0.1263 -0.1462
 6265TIP3    H140210   5.709   5.823  14.614  0.2162 -0.1065  0.4495
 6265TIP3    H240211   5.740   5.707  14.707  0.6868 -0.6629 -0.3801
 6266TIP3   OH240212   3.075   0.298  14.985 -0.0144  0.3288 -0.0410
 6266TIP3    H140213   3.026   0.362  14.934  1.7432  0.2838 -1.9422
 6266TIP3    H240214   3.167   0.323  14.972  0.5583 -0.5910  1.9534
 6267TIP3   OH240215   5.451   0.322   3.271 -0.4498 -0.9324  0.1179
 6267TIP3    H140216   5.501   0.306   3.191 -0.1956  2.8919 -0.6747
 6267TIP3    H240217   5.360   0.314   3.244 -0.3777  0.6503 -0.7532
 6268TIP3   OH240218   5.086   3.480  11.680 -0.3899 -0.2024  0.7744
 6268TIP3    H140219   5.078   3.557  11.736  0.7528 -0.8498  1.9136
 6268TIP3    H240220   5.176   3.450  11.695 -0.2836 -0.8227 -0.8956
 6269TIP3   OH240221   1.172   5.829   3.518  0.5150  0.0285 -0.3328
 6269TIP3    H140222   1.195   5.736   3.521  1.2345  0.2146  1.7848
 6269TIP3    H240223   1.104   5.839   3.584  0.6866  1.0655 -0.2981
 6270TIP3   OH240224   0.495   4.833   1.467  0.0865 -0.4724 -0.2304
 6270TIP3    H140225   0.410   4.841   1.424  1.1924  0.4281 -2.4043
 6270TIP3    H240226   0.535   4.755   1.429  1.4274  0.8067 -1.5689
 6271TIP3   OH240227   6.136   5.112  15.987  0.4069 -0.5678  0.3268
 6271TIP3    H140228   6.152   5.202  15.957  0.5610 -0.3279  1.1213
 6271TIP3    H240229   6.189   5.103  16.066 -0.9936 -0.7827  1.2694
 6272TIP3   OH240230   3.682   6.316   5.393 -0.2333 -0.3184  0.3471
 6272TIP3    H140231   3.646   6.294   5.307  1.1888  1.1978 -0.6958
 6272TIP3    H240232   3.690   6.232   5.438 -0.1876 -1.2697 -1.3478
 6273TIP3   OH240233   2.612   4.230   2.625 -0.1188 -0.3064 -0.3837
 6273TIP3    H140234   2.672   4.156   2.615  0.9717  0.5688 -0.5184
 6273TIP3    H240235   2.669   4.305   2.639 -1.2434  0.1258  2.6638
 6274TIP3   OH240236   4.780   2.053  13.060  0.2217  0.0712 -0.3797
 6274TIP3    H140237   4.834   2.045  13.138  0.9543 -1.6959 -1.0115
 6274TIP3    H240238   4.765   2.147  13.050  1.7398  0.4668  0.7793
 6275TIP3   OH240239   1.465   1.060   4.116  0.3250  0.2194  0.1138
 6275TIP3    H140240   1.532   0.996   4.140  0.7429 -0.6249 -2.9193
 6275TIP3    H240241   1.515   1.137   4.088 -0.0378  0.3507 -0.1780
 6276TIP3   OH240242   3.828   4.481   1.834  0.4004  0.2169  0.7663
 6276TIP3    H140243   3.838   4.564   1.880 -1.7563  0.2822  1.2376
 6276TIP3    H240244   3.844   4.502   1.742  1.5510  0.7595  1.0685
 6277TIP3   OH240245   2.347   4.147  14.595 -0.0495  0.3857 -0.1617
 6277TIP3    H140246   2.407   4.170  14.666  0.1406 -1.3800  0.3088
 6277TIP3    H240247   2.301   4.228  14.574 -0.2956  0.9151  2.1625
 6278TIP3   OH240248   5.893   1.903   6.035 -0.4727 -0.4205 -0.0883
 6278TIP3    H140249   5.930   1.940   5.955  2.2394 -0.1012  1.2023
 6278TIP3    H240250   5.898   1.974   6.099 -0.2361 -1.3993  1.0145
 6279TIP3   OH240251   0.716   3.660  11.480 -0.9180  0.6744  0.4192
 6279TIP3    H140252   0.710   3.644  11.574 -1.4232  0.6952  0.3932
 6279TIP3    H240253   0.711   3.755  11.471  0.1913  0.7398  0.4415
 6280TIP3   OH240254   0.375   5.806  13.305  0.4196 -0.0621  0.3162
 6280TIP3    H140255   0.403   5.717  13.287 -2.0165 -0.8278  0.0211
 6280TIP3    H240256   0.386   5.853  13.222 -2.3216 -1.2686 -0.8468
 6281TIP3   OH240257   3.870   3.454   4.247  0.0195 -0.0742 -0.7199
 6281TIP3    H140258   3.826   3.539   4.245 -1.6990 -0.8380  0.8487
 6281TIP3    H240259   3.915   3.453   4.331 -2.4332 -1.7562  0.6998
 6282TIP3   OH240260   1.551   3.579   4.827 -0.4443  0.6331 -0.3217
 6282TIP3    H140261   1.641   3.550   4.844 -0.5679 -0.1238 -0.9047
 6282TIP3    H240262   1.515   3.597   4.913 -0.3509 -0.9736  0.0835
 6283TIP3   OH240263   6.200   1.244  11.908  0.4639  0.0811 -0.0505
 6283TIP3    H140264   6.214   1.247  11.813 -0.5049 -2.3145 -0.3411
 6283TIP3    H240265   6.136   1.174  11.921  0.9636 -0.0240  2.4134
 6284TIP3   OH240266   3.546   2.117   2.306  0.1745  0.2741  0.1149
 6284TIP3    H140267   3.550   2.212   2.294  0.2245  0.2610  0.0299
 6284TIP3    H240268   3.561   2.105   2.400  1.0817  0.3007 -0.0112
 6285TIP3   OH240269   0.385   1.576  12.317 -0.3466  0.2966  0.0218
 6285TIP3    H140270   0.331   1.650  12.346  1.0436  1.3975 -0.0939
 6285TIP3    H240271   0.392   1.520  12.394 -1.0347  0.5121  0.2505
 6286TIP3   OH240272   6.340   5.105   5.278  0.1270  0.0611 -0.5147
 6286TIP3    H140273   6.266   5.111   5.218  0.4831 -0.3149 -1.0023
 6286TIP3    H240274   6.416   5.089   5.221  0.5900  0.4988 -0.0316
 6287TIP3   OH240275   0.540   4.765  13.515  0.5871 -0.6876  1.1212
 6287TIP3    H140276   0.608   4.699  13.509  0.7601 -0.4739  0.7112
 6287TIP3    H240277   0.468   4.731  13.462  0.2940 -1.0092  1.7210
 6288TIP3   OH240278   2.269   0.214  11.621  0.7894 -0.1100 -0.4294
 6288TIP3    H140279   2.192   0.213  11.565 -0.7506 -0.0034  1.5893
 6288TIP3    H240280   2.251   0.148  11.688  2.4695 -0.0892  0.0877
 6289TIP3   OH240281   4.781   4.072  14.658  0.4254  0.1149  0.4250
 6289TIP3    H140282   4.736   3.996  14.622  2.4490 -0.7660 -0.4136
 6289TIP3    H240283   4.753   4.076  14.750 -0.3290 -1.1448  0.2659
 6290TIP3   OH240284   5.976   4.811   4.868 -0.0585  0.3734 -0.3802
 6290TIP3    H140285   6.008   4.728   4.904 -0.3102  0.2098 -0.5342
 6290TIP3    H240286   6.016   4.817   4.781 -0.3689  0.2183 -0.5318
 6291TIP3   OH240287   4.785   5.637  14.586 -0.5674  1.2891  0.1694
 6291TIP3    H140288   4.808   5.722  14.624 -2.6816  2.2722 -0.6057
 6291TIP3    H240289   4.862   5.613  14.533  0.2552  2.4786  0.7767
 6292TIP3   OH240290   2.696   1.785  14.640  0.1216  0.2115  0.0095
 6292TIP3    H140291   2.748   1.864  14.651 -0.5968  0.7978 -0.6396
 6292TIP3    H240292   2.758   1.713  14.652  0.9172  0.8766 -0.0141
 6293TIP3   OH240293   0.725   1.200  17.538  0.5196  0.1835  0.1957
 6293TIP3    H140294   0.791   1.261  17.505  0.0062 -0.4744 -2.2373
 6293TIP3    H240295   0.642   1.233  17.504 -0.4724  0.8868  3.0387
 6294TIP3   OH240296   0.215   2.993  12.247  0.4807  0.2680 -0.0729
 6294TIP3    H140297   0.263   2.964  12.324  0.4180  2.0850  0.6988
 6294TIP3    H240298   0.124   3.002  12.277  0.2186 -0.1964 -0.6998
 6295TIP3   OH240299   1.473   3.497   3.175  0.0175 -0.3749  0.4858
 6295TIP3    H140300   1.460   3.478   3.268  1.3163 -0.7225  0.6223
 6295TIP3    H240301   1.554   3.548   3.173  0.4038 -1.0050 -0.5168
 6296TIP3   OH240302   1.572   2.991   4.457 -0.5671 -0.3218  0.2270
 6296TIP3    H140303   1.581   2.948   4.372 -2.3027  0.9241 -0.6605
 6296TIP3    H240304   1.617   2.933   4.518  1.7283 -0.7211 -1.6721
 6297TIP3   OH240305   0.054   1.693  11.275 -0.1635 -0.0816 -0.6124
 6297TIP3    H140306   0.043   1.753  11.201  1.7042 -0.0815 -0.9438
 6297TIP3    H240307   0.056   1.606  11.235  0.8774 -0.0799 -0.5781
 6298TIP3   OH240308   5.065   4.053  14.822 -0.4561 -0.1312 -0.2682
 6298TIP3    H140309   5.028   4.020  14.740 -1.9688  0.1648  0.2704
 6298TIP3    H240310   5.049   4.147  14.820 -0.1737 -0.0683  0.2047
 6299TIP3   OH240311   4.571   1.649   5.060 -0.3190 -0.0059  0.4555
 6299TIP3    H140312   4.643   1.711   5.050 -0.7067  0.5660  1.1976
 6299TIP3    H240313   4.614   1.563   5.062  0.6178  0.4414  3.4384
 6300TIP3   OH240314   5.656   4.860  14.879 -1.0473  0.4452 -0.1270
 6300TIP3    H140315   5.651   4.877  14.785  0.8953  2.0272 -0.0182
 6300TIP3    H240316   5.730   4.912  14.909 -0.1885 -1.7689  1.9273
 6301TIP3   OH240317   4.687   2.675  17.579 -0.0800 -0.2723 -0.0919
 6301TIP3    H140318   4.678   2.661  17.484 -1.1096 -1.2078  0.1171
 6301TIP3    H240319   4.628   2.748  17.598 -0.1419 -0.3162 -0.1145
 6302TIP3   OH240320   4.510   1.256  13.933 -0.0380  0.2129 -0.3237
 6302TIP3    H140321   4.486   1.275  13.843 -1.9329  1.7466  0.4422
 6302TIP3    H240322   4.471   1.327  13.984  2.0054  0.0729  1.5988
 6303TIP3   OH240323   5.597   5.717   5.185 -0.7209  0.3279 -0.2316
 6303TIP3    H140324   5.608   5.801   5.230 -0.8688 -0.5262  1.4710
 6303TIP3    H240325   5.611   5.738   5.092  1.1771  1.8748  0.3207
 6304TIP3   OH240326   4.810   3.564   4.334  0.4726 -0.0385  0.2881
 6304TIP3    H140327   4.860   3.491   4.299  0.7010  0.4359 -0.3799
 6304TIP3    H240328   4.769   3.529   4.413 -1.8468 -1.8384 -1.5408
 6305TIP3   OH240329   4.419   0.466  16.719 -0.1386  0.0719 -0.0602
 6305TIP3    H140330   4.437   0.388  16.666  1.5630 -0.7645  1.6194
 6305TIP3    H240331   4.359   0.518  16.665 -0.5911 -1.9333 -1.6416
 6306TIP3   OH240332   1.826   5.741  16.641 -0.4643  0.2302  0.1911
 6306TIP3    H140333   1.785   5.709  16.560 -1.5930 -0.9570  1.1785
 6306TIP3    H240334   1.791   5.829  16.652 -2.6784 -0.6760  0.8919
 6307TIP3   OH240335   6.376   3.191  13.292 -0.3803  0.0552  0.0806
 6307TIP3    H140336   6.455   3.207  13.343  0.2861  1.3146 -1.2684
 6307TIP3    H240337   6.379   3.099  13.270  1.0462  0.2215 -0.4769
 6308TIP3   OH240338   1.674   4.725   5.652  0.5693 -0.1122 -0.0896
 6308TIP3    H140339   1.610   4.705   5.721 -0.6166  0.3992 -0.9988
 6308TIP3    H240340   1.633   4.694   5.572  2.0487 -0.9350 -0.5647
 6309TIP3   OH240341   3.277   4.425   4.318  0.2242  0.1878  0.3757
 6309TIP3    H140342   3.370   4.428   4.341  0.4870  0.9740 -0.7462
 6309TIP3    H240343   3.239   4.502   4.360  0.4196  0.8098 -0.5704
 6310TIP3   OH240344   0.184   5.418  12.553 -0.2565  0.3639  0.2329
 6310TIP3    H140345   0.250   5.467  12.602 -0.1490 -1.0674  1.5657
 6310TIP3    H240346   0.139   5.364  12.618 -1.4400 -0.1465 -0.9481
 6311TIP3   OH240347   0.466   5.907  15.913  0.0450  0.2507 -0.3029
 6311TIP3    H140348   0.433   5.996  15.905 -1.2428 -0.1999 -0.3145
 6311TIP3    H240349   0.541   5.914  15.972 -1.2547  1.0761  1.3508
 6312TIP3   OH240350   6.081   0.960  16.444 -0.0776 -0.1318  0.2233
 6312TIP3    H140351   6.054   1.045  16.479 -2.0377 -0.0719 -1.2568
 6312TIP3    H240352   6.009   0.900  16.467 -0.3700 -0.5737 -1.6837
 6313TIP3   OH240353   3.541   5.442   2.819  0.0561  0.3216 -0.1143
 6313TIP3    H140354   3.507   5.373   2.876  1.4160 -0.1815  0.1254
 6313TIP3    H240355   3.630   5.414   2.798  0.1792  1.3736 -1.0679
 6314TIP3   OH240356   4.758   5.934  15.906  0.1876 -0.0926  0.0836
 6314TIP3    H140357   4.804   5.876  15.846  0.8352 -1.2856  1.6534
 6314TIP3    H240358   4.690   5.879  15.945  1.1624 -0.0176  2.0168
 6315TIP3   OH240359   1.062   1.441  14.861 -0.0295 -0.0978  0.5159
 6315TIP3    H140360   1.059   1.399  14.947  2.1699  0.3355  0.8459
 6315TIP3    H240361   0.998   1.513  14.868 -0.1148 -0.2584  1.6791
 6316TIP3   OH240362   1.201   4.551   0.974 -0.8652 -0.0853  0.3666
 6316TIP3    H140363   1.178   4.564   1.066 -0.8951  1.5555  0.1687
 6316TIP3    H240364   1.207   4.640   0.939  0.5039 -0.6385 -0.8844
 6317TIP3   OH240365   5.528   3.931   0.451 -0.1626  0.3419 -0.0129
 6317TIP3    H140366   5.450   3.896   0.408 -1.5141  3.1875 -0.1507
 6317TIP3    H240367   5.494   3.975   0.529  1.2966  1.5207  0.0089
 6318TIP3   OH240368   5.556   0.015  16.993 -0.3804  0.5813  0.2614
 6318TIP3    H140369   5.640   0.056  17.011  0.8376 -1.2531 -0.8453
 6318TIP3    H240370   5.528   0.054  16.910  0.5059 -0.3589 -0.5077
 6319TIP3   OH240371   3.727   0.270   0.484 -0.0455 -0.6100 -0.0913
 6319TIP3    H140372   3.656   0.231   0.536 -0.8109 -0.4285 -0.9688
 6319TIP3    H240373   3.684   0.341   0.435  0.4963 -1.2117 -1.4838
 6320TIP3   OH240374   6.313   5.765   3.415  0.5156 -0.4417  0.7305
 6320TIP3    H140375   6.231   5.724   3.443 -0.3556  1.7784  1.6580
 6320TIP3    H240376   6.354   5.699   3.359 -2.2756 -1.3255 -0.4851
 6321TIP3   OH240377   4.512   5.785  11.313 -0.9852  0.2174  0.1482
 6321TIP3    H140378   4.520   5.713  11.377  2.2004  1.7780  1.7686
 6321TIP3    H240379   4.582   5.768  11.250 -1.7614  0.6660 -0.8561
 6322TIP3   OH240380   5.680   6.624   4.037  0.6883  0.6558 -0.2095
 6322TIP3    H140381   5.718   6.601   4.122 -1.8113 -0.9393  0.6016
 6322TIP3    H240382   5.737   6.693   4.003  3.1756 -0.3300  1.6295
 6323TIP3   OH240383   2.386   1.073  11.502 -0.8289  0.4172 -0.5914
 6323TIP3    H140384   2.380   1.158  11.545 -1.1496  0.2117 -0.2254
 6323TIP3    H240385   2.300   1.033  11.514 -0.0095 -0.9229  1.2636
 6324TIP3   OH240386   3.771   1.441  16.917  0.0246 -0.0424 -0.1886
 6324TIP3    H140387   3.813   1.473  16.997 -1.3280  0.5319  0.3293
 6324TIP3    H240388   3.695   1.391  16.948  0.9942 -2.1297 -1.0607
 6325TIP3   OH240389   0.310   5.800   0.915  0.8782 -0.0718  0.4936
 6325TIP3    H140390   0.309   5.764   0.826  1.2567  1.0003  0.0418
 6325TIP3    H240391   0.398   5.837   0.925  0.0150  2.1383  0.3516
 6326TIP3   OH240392   6.398   1.157  14.221  0.2653  0.0777  0.3516
 6326TIP3    H140393   6.490   1.186  14.221  0.3836  0.1803  4.0906
 6326TIP3    H240394   6.403   1.061  14.220  0.3963  0.0864  0.1507
 6327TIP3   OH240395   0.500   0.716  16.035 -0.1555 -0.1084  0.5547
 6327TIP3    H140396   0.517   0.737  15.943 -1.0406  0.7554  0.5693
 6327TIP3    H240397   0.532   0.792  16.084 -1.0985  0.1431  0.8154
 6328TIP3   OH240398   2.800   5.834   2.709 -0.4823 -0.0642  0.2842
 6328TIP3    H140399   2.793   5.926   2.737  1.1220  0.6082 -1.3673
 6328TIP3    H240400   2.888   5.808   2.735 -0.6312 -0.8800 -0.0150
 6329TIP3   OH240401   0.574   1.164  13.449  0.3215 -0.3983  0.4934
 6329TIP3    H140402   0.633   1.134  13.518  0.1186  1.0310  1.3292
 6329TIP3    H240403   0.577   1.259  13.455 -1.6375 -0.2750  0.2027
 6330TIP3   OH240404   4.117   1.000   5.647 -0.0011  0.4587 -0.9595
 6330TIP3    H140405   4.062   0.927   5.677  1.7728 -1.6467 -2.5137
 6330TIP3    H240406   4.198   0.990   5.697  0.3543  1.2529 -1.3675
 6331TIP3   OH240407   3.664   3.925   2.594  0.1798  0.6177 -0.0666
 6331TIP3    H140408   3.620   4.011   2.598  0.2996  0.6300  1.7852
 6331TIP3    H240409   3.677   3.901   2.686  1.0267 -0.9506 -0.5734
 6332TIP3   OH240410   1.253   1.829   5.284  0.1646  0.2184 -0.7264
 6332TIP3    H140411   1.342   1.800   5.302  0.3250  1.6161  0.9167
 6332TIP3    H240412   1.261   1.887   5.208  0.5237 -0.2624 -1.0632
 6333TIP3   OH240413   3.097   0.532  12.125 -0.0555 -0.6600 -0.1475
 6333TIP3    H140414   3.019   0.573  12.163  0.5376  1.2375 -0.8641
 6333TIP3    H240415   3.147   0.501  12.200 -1.6641 -2.2820  0.3050
 6334TIP3   OH240416   5.293   6.646   4.263 -0.0017 -0.2106 -0.3152
 6334TIP3    H140417   5.247   6.568   4.233  1.6925 -1.9584  1.3474
 6334TIP3    H240418   5.358   6.664   4.195 -0.9463  0.3372 -1.1129
 6335TIP3   OH240419   0.337   0.590  14.802 -0.1831 -0.3537 -0.3910
 6335TIP3    H140420   0.430   0.592  14.827 -0.5136  0.4302  0.8837
 6335TIP3    H240421   0.337   0.551  14.715  1.3328 -0.5138 -0.3580
 6336TIP3   OH240422   2.646   0.687  15.942 -0.2540  0.2553  0.7784
 6336TIP3    H140423   2.603   0.678  15.857 -0.6364  0.9564  0.8851
 6336TIP3    H240424   2.646   0.599  15.978 -1.1620  0.1478  0.5488
 6337TIP3   OH240425   1.938   1.238  15.007 -0.1258 -0.0789  0.4487
 6337TIP3    H140426   1.946   1.330  14.982 -1.2469 -0.0733  0.0514
 6337TIP3    H240427   1.860   1.236  15.063  0.2301 -0.6934  0.9274
 6338TIP3   OH240428   4.335   5.600  16.519 -0.0701 -0.6874  0.5471
 6338TIP3    H140429   4.387   5.666  16.564 -0.1451  0.1651 -0.5875
 6338TIP3    H240430   4.399   5.549  16.469 -0.0450 -1.3035  1.1913
 6339TIP3   OH240431   1.506   4.842   2.645  0.0128 -0.0902 -0.1223
 6339TIP3    H140432   1.571   4.905   2.613 -0.3496  0.0458 -0.5850
 6339TIP3    H240433   1.550   4.800   2.719  0.9762 -0.6222 -0.9613
 6340TIP3   OH240434   3.864   4.376  15.055  0.6116  0.4157 -0.1568
 6340TIP3    H140435   3.909   4.357  14.973  1.7326  0.9556  0.3159
 6340TIP3    H240436   3.818   4.458  15.039  1.7010  1.0890  0.0692
 6341TIP3   OH240437   4.429   4.816   4.439 -0.0960 -1.0657 -0.1897
 6341TIP3    H140438   4.495   4.796   4.505 -0.3219 -2.1809 -0.2843
 6341TIP3    H240439   4.466   4.889   4.390  1.1536 -1.7554 -0.3372
 6342TIP3   OH240440   1.479   3.518  11.677 -0.2105  0.3818 -0.1484
 6342TIP3    H140441   1.405   3.580  11.679 -0.3540  0.2375 -0.7400
 6342TIP3    H240442   1.553   3.570  11.647  0.6141  1.1970  2.9199
 6343TIP3   OH240443   5.173   5.052   3.358 -0.7015 -0.3353 -0.1039
 6343TIP3    H140444   5.130   4.992   3.418  1.7080 -0.5687  1.5274
 6343TIP3    H240445   5.262   5.060   3.391  0.1670  1.1557 -2.5066
 6344TIP3   OH240446   1.373   4.976  16.546 -0.4049  0.4101 -0.3898
 6344TIP3    H140447   1.459   4.997  16.583 -0.4341 -0.7297  0.3687
 6344TIP3    H240448   1.373   5.018  16.460  2.0755 -1.9031 -1.6623
 6345TIP3   OH240449   0.499   4.672   2.688 -0.1282 -0.1210  0.0048
 6345TIP3    H140450   0.406   4.685   2.667  0.1575 -0.0156 -1.2780
 6345TIP3    H240451   0.518   4.583   2.658 -0.1346 -0.6475  1.5117
 6346TIP3   OH240452   0.463   4.913   2.405  0.0094 -0.1454  0.5916
 6346TIP3    H140453   0.419   4.930   2.489 -2.9424  1.3204 -1.1019
 6346TIP3    H240454   0.539   4.970   2.406 -1.1237  1.4258  1.4596
 6347TIP3   OH240455   2.469   3.676   6.056 -0.0226 -0.9355  0.0592
 6347TIP3    H140456   2.460   3.705   6.147  2.3656  0.2574 -0.0114
 6347TIP3    H240457   2.499   3.586   6.063  1.0177 -0.5749  0.5180
 6348TIP3   OH240458   1.724   6.311   2.021 -0.3128 -0.1314 -0.5916
 6348TIP3    H140459   1.739   6.349   2.108 -2.2887  0.6161 -0.5157
 6348TIP3    H240460   1.805   6.327   1.974  0.2410  0.8826  0.6266
 6349TIP3   OH240461   5.192   3.337  15.331  0.3870  0.1599  0.0494
 6349TIP3    H140462   5.106   3.350  15.371  0.2358 -1.0034  0.1485
 6349TIP3    H240463   5.177   3.352  15.238 -0.0297 -0.4131  0.0127
 6350TIP3   OH240464   2.475   0.315  10.735 -0.0420  0.9182 -1.1726
 6350TIP3    H140465   2.390   0.328  10.776  0.6142  1.9297 -0.0546
 6350TIP3    H240466   2.481   0.221  10.720 -0.6935  0.6278  0.2436
 6351TIP3   OH240467   3.936   0.560   5.261  0.2803  0.0348  0.7286
 6351TIP3    H140468   3.998   0.631   5.282  0.5695  0.8446 -2.3354
 6351TIP3    H240469   3.852   0.604   5.251  0.2195 -0.2501 -0.0241
 6352TIP3   OH240470   6.705   1.394   2.600  0.7153  0.2773  0.1160
 6352TIP3    H140471   6.680   1.472   2.552  1.4473  0.0901 -0.5846
 6352TIP3    H240472   6.789   1.416   2.642  2.5429 -1.0516 -2.5438
 6353TIP3   OH240473   6.614   1.016   3.067 -0.3443 -0.6613  0.2153
 6353TIP3    H140474   6.645   0.982   2.984  0.4474  2.0441 -0.7075
 6353TIP3    H240475   6.523   1.039   3.052 -0.5825 -1.4046  0.5140
 6354TIP3   OH240476   0.402   6.683  15.466 -0.3253  0.2896 -0.2361
 6354TIP3    H140477   0.439   6.596  15.456  0.3447  0.5788 -0.3433
 6354TIP3    H240478   0.420   6.707  15.557  0.1784  0.6195 -0.4182
 6355TIP3   OH240479   3.428   6.711   0.421  0.1272  0.2964  0.5779
 6355TIP3    H140480   3.377   6.779   0.464 -0.9817  0.9589 -1.6147
 6355TIP3    H240481   3.365   6.665   0.365  0.6404 -3.1941  2.5901
 6356TIP3   OH240482   4.089   2.663   6.164  0.3272  0.3892  0.0316
 6356TIP3    H140483   4.083   2.634   6.255  0.8149  1.8018  0.5422
 6356TIP3    H240484   4.165   2.617   6.129  0.9568  0.8496  0.7564
 6357TIP3   OH240485   2.846   1.342  17.145 -0.2966  0.1946 -0.1363
 6357TIP3    H140486   2.814   1.382  17.065 -2.7075  1.6544  1.4242
 6357TIP3    H240487   2.781   1.275  17.167 -0.2496  0.5279  1.1145
 6358TIP3   OH240488   1.469   1.746   0.876  0.2198 -0.3569  0.5148
 6358TIP3    H140489   1.387   1.790   0.855  0.7199  0.0737 -0.5695
 6358TIP3    H240490   1.512   1.803   0.940  1.7639  1.8459 -2.2850
 6359TIP3   OH240491   0.237   3.126  16.415 -0.1184 -0.2433  0.1720
 6359TIP3    H140492   0.196   3.077  16.487 -0.0683 -0.0526  0.3303
 6359TIP3    H240493   0.172   3.124  16.345 -0.6653  0.5772  0.6343
 6360TIP3   OH240494   6.181   4.937  12.342 -0.3589  0.5158 -0.3720
 6360TIP3    H140495   6.238   4.913  12.414 -0.7732 -0.7802 -0.4540
 6360TIP3    H240496   6.112   4.871  12.342 -0.7575  0.8988 -1.5167
 6361TIP3   OH240497   0.870   4.860  13.732  0.2447 -0.0820  0.1286
 6361TIP3    H140498   0.964   4.875  13.741  0.7068 -3.2363  1.9787
 6361TIP3    H240499   0.862   4.806  13.653  0.1050 -0.4743  0.4080
 6362TIP3   OH240500   2.573   5.109  13.171  0.3960 -0.1263  0.1224
 6362TIP3    H140501   2.521   5.048  13.224  0.7618 -0.3610  0.2138
 6362TIP3    H240502   2.508   5.157  13.119  0.0053  0.4459  1.1226
 6363TIP3   OH240503   6.664   3.211  12.880 -0.2228 -0.3173  0.2547
 6363TIP3    H140504   6.691   3.177  12.795 -0.5530 -1.4864  0.6067
 6363TIP3    H240505   6.653   3.134  12.936 -0.4349  0.3955  1.2400
 6364TIP3   OH240506   2.824   1.785  14.357  0.0048  0.2829  0.2825
 6364TIP3    H140507   2.760   1.753  14.420  0.3349 -0.0318  0.4639
 6364TIP3    H240508   2.778   1.786  14.273  0.0552 -0.9417  0.2166
 6365TIP3   OH240509   0.602   0.407   5.188 -0.2787 -0.0695  0.0307
 6365TIP3    H140510   0.618   0.495   5.221 -0.2443 -0.1873  0.3302
 6365TIP3    H240511   0.507   0.402   5.176 -0.1208  0.6963 -1.9333
 6366TIP3   OH240512   2.990   2.734  16.347  0.1454  0.8114  0.8012
 6366TIP3    H140513   2.901   2.732  16.312  0.2529 -0.3389  0.5782
 6366TIP3    H240514   3.046   2.747  16.270  0.3971 -1.9323  0.4502
 6367TIP3   OH240515   0.542   6.586   2.829  0.4675  0.1318  0.3246
 6367TIP3    H140516   0.543   6.627   2.742  0.2795  1.1745  0.7930
 6367TIP3    H240517   0.632   6.556   2.842  0.2560 -0.9624 -0.6442
 6368TIP3   OH240518   2.210   0.488   0.905  0.0084  0.7819  0.0806
 6368TIP3    H140519   2.212   0.475   0.811 -2.2800 -1.3742  0.2231
 6368TIP3    H240520   2.254   0.411   0.941 -0.5707  0.7563  0.7772
 6369TIP3   OH240521   6.492   0.906  16.102 -0.1550 -0.1000 -0.6634
 6369TIP3    H140522   6.546   0.914  16.181  0.5590  0.2185 -1.1694
 6369TIP3    H240523   6.407   0.941  16.128 -0.1920 -0.7949  0.2104
 6370TIP3   OH240524   1.952   5.757  12.586 -0.1468 -0.2023  0.1264
 6370TIP3    H140525   1.972   5.802  12.669  1.6775  1.6958 -1.2206
 6370TIP3    H240526   2.038   5.734  12.551 -0.6401  1.4896 -2.4654
 6371TIP3   OH240527   3.522   6.593  11.261 -0.4594 -0.3239  0.6606
 6371TIP3    H140528   3.607   6.624  11.229 -1.2835  0.9103 -0.3889
 6371TIP3    H240529   3.499   6.655  11.331 -0.8146 -0.2536  0.4788
 6372TIP3   OH240530   4.569   2.701   6.215 -0.3640  0.7193 -0.1089
 6372TIP3    H140531   4.490   2.653   6.240  0.6273 -0.9228  0.0075
 6372TIP3    H240532   4.639   2.661   6.266  0.8970  0.6355 -1.7916
 6373TIP3   OH240533   0.220   3.952  15.691 -0.5112 -0.1358  0.2317
 6373TIP3    H140534   0.180   3.870  15.661 -0.7362  0.0718 -0.0391
 6373TIP3    H240535   0.239   3.936  15.784 -0.7538 -0.4179  0.2364
 6374TIP3   OH240536   4.092   2.756  15.108  0.5785  0.5332 -0.4205
 6374TIP3    H140537   4.174   2.805  15.094  0.3519  0.8608 -0.6189
 6374TIP3    H240538   4.032   2.821  15.145  1.0690 -0.2244  1.8742
 6375TIP3   OH240539   0.372   5.988   5.337  0.4095 -0.4226  0.7911
 6375TIP3    H140540   0.367   5.902   5.378  2.2272 -1.4910 -1.0866
 6375TIP3    H240541   0.464   5.998   5.312 -0.2653  0.8716 -1.4506
 6376TIP3   OH240542   4.280   1.900  10.910 -0.0170  0.2986  0.4814
 6376TIP3    H140543   4.338   1.972  10.937 -1.2646  0.7927  1.9939
 6376TIP3    H240544   4.195   1.923  10.947 -0.3504 -2.2135  1.4483
 6377TIP3   OH240545   4.168   2.725  16.043 -0.6170  0.1741 -0.0434
 6377TIP3    H140546   4.222   2.779  16.101 -1.7701 -0.4033  1.6586
 6377TIP3    H240547   4.148   2.782  15.969  0.9641  0.9232  0.0795
 6378TIP3   OH240548   0.379   0.179  12.066 -0.0526  0.0980 -0.6849
 6378TIP3    H140549   0.305   0.135  12.108  2.0590 -1.0147  2.2037
 6378TIP3    H240550   0.380   0.145  11.977 -1.2499 -2.1932  0.0979
 6379TIP3   OH240551   1.253   3.241  11.714  0.8023 -0.0042 -0.6695
 6379TIP3    H140552   1.299   3.320  11.743 -1.9142  1.2418  0.5967
 6379TIP3    H240553   1.163   3.270  11.699 -0.3613 -2.9223  0.0665
 6380TIP3   OH240554   4.802   4.548  10.821  0.3030 -0.2267 -0.4623
 6380TIP3    H140555   4.855   4.476  10.788  0.2019 -0.4902 -0.0581
 6380TIP3    H240556   4.764   4.588  10.743 -2.0666 -2.4603 -0.5803
 6381TIP3   OH240557   3.344   3.354   0.929  0.1687  0.0085  0.0730
 6381TIP3    H140558   3.306   3.382   0.846 -1.0264  1.0049  0.9188
 6381TIP3    H240559   3.352   3.259   0.920  2.2100  0.2851 -2.0152
 6382TIP3   OH240560   4.166   1.191  15.484 -0.6377  0.1570 -0.1697
 6382TIP3    H140561   4.146   1.279  15.452 -0.8509  0.5306  0.9424
 6382TIP3    H240562   4.102   1.135  15.440  0.1988  0.3779 -1.7216
 6383TIP3   OH240563   1.333   4.095  11.238  0.3890 -0.0854 -0.1705
 6383TIP3    H140564   1.387   4.024  11.273  0.6080  0.4133  0.5072
 6383TIP3    H240565   1.312   4.149  11.314  0.5153  0.7718 -0.7351
 6384TIP3   OH240566   4.116   2.795  15.518  0.1069 -0.1525 -0.1355
 6384TIP3    H140567   4.084   2.827  15.433 -1.8356 -2.4001 -0.3370
 6384TIP3    H240568   4.038   2.786  15.572  0.9483 -1.5864  0.9020
 6385TIP3   OH240569   0.168   2.719  11.778 -0.5578  0.3452 -1.0229
 6385TIP3    H140570   0.151   2.675  11.861  1.2099  0.1375 -0.7199
 6385TIP3    H240571   0.172   2.812  11.800 -1.2968  0.4023 -1.1101
 6386TIP3   OH240572   1.655   2.544   4.391  0.1937 -0.4191  0.3362
 6386TIP3    H140573   1.732   2.547   4.446 -0.8500 -0.2187  1.8429
 6386TIP3    H240574   1.605   2.469   4.423 -0.6374 -0.0448 -0.0437
 6387TIP3   OH240575   3.443   2.461  11.933  0.4249 -0.1472 -0.1533
 6387TIP3    H140576   3.447   2.365  11.935 -1.9012 -0.2978  0.5884
 6387TIP3    H240577   3.504   2.489  12.001  1.7869 -1.0335 -0.9594
 6388TIP3   OH240578   4.586   3.694  16.345  0.3501  0.2791  0.1300
 6388TIP3    H140579   4.499   3.678  16.380  1.0011 -0.8702  1.3190
 6388TIP3    H240580   4.571   3.745  16.265 -1.4327 -0.3667  0.0068
 6389TIP3   OH240581   6.189   5.224  13.465  0.1783 -0.1241  0.4220
 6389TIP3    H140582   6.252   5.155  13.444  0.5867 -0.0116  1.2436
 6389TIP3    H240583   6.211   5.251  13.553 -1.9092 -1.0560  1.3122
 6390TIP3   OH240584   4.570   5.623   0.203  0.3743  0.1075 -0.0373
 6390TIP3    H140585   4.628   5.547   0.194  0.9977  0.5502  0.1842
 6390TIP3    H240586   4.482   5.588   0.187  0.6407 -0.6854  0.1853
 6391TIP3   OH240587   5.879   5.099   4.091  0.1355 -0.4779 -0.5822
 6391TIP3    H140588   5.969   5.089   4.120 -0.5367 -1.8852  1.2340
 6391TIP3    H240589   5.868   5.035   4.021  0.0664 -1.7215  0.5206
 6392TIP3   OH240590   3.686   5.643   4.565  0.2362  0.4216  0.2190
 6392TIP3    H140591   3.714   5.600   4.646 -1.2771  1.5432  1.3884
 6392TIP3    H240592   3.764   5.641   4.510  1.1290 -0.9430  1.4397
 6393TIP3   OH240593   3.725   4.054  13.911 -0.3765  0.1717 -0.2217
 6393TIP3    H140594   3.635   4.024  13.924 -0.1904  0.1043  1.0944
 6393TIP3    H240595   3.724   4.098  13.826 -1.7086  0.3896 -0.1119
 6394TIP3   OH240596   5.119   5.338  13.732 -0.0702  0.2500 -0.5221
 6394TIP3    H140597   5.081   5.330  13.644 -1.1242 -0.2248 -0.0383
 6394TIP3    H240598   5.112   5.432  13.752  2.5688  0.8764 -1.9413
 6395TIP3   OH240599   1.225   5.088   4.480 -0.0819  0.6532  0.1301
 6395TIP3    H140600   1.295   5.111   4.542 -0.2188 -0.7515  0.8371
 6395TIP3    H240601   1.207   5.170   4.433  0.5052  1.5840  1.4616
 6396TIP3   OH240602   0.523   3.897   4.932 -0.0376  1.2405  0.4168
 6396TIP3    H140603   0.587   3.842   4.887  0.8784  0.9769  1.9395
 6396TIP3    H240604   0.535   3.876   5.025  0.1442  3.7604  1.0406
 6397TIP3   OH240605   1.240   0.914  13.687 -0.1792  0.1309  0.6524
 6397TIP3    H140606   1.151   0.919  13.652 -0.6568 -0.1596  1.7776
 6397TIP3    H240607   1.286   0.987  13.646 -1.2636  1.0009  0.9253
 6398TIP3   OH240608   1.472   6.368   3.863  0.3611  0.6213 -0.0169
 6398TIP3    H140609   1.455   6.304   3.932 -0.9591  0.5939 -0.3418
 6398TIP3    H240610   1.399   6.358   3.802  0.1975  2.3273 -0.1552
 6399TIP3   OH240611   0.083   5.983  16.091  0.2213  0.2521  0.4249
 6399TIP3    H140612   0.003   5.931  16.099 -0.4505  1.2089  0.1746
 6399TIP3    H240613   0.102   5.985  15.997  0.4565  0.1596  0.4686
 6400TIP3   OH240614   3.929   5.235  13.421  0.4546 -0.2296 -0.0587
 6400TIP3    H140615   3.951   5.227  13.328  1.8936  2.6179 -0.0504
 6400TIP3    H240616   3.834   5.227  13.423  0.2381  1.1261 -2.0062
 6401TIP3   OH240617   3.678   1.943   5.594  0.2139  0.3617 -0.1462
 6401TIP3    H140618   3.606   1.990   5.553  1.1005  1.7281 -0.2091
 6401TIP3    H240619   3.678   1.857   5.553 -0.3724  0.9062 -1.3133
 6402TIP3   OH240620   4.878   6.554   5.182  0.3382  0.5504 -0.2246
 6402TIP3    H140621   4.848   6.529   5.270  0.1663  0.5037 -0.2949
 6402TIP3    H240622   4.842   6.486   5.125  0.9513  0.2471 -0.2585
 6403TIP3   OH240623   3.813   1.663   1.003 -0.0003  0.0773  0.0370
 6403TIP3    H140624   3.777   1.747   1.032 -1.6518 -0.4735 -0.3079
 6403TIP3    H240625   3.752   1.633   0.936  0.1278 -1.7474  0.6827
 6404TIP3   OH240626   4.376   6.071  11.623  0.1200  0.1817 -0.0892
 6404TIP3    H140627   4.327   6.017  11.561  3.1337 -2.1489 -0.7052
 6404TIP3    H240628   4.411   6.008  11.686  0.8398  1.9218  1.3188
 6405TIP3   OH240629   3.315   6.017   6.246  0.6012 -0.5724 -0.1508
 6405TIP3    H140630   3.337   6.030   6.338 -1.5682  2.0010  0.1195
 6405TIP3    H240631   3.358   6.089   6.200 -3.0088  1.8679 -0.1792
 6406TIP3   OH240632   0.036   4.637   6.195  0.2849 -0.4018 -0.5550
 6406TIP3    H140633   0.014   4.556   6.242 -0.6787  0.6763  0.9299
 6406TIP3    H240634   0.023   4.707   6.259 -2.9153  1.3602 -2.8806
 6407TIP3   OH240635   0.147   1.237   3.863 -0.5065 -0.3133  0.0723
 6407TIP3    H140636   0.227   1.285   3.841 -1.1322  1.5173  1.4908
 6407TIP3    H240637   0.076   1.299   3.845 -1.7381 -2.1730 -1.9291
 6408TIP3   OH240638   1.627   1.104   5.228 -0.7614  0.0681  0.4431
 6408TIP3    H140639   1.670   1.021   5.209  1.0160  0.8581  0.7939
 6408TIP3    H240640   1.590   1.132   5.144  0.8596  0.1386 -0.2844
 6409TIP3   OH240641   4.814   5.249  17.434  0.2587 -0.0780 -0.1117
 6409TIP3    H140642   4.909   5.249  17.447  0.5018 -1.0656 -1.5987
 6409TIP3    H240643   4.792   5.341  17.420  0.6608  0.4186  2.2176
 6410TIP3   OH240644   2.456   2.090   5.483  0.6194 -0.0387 -0.2065
 6410TIP3    H140645   2.369   2.055   5.506  0.4632  0.4985  0.0316
 6410TIP3    H240646   2.451   2.107   5.389  0.8932 -1.2004 -0.4515
 6411TIP3   OH240647   0.758   6.666  11.292  0.3046 -0.4824  0.4678
 6411TIP3    H140648   0.740   6.722  11.368 -1.7470  0.0757 -0.3700
 6411TIP3    H240649   0.824   6.604  11.323  1.4805  1.3730  1.9070
 6412TIP3   OH240650   5.918   4.465   0.632 -0.7065 -0.1133 -0.3119
 6412TIP3    H140651   5.865   4.542   0.648 -0.4981 -0.1052  0.3625
 6412TIP3    H240652   5.934   4.428   0.719 -1.2215 -1.1945 -0.6530
 6413TIP3   OH240653   6.354   1.541  14.161 -0.1528  0.2263 -0.2698
 6413TIP3    H140654   6.405   1.479  14.109  0.3621  0.6007 -0.2199
 6413TIP3    H240655   6.267   1.539  14.121 -0.2230 -0.7281 -0.0928
 6414TIP3   OH240656   4.824   0.267  14.252 -0.2177 -0.3748 -0.6913
 6414TIP3    H140657   4.898   0.297  14.305 -1.6534  0.7145  0.7869
 6414TIP3    H240658   4.850   0.180  14.223  0.4786 -1.2844  2.2696
 6415TIP3   OH240659   1.124   5.081   3.771 -0.0967 -0.3272  0.1162
 6415TIP3    H140660   1.196   5.099   3.832  0.4583 -0.7599 -0.3876
 6415TIP3    H240661   1.072   5.014   3.815 -0.0742 -0.1598  0.4005
 6416TIP3   OH240662   5.453   0.369  16.892  0.0553 -0.2880 -0.1753
 6416TIP3    H140663   5.503   0.447  16.868  2.5562 -2.2845 -2.0990
 6416TIP3    H240664   5.423   0.333  16.808 -1.3708 -1.2197  0.6822
 6417TIP3   OH240665   3.523   2.650   5.183 -0.1492  0.0641  0.0156
 6417TIP3    H140666   3.580   2.644   5.260 -2.1973  0.8610  1.7106
 6417TIP3    H240667   3.434   2.644   5.219 -1.2588  2.0493 -2.1109
 6418TIP3   OH240668   0.577   3.306  16.539  0.0586 -0.4402 -0.4083
 6418TIP3    H140669   0.525   3.231  16.510 -1.6976 -0.6390  2.7745
 6418TIP3    H240670   0.512   3.375  16.555  1.2718  0.6863 -0.2191
 6419TIP3   OH240671   3.706   4.371  13.091  0.3274  0.3189  0.5853
 6419TIP3    H140672   3.649   4.327  13.154 -0.5247 -0.7377 -0.8663
 6419TIP3    H240673   3.648   4.430  13.043  0.4520 -0.6317 -0.7922
 6420TIP3   OH240674   0.930   3.968  12.249  0.4982  0.6078 -0.0022
 6420TIP3    H140675   0.929   4.026  12.325 -0.1243 -1.0140  1.2842
 6420TIP3    H240676   0.838   3.961  12.223  0.4527 -0.4297  0.3835
 6421TIP3   OH240677   6.247   3.459   0.922  0.2477  0.3123  0.5611
 6421TIP3    H140678   6.320   3.410   0.961  0.8521  1.2803  0.6718
 6421TIP3    H240679   6.225   3.410   0.843 -1.5263 -2.1587  2.4134
 6422TIP3   OH240680   4.342   1.494  16.497  0.4867 -0.1054  0.3513
 6422TIP3    H140681   4.294   1.571  16.525  1.9392  1.4810 -1.2849
 6422TIP3    H240682   4.355   1.443  16.578 -1.3789  0.8189  1.2890
 6423TIP3   OH240683   2.890   4.900   0.169 -0.0978 -0.4063 -0.8283
 6423TIP3    H140684   2.835   4.861   0.101 -0.4668 -0.1845 -0.6575
 6423TIP3    H240685   2.828   4.939   0.231  0.2531 -0.1004 -0.6661
 6424TIP3   OH240686   3.805   5.466   0.816  0.5004 -0.1467 -0.0363
 6424TIP3    H140687   3.761   5.424   0.743 -0.4729  1.2142 -0.2662
 6424TIP3    H240688   3.768   5.425   0.894 -2.0914  1.7271 -0.1801
 6425TIP3   OH240689   3.466   1.534  17.505 -0.2561 -0.1273 -1.2457
 6425TIP3    H140690   3.377   1.498  17.501 -0.4535  0.2290 -0.3301
 6425TIP3    H240691   3.494   1.517  17.595  1.8093 -3.0422 -2.2812
 6426TIP3   OH240692   1.646   1.594  12.358  0.1527  0.2755 -0.4777
 6426TIP3    H140693   1.647   1.588  12.454  0.0913  1.9594 -0.3397
 6426TIP3    H240694   1.701   1.670  12.339  0.0154  0.0663 -1.7833
 6427TIP3   OH240695   4.161   3.193  16.371 -0.1045 -0.3403  0.4356
 6427TIP3    H140696   4.110   3.274  16.369  2.4661  1.3825 -0.1501
 6427TIP3    H240697   4.214   3.200  16.451  0.2355 -1.4303  0.3245
 6428TIP3   OH240698   6.396   0.091  15.884  0.4378  0.3318 -0.2385
 6428TIP3    H140699   6.385   0.119  15.975  3.2949 -1.1329  0.7012
 6428TIP3    H240700   6.465   0.149  15.850  0.0811  0.2270 -1.1577
 6429TIP3   OH240701   3.683   3.685  13.972  0.3749  0.3443 -0.5624
 6429TIP3    H140702   3.680   3.704  13.878 -0.4028  3.7544  0.0172
 6429TIP3    H240703   3.775   3.693  13.995  0.5336 -0.2457 -0.9675
 6430TIP3   OH240704   0.002   5.350  17.288  0.2858 -0.2405 -0.2174
 6430TIP3    H140705  -0.070   5.322  17.345  0.0244  0.1485 -0.3548
 6430TIP3    H240706   0.079   5.305  17.323  0.0406 -0.3859  0.1432
 6431TIP3   OH240707   0.468   4.732  16.511 -0.3651 -0.7141 -0.3879
 6431TIP3    H140708   0.542   4.716  16.568  0.7678  1.5241 -1.0888
 6431TIP3    H240709   0.397   4.757  16.570 -0.1649 -1.5207  0.2086
 6432TIP3   OH240710   4.515   2.930  10.641  0.0777  0.7899 -0.3267
 6432TIP3    H140711   4.599   2.961  10.674  0.8089 -1.8727  0.6070
 6432TIP3    H240712   4.494   2.854  10.696 -1.6518 -0.1949 -2.1815
 6433TIP3   OH240713   4.966   2.178  11.675 -0.2409 -0.0362  0.0629
 6433TIP3    H140714   5.024   2.245  11.711  1.9507 -1.6282 -0.2945
 6433TIP3    H240715   4.910   2.226  11.614  0.7640  1.5909  0.3342
 6434TIP3   OH240716   6.012   3.562   3.192 -0.3877 -0.3179 -0.9772
 6434TIP3    H140717   5.944   3.592   3.132 -1.7759 -0.1910  0.6076
 6434TIP3    H240718   6.057   3.642   3.219 -2.9113  0.3209  1.8275
 6435TIP3   OH240719   5.497   5.485   2.007  0.5574  0.2329  0.5413
 6435TIP3    H140720   5.490   5.390   2.011  0.8789 -0.0063 -2.4033
 6435TIP3    H240721   5.410   5.517   2.032 -0.3686 -1.0106 -0.8824
 6436TIP3   OH240722   5.482   6.291   0.997 -0.8522  0.1827  0.3282
 6436TIP3    H140723   5.420   6.364   0.991 -3.1237 -1.5964  0.4068
 6436TIP3    H240724   5.500   6.268   0.906  0.2106  1.0804  0.2992
 6437TIP3   OH240725   5.290   1.304   1.755  0.2734  0.4409  0.3402
 6437TIP3    H140726   5.299   1.392   1.791  0.6888  0.7173 -0.4238
 6437TIP3    H240727   5.279   1.318   1.661 -3.0618 -0.1304  0.5319
 6438TIP3   OH240728   2.426   1.972   6.189  0.0307 -0.0146  0.2536
 6438TIP3    H140729   2.474   1.959   6.108 -0.7583  1.4710 -0.4917
 6438TIP3    H240730   2.433   1.888   6.235 -0.1753 -1.1537 -1.7015
 6439TIP3   OH240731   3.385   3.993  14.207  0.0885 -0.0122  0.1925
 6439TIP3    H140732   3.319   3.931  14.236  0.0004 -0.1931 -0.3836
 6439TIP3    H240733   3.469   3.949  14.221  0.1038  0.2930  1.1064
 6440TIP3   OH240734   3.245   2.685   2.038 -0.0966 -0.3599 -0.0290
 6440TIP3    H140735   3.279   2.773   2.025 -1.3695 -0.1166 -2.2965
 6440TIP3    H240736   3.252   2.644   1.952 -0.8440 -1.9780  0.6358
 6441TIP3   OH240737   6.646   5.777  11.749  0.6756 -0.1377  0.2218
 6441TIP3    H140738   6.680   5.694  11.784 -0.1836 -0.6307 -0.0800
 6441TIP3    H240739   6.716   5.840  11.765  1.3977 -0.9515  0.3373
 6442TIP3   OH240740   0.938   4.639  16.921 -0.3404 -0.4442  0.4674
 6442TIP3    H140741   1.009   4.673  16.976 -1.5100 -0.8971  2.3253
 6442TIP3    H240742   0.888   4.582  16.979 -0.8371 -2.0784 -1.4639
 6443TIP3   OH240743   6.712   5.442   0.102  0.2893  0.2387  0.6904
 6443TIP3    H140744   6.806   5.448   0.088  0.1602 -1.0784 -1.1861
 6443TIP3    H240745   6.695   5.497   0.178  2.3309  1.8279  0.0833
 6444TIP3   OH240746   1.918   1.403   1.503 -0.1862  0.1419  0.2056
 6444TIP3    H140747   1.895   1.338   1.569 -0.1998 -0.0657 -0.0046
 6444TIP3    H240748   1.867   1.480   1.527  0.1576  0.2174  0.7115
 6445TIP3   OH240749   4.504   4.015   1.552  0.5935  0.3977 -0.8714
 6445TIP3    H140750   4.421   4.044   1.587  0.3247 -0.8355 -0.4300
 6445TIP3    H240751   4.564   4.017   1.626  0.5129 -0.3614 -0.7788
 6446TIP3   OH240752   1.782   2.364   5.518 -0.2459 -0.2130  0.3551
 6446TIP3    H140753   1.877   2.351   5.522 -0.3236 -0.5237  1.9610
 6446TIP3    H240754   1.751   2.341   5.606 -1.7005  0.7764  0.1394
 6447TIP3   OH240755   2.956   0.373  13.977  0.3980  0.4805  0.5044
 6447TIP3    H140756   2.965   0.437  14.047 -0.4520 -0.0912  1.1589
 6447TIP3    H240757   2.896   0.413  13.914 -0.3119  0.2538  1.0243
 6448TIP3   OH240758   6.363   5.833   0.871 -0.6518 -1.1080 -0.1910
 6448TIP3    H140759   6.419   5.802   0.800 -1.0711 -2.1129 -0.1026
 6448TIP3    H240760   6.374   5.928   0.870 -0.2825 -1.1408 -1.2894
 6449TIP3   OH240761   3.551   5.185   5.628  0.2688  0.0231  0.1612
 6449TIP3    H140762   3.616   5.139   5.575  0.2759  0.2817 -0.0579
 6449TIP3    H240763   3.544   5.133   5.708 -1.6139 -1.8252 -1.0953
 6450TIP3   OH240764   6.708   3.525  13.428 -0.6111 -1.1479  0.4212
 6450TIP3    H140765   6.743   3.557  13.511  2.1577 -1.5352 -0.4755
 6450TIP3    H240766   6.616   3.550  13.429 -0.4629 -0.3735  3.2029
 6451TIP3   OH240767   2.442   1.732   4.302  0.4460  0.8140 -0.3447
 6451TIP3    H140768   2.533   1.704   4.294  0.6270 -0.1182  3.0773
 6451TIP3    H240769   2.392   1.650   4.308 -0.2987  1.2915  0.2180
 6452TIP3   OH240770   0.644   2.100  13.409  0.3923  0.7182  0.5694
 6452TIP3    H140771   0.670   2.162  13.477  1.4492  2.0098 -0.9553
 6452TIP3    H240772   0.701   2.024  13.423  2.9732  2.2891 -0.8308
 6453TIP3   OH240773   0.329   0.207   0.782  0.3485 -1.4878  0.0316
 6453TIP3    H140774   0.419   0.191   0.808  0.3625 -1.2508  0.1348
 6453TIP3    H240775   0.335   0.245   0.695  0.4274 -0.2827  0.5402
 6454TIP3   OH240776   1.861   4.480  10.027 -0.7928 -0.1194  0.1508
 6454TIP3    H140777   1.845   4.516  10.115  0.3891  1.1562 -0.1302
 6454TIP3    H240778   1.886   4.556   9.975 -0.4523 -1.0362 -1.0420
 6455TIP3   OH240779   6.132   6.420  15.179  0.0287  0.0385  0.0872
 6455TIP3    H140780   6.169   6.384  15.259  0.7222 -0.1492 -0.3135
 6455TIP3    H240781   6.115   6.512  15.199 -2.6026 -0.6353  1.4248
 6456TIP3   OH240782   5.339   3.760  11.974  0.4443 -0.1548 -0.2397
 6456TIP3    H140783   5.414   3.729  11.923  0.4345 -1.5028  0.5044
 6456TIP3    H240784   5.263   3.734  11.922  0.4639 -0.5486 -0.0809
 6457TIP3   OH240785   4.368   5.321  16.191 -0.3289  0.5087  0.5511
 6457TIP3    H140786   4.274   5.338  16.192 -0.0282  2.4264 -0.0713
 6457TIP3    H240787   4.405   5.386  16.250  0.6003 -0.4496  1.0683
 6458TIP3   OH240788   5.638   3.929  16.739 -0.6574 -0.3637 -0.0411
 6458TIP3    H140789   5.587   3.873  16.798 -1.6784  2.4498  2.0004
 6458TIP3    H240790   5.576   3.996  16.710  0.9532  0.9476 -0.6110
 6459TIP3   OH240791   3.913   4.207  16.881  0.2109  0.7989 -0.2783
 6459TIP3    H140792   3.921   4.127  16.829 -0.2873  0.9289 -0.5618
 6459TIP3    H240793   3.961   4.274  16.831 -0.8102  1.0760 -0.9027
 6460TIP3   OH240794   3.163   4.401  10.408 -0.3871  0.0440 -0.3113
 6460TIP3    H140795   3.089   4.413  10.348 -1.1178 -2.0189  0.0751
 6460TIP3    H240796   3.123   4.366  10.488  0.6916  1.7376  1.0542
 6461TIP3   OH240797   3.460   4.511   3.157  0.0784  0.1119 -0.1321
 6461TIP3    H140798   3.413   4.519   3.240 -1.8649  0.9735 -1.2348
 6461TIP3    H240799   3.532   4.573   3.163 -0.1456  0.2957  0.8304
 6462TIP3   OH240800   6.098   4.100  16.977  0.2593 -0.1300 -0.2661
 6462TIP3    H140801   6.152   4.033  16.936  0.7342  0.3589 -0.4475
 6462TIP3    H240802   6.071   4.157  16.906  0.5557  0.3547  0.0075
 6463TIP3   OH240803   5.417   6.232  15.073 -0.1822  0.8615  0.5070
 6463TIP3    H140804   5.394   6.165  15.009 -0.4797  0.2431  1.2609
 6463TIP3    H240805   5.412   6.314  15.024 -2.2949  0.6000  0.1939
 6464TIP3   OH240806   0.128   3.855   5.638 -0.2991  0.3245 -0.2871
 6464TIP3    H140807   0.215   3.871   5.673 -0.9380  0.8702  1.1236
 6464TIP3    H240808   0.085   3.941   5.641  0.1871  0.9075 -4.2508
 6465TIP3   OH240809   1.800   6.232  12.721  0.3087  0.2745  0.1407
 6465TIP3    H140810   1.881   6.188  12.748  0.7240 -0.1727 -1.6570
 6465TIP3    H240811   1.828   6.297  12.657 -0.5670  1.5738  1.0338
 6466TIP3   OH240812   0.376   0.894   3.114 -0.4070 -0.1612 -0.1452
 6466TIP3    H140813   0.467   0.874   3.092 -0.5666 -0.8673 -0.2111
 6466TIP3    H240814   0.353   0.969   3.060 -0.2655 -0.7940 -1.0986
 6467TIP3   OH240815   1.824   1.205   2.353 -0.5260 -0.2275 -0.1719
 6467TIP3    H140816   1.879   1.176   2.280  0.2487  1.2071 -0.1835
 6467TIP3    H240817   1.846   1.145   2.424  1.3571  0.5288 -0.0643
 6468TIP3   OH240818   5.079   5.040   5.261  0.6879 -0.3316  0.3634
 6468TIP3    H140819   4.994   5.054   5.305  0.8171  2.0813  0.0055
 6468TIP3    H240820   5.143   5.069   5.326  1.1733 -1.0171  0.1935
 6469TIP3   OH240821   4.441   4.471  11.969 -0.4136 -0.3230  0.4409
 6469TIP3    H140822   4.423   4.420  11.891  0.0309  3.8385 -2.7543
 6469TIP3    H240823   4.536   4.475  11.974 -0.4351  0.5698  0.3068
 6470TIP3   OH240824   4.138   1.031   0.431  0.2879 -0.5084 -0.0182
 6470TIP3    H140825   4.095   1.070   0.507  1.8201  1.1494  0.0640
 6470TIP3    H240826   4.085   0.954   0.411 -3.8623  2.2827 -1.0939
 6471TIP3   OH240827   0.817   5.173  16.430 -0.0665 -0.9382  0.3957
 6471TIP3    H140828   0.776   5.256  16.455  1.2325 -0.1402 -0.0088
 6471TIP3    H240829   0.816   5.121  16.510  1.6607  0.5771  1.4937
 6472TIP3   OH240830   4.951   3.002   5.188  0.1337  0.0874 -0.0529
 6472TIP3    H140831   4.961   3.090   5.153 -1.8583  0.0998 -0.7505
 6472TIP3    H240832   4.990   2.945   5.122  0.6425  0.3777 -0.0097
 6473TIP3   OH240833   4.946   2.704  13.132  0.2496  0.3694 -0.5647
 6473TIP3    H140834   4.995   2.720  13.051  1.1018  1.0503  0.0668
 6473TIP3    H240835   4.962   2.611  13.151  1.9706  0.7501  0.0330
 6474TIP3   OH240836   2.231   1.504  13.889  0.1682  0.3588  0.2342
 6474TIP3    H140837   2.279   1.586  13.877 -0.1978  0.3680 -1.4228
 6474TIP3    H240838   2.261   1.448  13.817 -0.8479 -0.3311  0.3262
 6475TIP3   OH240839   2.543   1.114   4.203 -0.1739 -0.5090 -0.6425
 6475TIP3    H140840   2.456   1.075   4.198 -0.2124 -0.2382 -2.4983
 6475TIP3    H240841   2.533   1.201   4.165  0.3340  0.6701  1.7144
 6476TIP3   OH240842   1.237   4.429   5.369 -0.4590 -0.0183 -0.7989
 6476TIP3    H140843   1.217   4.446   5.277  1.4131 -0.1400 -1.2714
 6476TIP3    H240844   1.284   4.345   5.368  0.4584  0.4623  0.1310
 6477TIP3   OH240845   3.020   3.493  15.844  0.1490 -0.6046  0.1716
 6477TIP3    H140846   2.973   3.416  15.814 -0.2343 -0.3146  0.0175
 6477TIP3    H240847   3.082   3.512  15.774  0.2436 -0.7764  0.2091
 6478TIP3   OH240848   5.205   5.537  15.784 -0.1066 -0.3466  0.6724
 6478TIP3    H140849   5.271   5.604  15.770 -0.5662  0.5682  2.5030
 6478TIP3    H240850   5.148   5.573  15.852 -2.5585 -1.0615 -0.8608
 6479TIP3   OH240851   5.942   6.434  17.291 -0.0255 -0.3865 -0.2638
 6479TIP3    H140852   6.015   6.450  17.231 -0.3928  1.9662 -0.1805
 6479TIP3    H240853   5.983   6.405  17.373  0.7261 -0.1015 -0.5400
 6480TIP3   OH240854   1.625   4.523  14.409  0.0999  0.0995  0.0912
 6480TIP3    H140855   1.690   4.548  14.475 -0.3668  1.1320  0.1768
 6480TIP3    H240856   1.569   4.600  14.400  0.9095  0.4940 -2.4532
 6481TIP3   OH240857   0.951   1.219  10.315  0.3309 -0.3765  0.5904
 6481TIP3    H140858   0.985   1.297  10.271  1.2414 -0.9563  0.2257
 6481TIP3    H240859   1.028   1.166  10.333 -0.3823 -1.8208 -0.4102
 6482TIP3   OH240860   2.941   5.346  11.472  0.1635  0.4131  0.4395
 6482TIP3    H140861   2.891   5.307  11.543 -0.7973  1.6229  0.4579
 6482TIP3    H240862   3.033   5.329  11.495 -0.1720 -0.2762  1.3231
 6483TIP3   OH240863   0.619   1.351  14.888 -0.2537  0.0382  0.3476
 6483TIP3    H140864   0.627   1.442  14.915 -0.0122 -0.2068  1.1400
 6483TIP3    H240865   0.702   1.311  14.912 -0.9268 -0.7500  1.4910
 6484TIP3   OH240866   1.964   4.861  12.095 -0.3340  0.6310  0.4482
 6484TIP3    H140867   2.058   4.845  12.089 -0.4302  0.4510 -0.7409
 6484TIP3    H240868   1.953   4.954  12.077 -0.5108  0.3443 -1.0044
 6485TIP3   OH240869   5.064   2.836   0.446  0.4016  0.1825  0.6091
 6485TIP3    H140870   5.125   2.861   0.515  0.3641  1.6856  0.1203
 6485TIP3    H240871   5.119   2.798   0.378  0.7757  1.1782  0.3367
 6486TIP3   OH240872   3.600   1.051  17.419  0.5896  0.4236 -0.3659
 6486TIP3    H140873   3.514   1.044  17.377  0.4810  0.7011 -0.1893
 6486TIP3    H240874   3.662   1.032  17.349  0.3658 -0.3157 -0.3704
 6487TIP3   OH240875   6.286   1.804   5.697 -0.0590 -0.7550  0.2520
 6487TIP3    H140876   6.359   1.852   5.658  1.1985 -2.9511 -0.2751
 6487TIP3    H240877   6.313   1.789   5.788 -1.3782  1.2432  1.0320
 6488TIP3   OH240878   4.302   2.655  12.991 -0.1031 -0.4058 -0.0508
 6488TIP3    H140879   4.279   2.746  12.971 -1.0121 -0.7853 -0.8581
 6488TIP3    H240880   4.266   2.639  13.078  0.1807  0.0489  0.1505
 6489TIP3   OH240881   0.163   5.286  11.350  0.2839  0.2346 -0.1701
 6489TIP3    H140882   0.131   5.309  11.437 -0.2911 -1.9738  0.2477
 6489TIP3    H240883   0.136   5.360  11.295  0.0108  1.3249  1.3722
 6490TIP3   OH240884   1.938   6.694  15.594 -0.2097  0.0410 -0.1717
 6490TIP3    H140885   2.033   6.703  15.601 -0.2691 -0.4650  1.5490
 6490TIP3    H240886   1.925   6.622  15.533  0.5993 -1.6820  1.5884
 6491TIP3   OH240887   4.938   1.412  11.617 -0.4275 -0.3878 -0.3822
 6491TIP3    H140888   4.862   1.429  11.562 -0.5999  1.0711  0.2462
 6491TIP3    H240889   4.918   1.330  11.662 -0.4889 -1.3608 -2.0913
 6492TIP3   OH240890   1.215   0.268   5.179 -0.6028 -0.2390 -0.1465
 6492TIP3    H140891   1.126   0.249   5.148 -0.3292 -1.0379 -0.4547
 6492TIP3    H240892   1.246   0.337   5.120 -0.7689 -0.4364 -0.4679
 6493TIP3   OH240893   3.983   4.327  16.630  0.5718  1.0852  0.4639
 6493TIP3    H140894   3.896   4.299  16.601  1.1594  0.3761 -0.7088
 6493TIP3    H240895   3.989   4.419  16.605  0.4670  0.9090 -0.2324
 6494TIP3   OH240896   1.838   6.134   3.788 -0.6721 -0.6965 -0.1350
 6494TIP3    H140897   1.863   6.058   3.840  1.3045 -1.2299 -1.7227
 6494TIP3    H240898   1.917   6.188   3.785 -1.2026  0.0544 -1.3207
 6495TIP3   OH240899   3.498   0.164   1.800  0.1250 -0.6146 -0.9124
 6495TIP3    H140900   3.585   0.131   1.777  0.6001  0.2482 -0.4270
 6495TIP3    H240901   3.470   0.214   1.723  0.1213 -0.7777 -1.0161
 6496TIP3   OH240902   5.367   5.266   4.787 -0.3566 -0.2523  0.0304
 6496TIP3    H140903   5.274   5.251   4.773 -0.1203  0.2859 -2.7924
 6496TIP3    H240904   5.387   5.342   4.732  1.7657 -0.4074  0.5083
 6497TIP3   OH240905   4.701   4.912   1.926 -0.5614 -0.1993 -0.0315
 6497TIP3    H140906   4.733   5.001   1.939  0.8273 -0.4414 -1.4882
 6497TIP3    H240907   4.616   4.924   1.882 -2.0191  0.4158  2.7393
 6498TIP3   OH240908   5.937   0.344   0.761  0.5238 -0.4255 -0.4203
 6498TIP3    H140909   5.997   0.335   0.687  1.5966 -1.4508  0.5410
 6498TIP3    H240910   5.888   0.424   0.742  0.6697 -0.7359 -2.2987
 6499TIP3   OH240911   1.269   4.808   0.204 -0.1137 -0.6120  0.4442
 6499TIP3    H140912   1.242   4.890   0.247  2.7193  0.9744 -0.5443
 6499TIP3    H240913   1.199   4.792   0.140 -0.0692  1.9223 -0.3597
 6500TIP3   OH240914   5.423   0.511  17.194  0.1458  0.0038  0.0016
 6500TIP3    H140915   5.484   0.442  17.166  2.8055  2.7440 -1.6319
 6500TIP3    H240916   5.431   0.513  17.289  1.6323 -0.6039 -0.0764
 6501TIP3   OH240917   1.023   2.641   5.073 -0.0143  0.1358 -0.1622
 6501TIP3    H140918   0.978   2.572   5.024  1.6668  0.2732 -2.0274
 6501TIP3    H240919   1.016   2.614   5.165 -2.2319 -0.7636 -0.5282
 6502TIP3   OH240920   4.021   3.055  14.575 -0.3660 -0.2300 -0.1443
 6502TIP3    H140921   4.088   2.987  14.573 -1.5600 -1.5142  1.1479
 6502TIP3    H240922   4.052   3.118  14.640  0.7959  0.5920 -1.4233
 6503TIP3   OH240923   5.687   1.275  11.872  0.2367  0.2757  0.1795
 6503TIP3    H140924   5.674   1.280  11.778 -0.1683  1.6711  0.2938
 6503TIP3    H240925   5.613   1.222  11.904  0.1519  0.1435 -0.2394
 6504TIP3   OH240926   1.257   1.314  17.209 -0.2546 -0.1088  0.0810
 6504TIP3    H140927   1.171   1.272  17.208  0.4677 -1.6750  0.6371
 6504TIP3    H240928   1.292   1.302  17.121 -0.2453 -0.2692  0.1066
 6505TIP3   OH240929   5.994   1.681   4.358  0.4197 -0.7205 -0.0461
 6505TIP3    H140930   5.960   1.735   4.430 -0.0023 -0.6159 -0.3258
 6505TIP3    H240931   5.953   1.596   4.371 -2.5695  0.2483 -2.2470
 6506TIP3   OH240932   0.361   4.179   4.200 -0.3444 -0.3176  0.0252
 6506TIP3    H140933   0.456   4.174   4.200 -0.3092  0.2321  0.6770
 6506TIP3    H240934   0.332   4.088   4.211  0.1513 -0.3001  1.9789
 6507TIP3   OH240935   6.051   1.522   5.709 -0.5363 -0.2294 -0.0690
 6507TIP3    H140936   5.998   1.571   5.771 -0.8016 -1.1174  0.4189
 6507TIP3    H240937   5.988   1.482   5.649 -0.6651 -3.0989  1.8080
 6508TIP3   OH240938   5.934   2.419  13.878  0.2997 -0.2031 -0.1132
 6508TIP3    H140939   5.845   2.448  13.894  0.4509 -0.5381  1.4586
 6508TIP3    H240940   5.965   2.475  13.807 -0.4755  1.3264  0.7201
 6509TIP3   OH240941   0.757   6.420  11.967  0.1588  0.0047 -0.0155
 6509TIP3    H140942   0.711   6.341  11.997  0.9492  0.0155  1.3118
 6509TIP3    H240943   0.775   6.468  12.048 -1.4039  2.1918 -0.8773
 6510TIP3   OH240944   1.909   4.604  15.937  0.0863 -0.1561 -0.0637
 6510TIP3    H140945   1.907   4.599  15.842  1.6642 -0.1228 -0.1297
 6510TIP3    H240946   2.001   4.590  15.960  0.1190  1.8689  1.3279
 6511TIP3   OH240947   3.536   2.911   1.522  0.3728 -0.1552 -0.5006
 6511TIP3    H140948   3.536   2.846   1.593 -2.1094 -0.2996 -0.5222
 6511TIP3    H240949   3.507   2.861   1.445  0.6106  0.5198 -1.0304
 6512TIP3   OH240950   4.868   2.081   0.606  0.0758 -0.2805 -0.6810
 6512TIP3    H140951   4.865   2.002   0.659 -1.8002  0.6391  0.6637
 6512TIP3    H240952   4.786   2.079   0.556  0.7528  0.0380 -1.8325
 6513TIP3   OH240953   3.392   3.593   1.417  0.0781  0.3511  0.2866
 6513TIP3    H140954   3.378   3.685   1.437 -0.0605  0.4446 -0.2522
 6513TIP3    H240955   3.420   3.591   1.326  1.5303 -0.0087  0.7113
 6514TIP3   OH240956   1.298   2.802   1.698 -0.0760 -0.3190 -0.1831
 6514TIP3    H140957   1.259   2.849   1.624  0.7978 -2.0366 -1.8079
 6514TIP3    H240958   1.298   2.866   1.770 -0.4960  1.5669 -1.7908
 6515TIP3   OH240959   0.910   4.988  13.976  0.6237  0.2269  0.4477
 6515TIP3    H140960   0.856   4.953  13.906  0.0928 -0.1916  1.0650
 6515TIP3    H240961   0.910   5.083  13.960 -0.7231  0.2979  0.7340
 6516TIP3   OH240962   4.361   2.783   5.414 -0.2975  0.4819  0.5430
 6516TIP3    H140963   4.347   2.802   5.321 -0.8553  0.8600  0.7017
 6516TIP3    H240964   4.360   2.869   5.457  0.3384  0.3442  0.8553
 6517TIP3   OH240965   4.424   1.649   5.345  0.4549 -0.0423 -0.2036
 6517TIP3    H140966   4.354   1.687   5.292  1.3619  1.5014 -0.3586
 6517TIP3    H240967   4.482   1.608   5.281 -0.1041 -1.0361 -0.1008
 6518TIP3   OH240968   4.377   1.399   1.524 -0.0868  0.5972 -0.8955
 6518TIP3    H140969   4.345   1.429   1.609 -0.2338  2.0519 -1.4376
 6518TIP3    H240970   4.302   1.408   1.465 -0.0317 -0.5537 -1.1665
 6519TIP3   OH240971   5.095   4.985  12.162  0.1633  1.0636 -0.1984
 6519TIP3    H140972   5.036   4.937  12.104  1.0223  0.2351 -0.4081
 6519TIP3    H240973   5.146   5.041  12.104 -1.6156  3.1367  0.1518
 6520TIP3   OH240974   0.698   0.486   1.163  0.5792  0.2221  0.1587
 6520TIP3    H140975   0.679   0.434   1.241 -1.5302 -1.2059 -1.2038
 6520TIP3    H240976   0.649   0.567   1.176 -1.9831 -1.0801 -0.7403
 6521TIP3   OH240977   2.512   5.250  14.928 -0.1270 -0.4224 -0.3232
 6521TIP3    H140978   2.454   5.239  15.003 -0.5032  0.2022 -0.5165
 6521TIP3    H240979   2.508   5.165  14.882  2.0515 -1.7241  1.6760
 6522TIP3   OH240980   1.394   4.389   1.689 -0.5969  0.4866  0.0588
 6522TIP3    H140981   1.451   4.382   1.765 -0.4564  3.1548  0.2905
 6522TIP3    H240982   1.418   4.315   1.633  1.2177  0.0483  1.3497
 6523TIP3   OH240983   5.163   5.470  17.392 -0.1400  0.8914 -0.1332
 6523TIP3    H140984   5.156   5.489  17.298  0.2818 -2.5326 -1.0002
 6523TIP3    H240985   5.257   5.467  17.408 -0.2121  1.2456  0.3599
 6524TIP3   OH240986   6.116   4.800  14.917  0.0385 -0.3620  0.1103
 6524TIP3    H140987   6.211   4.810  14.926  0.0395  0.3359 -0.5473
 6524TIP3    H240988   6.104   4.708  14.891  0.6312 -0.1795 -0.8835
 6525TIP3   OH240989   0.190   4.444   1.729  0.1750  0.3396 -0.1565
 6525TIP3    H140990   0.239   4.517   1.692  1.9870 -1.6412 -1.9328
 6525TIP3    H240991   0.239   4.420   1.808 -0.0640  0.6414  0.0858
 6526TIP3   OH240992   1.496   4.729  16.149 -0.0108  0.5046 -0.1819
 6526TIP3    H140993   1.587   4.716  16.123  0.2138 -0.8634  1.1668
 6526TIP3    H240994   1.499   4.804  16.209  0.7176 -1.1506  1.9925
 6527TIP3   OH240995   1.355   4.153   4.816 -0.8816  0.4761 -0.5695
 6527TIP3    H140996   1.326   4.123   4.903  0.9502 -1.4178 -0.5268
 6527TIP3    H240997   1.432   4.207   4.834 -1.9238  2.1172 -0.9080
 6528TIP3   OH240998   4.033   4.594  13.484 -0.1443 -0.1338  0.0497
 6528TIP3    H140999   4.022   4.684  13.455  1.6282 -0.3611 -1.4900
 6528TIP3    H241000   3.959   4.547  13.446 -1.7241  0.8080  1.8058
 6529TIP3   OH241001   5.493   2.044   1.493 -0.4940  0.5520  0.0232
 6529TIP3    H141002   5.445   2.125   1.477 -1.4657  0.3686  1.8083
 6529TIP3    H241003   5.436   1.975   1.457 -0.2960  0.5512 -0.2905
 6530TIP3   OH241004   0.959   1.582   2.696  0.3693  0.7353 -0.3213
 6530TIP3    H141005   0.980   1.647   2.629 -0.2671  0.4640 -0.7929
 6530TIP3    H241006   0.876   1.611   2.734  0.0721  0.1985 -0.5457
 6531TIP3   OH241007   3.643   5.017   1.692 -0.0320  0.0696 -0.4946
 6531TIP3    H141008   3.726   5.025   1.738 -0.0649  0.1955 -0.4552
 6531TIP3    H241009   3.624   4.923   1.691 -0.0362  0.0666 -0.2419
 6532TIP3   OH241010   0.450   5.461  16.486  0.1405  0.2590  0.4113
 6532TIP3    H141011   0.404   5.450  16.568 -0.0702  2.3488  0.6227
 6532TIP3    H241012   0.464   5.555  16.478  2.1909 -0.0709 -0.8351
 6533TIP3   OH241013   0.860   2.659   5.749 -0.1548 -0.3544 -0.0184
 6533TIP3    H141014   0.895   2.582   5.793 -1.6890 -1.4154 -0.5731
 6533TIP3    H241015   0.765   2.653   5.763 -0.2693  1.8053  0.4991
 6534TIP3   OH241016   3.025   6.620   1.684 -0.4533  0.1287 -0.4389
 6534TIP3    H141017   3.119   6.603   1.682 -0.0187  1.8893  1.4118
 6534TIP3    H241018   2.993   6.571   1.759 -1.0957 -0.6993 -1.2340
 6535TIP3   OH241019   4.423   0.803  14.987 -0.1215  0.1676 -0.1704
 6535TIP3    H141020   4.483   0.872  15.015  1.4540 -0.8495 -0.8912
 6535TIP3    H241021   4.420   0.811  14.892  2.1907 -2.2695 -0.5904
 6536TIP3   OH241022   1.761   1.649  15.507 -0.1372  0.5430 -0.2634
 6536TIP3    H141023   1.840   1.643  15.561  0.4576 -0.7835 -1.2254
 6536TIP3    H241024   1.792   1.680  15.422 -0.4755 -0.7994 -0.9156
 6537TIP3   OH241025   2.312   4.241  11.128  0.5562 -0.3603  0.7449
 6537TIP3    H141026   2.362   4.239  11.046 -1.3452 -0.7598 -0.4601
 6537TIP3    H241027   2.333   4.326  11.166 -0.0604  0.7291 -1.2041
 6538TIP3   OH241028   2.733   5.643  15.544  0.7065  0.1455 -0.3707
 6538TIP3    H141029   2.779   5.669  15.624  1.3912  0.1913 -0.7726
 6538TIP3    H241030   2.699   5.724  15.508  2.2470  0.4411 -1.2549
 6539TIP3   OH241031   0.314   1.233  13.443 -0.0616 -0.2582  0.4746
 6539TIP3    H141032   0.390   1.183  13.411  0.0015 -0.0470  0.2945
 6539TIP3    H241033   0.244   1.169  13.449  0.2508 -0.5545  1.0724
 6540TIP3   OH241034   0.526   1.117   2.979  0.4856  0.3727 -0.2222
 6540TIP3    H141035   0.481   1.202   2.983  0.2027  0.2607 -0.9703
 6540TIP3    H241036   0.598   1.131   2.918 -1.0050 -0.5700 -2.3069
 6541TIP3   OH241037   3.928   0.320   0.908 -0.4523 -0.4361  0.2231
 6541TIP3    H141038   3.888   0.377   0.974  0.7916  1.6138 -0.6914
 6541TIP3    H241039   4.020   0.313   0.936 -0.0224  0.0870 -1.0053
 6542TIP3   OH241040   3.705   1.039   2.266  0.1311 -0.1003 -0.0380
 6542TIP3    H141041   3.755   0.977   2.318 -1.3068 -0.3209  1.1410
 6542TIP3    H241042   3.643   0.986   2.216 -0.9584  0.3200  0.8096
 6543TIP3   OH241043   6.318   0.159  14.065 -0.6206 -0.0036 -0.0536
 6543TIP3    H141044   6.276   0.203  13.991 -0.5896  2.9331  1.5453
 6543TIP3    H241045   6.246   0.136  14.123 -0.5769 -1.7006 -0.5986
 6544TIP3   OH241046   0.992   4.419  15.036 -0.1330  0.8861 -0.0277
 6544TIP3    H141047   1.076   4.390  15.069  0.6444  1.8679 -1.0489
 6544TIP3    H241048   0.998   4.515  15.035 -1.3016  0.9784 -0.0217
 6545TIP3   OH241049   5.577   1.719   3.962 -0.1287  0.3145 -0.1042
 6545TIP3    H141050   5.555   1.626   3.966  0.9732  0.0697  0.9545
 6545TIP3    H241051   5.526   1.759   4.032 -0.8862  0.5923 -0.7952
 6546TIP3   OH241052   2.202   5.528  13.662  0.8294  0.0926  0.0915
 6546TIP3    H141053   2.204   5.472  13.740 -2.3247 -1.6438 -0.9198
 6546TIP3    H241054   2.239   5.611  13.691 -2.3755  0.3937  4.2182
 6547TIP3   OH241055   1.557   3.818   3.442 -0.1027  0.0731 -0.4692
 6547TIP3    H141056   1.513   3.836   3.525  2.0001 -0.1868  0.7882
 6547TIP3    H241057   1.636   3.873   3.445  1.2042 -1.6782 -1.2037
 6548TIP3   OH241058   4.780   3.520   1.511  0.3629  1.0876 -0.0416
 6548TIP3    H141059   4.746   3.554   1.429 -1.6946  1.1231  0.7422
 6548TIP3    H241060   4.846   3.455   1.486  0.3068  1.6303 -1.6755
 6549TIP3   OH241061   1.777   0.077   4.910 -0.3471  0.3706  0.7156
 6549TIP3    H141062   1.860   0.123   4.908  0.4421 -0.9972  0.4990
 6549TIP3    H241063   1.757   0.060   4.818 -0.6629  0.3472  0.7881
 6550TIP3   OH241064   4.322   5.282   2.997  0.0612  0.0413  0.6933
 6550TIP3    H141065   4.338   5.375   2.979 -0.2650 -0.1854 -0.8695
 6550TIP3    H241066   4.260   5.255   2.930  1.7741 -1.8428 -0.2348
 6551TIP3   OH241067   2.717   5.719  14.205 -0.3404  0.4010  0.1186
 6551TIP3    H141068   2.632   5.709  14.248  0.8761 -1.6208  2.2618
 6551TIP3    H241069   2.732   5.635  14.161 -0.0251  1.2380 -1.4598
 6552TIP3   OH241070   2.509   5.099   0.197  0.2127 -0.2537 -0.3014
 6552TIP3    H141071   2.445   5.135   0.257 -0.3102 -0.5184 -0.6937
 6552TIP3    H241072   2.471   5.111   0.110  0.4209 -0.9391 -0.4982
 6553TIP3   OH241073   6.538   1.252   1.934  0.2168  0.5768 -0.2027
 6553TIP3    H141074   6.563   1.308   2.008  1.1475 -0.6600  0.4467
 6553TIP3    H241075   6.578   1.295   1.858 -0.7804  1.8765 -0.0190
 6554TIP3   OH241076   0.930   5.124  11.283  0.2944 -0.5320 -0.0171
 6554TIP3    H141077   0.990   5.145  11.355  1.7912  1.1174 -1.6357
 6554TIP3    H241078   0.847   5.165  11.308  1.3413  1.7770 -0.0478
 6555TIP3   OH241079   4.839   4.974  16.257 -0.1189 -0.1846  0.0549
 6555TIP3    H141080   4.869   4.901  16.311 -0.0522  1.0200  1.7038
 6555TIP3    H241081   4.892   5.049  16.285 -0.6044  0.6486 -1.1608
 6556TIP3   OH241082   2.421   2.483   3.186  0.6825  0.4762  0.7438
 6556TIP3    H141083   2.486   2.453   3.248  0.3099 -2.0956 -0.0132
 6556TIP3    H241084   2.467   2.486   3.102 -0.0544 -1.0726  0.2567
 6557TIP3   OH241085   4.334   1.285   5.449  0.2480 -0.0153 -0.1566
 6557TIP3    H141086   4.316   1.376   5.475  0.1180 -0.1072  0.0856
 6557TIP3    H241087   4.382   1.292   5.367 -1.9952  0.2286 -1.5243
 6558TIP3   OH241088   4.910   5.033  11.515  0.0317 -0.0848 -0.0363
 6558TIP3    H141089   4.826   5.046  11.558 -0.3701  3.3454 -1.5530
 6558TIP3    H241090   4.907   4.943  11.482 -2.5979 -0.3759  0.8331
 6559TIP3   OH241091   1.837   0.547  11.331  0.5202  0.2529 -0.4629
 6559TIP3    H141092   1.913   0.501  11.295  0.2115 -0.7145  0.0781
 6559TIP3    H241093   1.868   0.636  11.347  1.8908 -0.3961  0.7665
 6560TIP3   OH241094   3.039   5.705   4.763 -0.5169 -0.0805  0.4245
 6560TIP3    H141095   3.030   5.792   4.724  1.0076 -0.0337  0.1146
 6560TIP3    H241096   3.104   5.717   4.832 -1.7662 -0.5805  1.7305
 6561TIP3   OH241097   2.051   5.496  15.604 -0.6794  0.0447  0.5779
 6561TIP3    H141098   2.132   5.527  15.563 -0.1164 -0.8519  0.9824
 6561TIP3    H241099   1.982   5.518  15.542 -0.1063  0.6432  0.1395
 6562TIP3   OH241100   4.032   0.806   4.156 -0.5798 -0.5999  0.6765
 6562TIP3    H141101   4.118   0.841   4.179 -0.0674  0.5365 -2.4071
 6562TIP3    H241102   4.051   0.730   4.102 -1.4602 -0.1617 -0.2901
 6563TIP3   OH241103   0.349   1.394   2.105 -0.1539  0.0970  0.2638
 6563TIP3    H141104   0.396   1.471   2.074 -1.7530  0.7119 -0.8104
 6563TIP3    H241105   0.272   1.389   2.048 -0.9389 -1.3488  1.3785
 6564TIP3   OH241106   4.781   3.398   5.731  0.3446  0.1638 -0.2420
 6564TIP3    H141107   4.850   3.348   5.688  0.5671 -0.7482  1.1420
 6564TIP3    H241108   4.814   3.415   5.819 -0.4354  1.3213 -0.1424
 6565TIP3   OH241109   3.915   0.466   3.167 -0.1957  0.1518  0.2987
 6565TIP3    H141110   3.882   0.384   3.130  1.0340 -0.1913 -0.0955
 6565TIP3    H241111   3.859   0.534   3.130  0.5597 -0.2449 -1.7236
 6566TIP3   OH241112   0.519   4.181  15.217 -0.3938  0.0837  0.0261
 6566TIP3    H141113   0.426   4.196  15.200 -0.0565  0.9809 -1.2173
 6566TIP3    H241114   0.521   4.114  15.285 -1.9438 -0.5123 -0.4783
 6567TIP3   OH241115   1.566   5.472   3.553 -0.2172  0.1078  0.2676
 6567TIP3    H141116   1.524   5.407   3.610 -2.1578 -0.2629 -1.4733
 6567TIP3    H241117   1.606   5.420   3.483  2.5852  0.5180  1.4089
 6568TIP3   OH241118   3.411   3.939  13.567 -0.3710 -0.1713  0.0335
 6568TIP3    H141119   3.329   3.933  13.616 -1.3871 -1.8381 -1.7297
 6568TIP3    H241120   3.412   3.860  13.513  2.8788 -0.6708  0.6618
 6569TIP3   OH241121   5.574   4.278   1.712 -0.1093  0.7410 -0.1286
 6569TIP3    H141122   5.668   4.277   1.732  0.0781 -0.0662 -0.9753
 6569TIP3    H241123   5.534   4.231   1.785  0.2931 -0.0240 -0.3822
 6570TIP3   OH241124   6.631   2.384   0.957 -0.1324 -0.1704 -0.2994
 6570TIP3    H141125   6.673   2.434   1.027  0.0889  2.0413 -1.9121
 6570TIP3    H241126   6.573   2.447   0.914 -0.6103 -1.5803 -1.8167
 6571TIP3   OH241127   6.194   0.826   0.131 -0.1753 -0.6548  0.4124
 6571TIP3    H141128   6.177   0.917   0.155  1.5251 -0.4941  1.1381
 6571TIP3    H241129   6.289   0.819   0.127 -0.3014 -2.1214 -0.8064
 6572TIP3   OH241130   2.913   4.769   3.124  0.3067  0.0696  0.0453
 6572TIP3    H141131   2.851   4.699   3.144  2.0910 -1.1815  1.5099
 6572TIP3    H241132   2.944   4.749   3.035  1.4745 -1.5824  0.7847
 6573TIP3   OH241133   2.248   5.299   0.284 -0.1393  0.8235  0.2257
 6573TIP3    H141134   2.161   5.334   0.301 -0.0563  2.2073 -1.8588
 6573TIP3    H241135   2.308   5.371   0.304  0.3911  0.4404  0.0541
 6574TIP3   OH241136   3.595   3.394  11.952  0.4334  0.1361 -0.2203
 6574TIP3    H141137   3.560   3.380  12.040  0.4763  1.8042  0.1004
 6574TIP3    H241138   3.520   3.382  11.894 -0.0091  0.7478  0.2081
 6575TIP3   OH241139   1.610   0.079  13.476  0.1257  0.4065  0.1848
 6575TIP3    H141140   1.597  -0.016  13.472 -0.2925  0.4699 -0.0660
 6575TIP3    H241141   1.521   0.115  13.467  0.2721  0.8188  0.3756
 6576TIP3   OH241142   5.110   4.435   2.090  0.5494  0.1197  0.9709
 6576TIP3    H141143   5.188   4.455   2.039  3.3849 -2.7510  3.7731
 6576TIP3    H241144   5.038   4.476   2.041  3.5830  1.9788 -2.3594
 6577TIP3   OH241145   2.124   5.971   4.120 -0.0631 -0.6323  0.5931
 6577TIP3    H141146   2.132   6.066   4.121  0.4082 -0.6665  0.2436
 6577TIP3    H241147   2.082   5.950   4.203 -1.1161 -0.0387  0.2438
 6578TIP3   OH241148   2.013   0.921  16.269  0.0113  0.0189  0.0899
 6578TIP3    H141149   2.073   0.992  16.288  0.1135 -0.3343  1.1334
 6578TIP3    H241150   2.064   0.841  16.284  0.0111 -0.3028 -1.4079
 6579TIP3   OH241151   5.349   5.589   0.597 -0.5130 -0.2743 -0.2127
 6579TIP3    H141152   5.287   5.559   0.531 -0.6439 -2.9198  0.9577
 6579TIP3    H241153   5.317   5.675   0.624 -2.6616 -0.8171 -0.8638
 6580TIP3   OH241154   6.490   6.324   3.284  0.6011 -0.1065 -0.5144
 6580TIP3    H141155   6.533   6.401   3.247  1.2761  1.0531  2.4076
 6580TIP3    H241156   6.399   6.351   3.296  1.0060  0.6148  1.2531
 6581TIP3   OH241157   0.998   0.953   0.880 -0.2675 -0.6506  0.0571
 6581TIP3    H141158   0.931   0.951   0.948  0.2438 -0.0424  0.5939
 6581TIP3    H241159   0.982   1.035   0.834  1.0719  0.3044  1.2102
 6582TIP3   OH241160   4.716   3.099  15.466 -0.4163  0.4154  0.1778
 6582TIP3    H141161   4.625   3.079  15.447  0.0161 -2.7459  0.9671
 6582TIP3    H241162   4.747   3.147  15.389 -1.9356 -1.1328 -1.4771
 6583TIP3   OH241163   6.482   6.478  11.002  0.2457 -1.0347 -0.1650
 6583TIP3    H141164   6.488   6.460  10.908  1.6303 -0.9386 -0.1179
 6583TIP3    H241165   6.398   6.439  11.029 -1.1576  0.6759 -1.7996
 6584TIP3   OH241166   4.313   2.423   1.635 -0.1943 -0.3966  0.1674
 6584TIP3    H141167   4.321   2.399   1.727 -1.5498 -0.5865  0.2677
 6584TIP3    H241168   4.337   2.344   1.587 -0.1625 -0.5192  0.3861
 6585TIP3   OH241169   1.258   2.985  10.209 -0.1656 -0.2236  0.1809
 6585TIP3    H141170   1.291   2.984  10.119  0.7031 -2.6714  0.4716
 6585TIP3    H241171   1.328   2.945  10.261 -0.8206  0.7654  1.9115
 6586TIP3   OH241172   1.692   1.983  12.431 -0.0219  0.1785 -0.1807
 6586TIP3    H141173   1.705   2.022  12.517  0.5315 -0.5589  0.0814
 6586TIP3    H241174   1.598   1.987  12.416 -0.2804 -0.9223  1.0562
 6587TIP3   OH241175   6.431   0.117   6.298  0.2245  0.0252 -0.5680
 6587TIP3    H141176   6.492   0.142   6.368  0.0661 -0.4652 -0.2467
 6587TIP3    H241177   6.452   0.025   6.280 -0.1299 -0.0224 -0.7507
 6588TIP3   OH241178   1.250   0.913   3.285 -0.4922 -0.0452 -0.4569
 6588TIP3    H141179   1.322   0.949   3.233  0.0203  0.4216  0.5462
 6588TIP3    H241180   1.293   0.877   3.363 -1.3524  0.2391  0.1599
 6589TIP3   OH241181   0.549   5.734  15.710 -0.1898 -0.3640 -0.4489
 6589TIP3    H141182   0.523   5.776  15.792  0.0947 -1.3205  0.1349
 6589TIP3    H241183   0.544   5.805  15.645 -2.8667 -0.1223 -0.1180
 6590TIP3   OH241184   6.477   1.918   4.879  0.3140 -0.5528  0.9263
 6590TIP3    H141185   6.411   1.974   4.922 -1.4528 -1.7364 -0.0913
 6590TIP3    H241186   6.513   1.973   4.810  1.4792  0.5876  2.3880
 6591TIP3   OH241187   2.141   5.138  14.302  0.2571  0.0311 -0.1139
 6591TIP3    H141188   2.190   5.095  14.372  1.2914 -0.1075 -0.8990
 6591TIP3    H241189   2.052   5.105  14.312  0.1286  0.8279  1.7811
 6592TIP3   OH241190   4.931   4.316  15.392  0.4078  0.1382  0.5695
 6592TIP3    H141191   4.882   4.243  15.431  0.2509  0.5608  1.1893
 6592TIP3    H241192   4.869   4.390  15.394  1.5113  1.1328  2.8616
 6593TIP3   OH241193   3.333   6.712   2.678  0.1437  0.5260 -0.2350
 6593TIP3    H141194   3.345   6.772   2.605 -1.1934  0.6246 -0.4053
 6593TIP3    H241195   3.358   6.626   2.644  0.9468  0.7964 -0.3406
 6594TIP3   OH241196   1.718   0.713   0.840  0.0079  0.5916 -0.0518
 6594TIP3    H141197   1.667   0.722   0.760 -1.2200  0.9283  0.7393
 6594TIP3    H241198   1.697   0.626   0.873  0.7458  0.3328 -0.2337
 6595TIP3   OH241199   3.793   0.848   5.132 -0.4609 -0.7475  0.6147
 6595TIP3    H141200   3.751   0.927   5.100  0.1923 -0.0932  1.3434
 6595TIP3    H241201   3.873   0.878   5.175  0.4993 -1.9070 -0.2473
 6596TIP3   OH241202   6.000   5.031  12.094 -0.1579 -0.3561  0.1551
 6596TIP3    H141203   5.997   4.940  12.064  2.5188 -0.3736 -0.3105
 6596TIP3    H241204   5.980   5.083  12.016 -1.0289 -0.4932  0.2693
 6597TIP3   OH241205   3.470   2.864  11.768  0.0733  0.3880  0.1210
 6597TIP3    H141206   3.446   2.866  11.860 -0.0709 -0.0278  0.0945
 6597TIP3    H241207   3.404   2.918  11.725 -1.5637 -1.6787 -0.1090
 6598TIP3   OH241208   2.090   0.606   1.499 -0.1083  0.3102 -0.2540
 6598TIP3    H141209   2.098   0.654   1.580  0.3050 -0.0646 -0.0690
 6598TIP3    H241210   1.997   0.582   1.494 -0.2726  0.9415 -0.2505
 6599TIP3   OH241211   3.005   1.565   0.162 -0.1980 -0.2921  0.6661
 6599TIP3    H141212   3.033   1.603   0.079 -1.3538  1.2346  0.9351
 6599TIP3    H241213   2.956   1.486   0.136 -1.6946  0.8736 -0.2344
 6600TIP3   OH241214   3.454   3.856   4.673 -0.5042  0.5465  0.5258
 6600TIP3    H141215   3.420   3.897   4.593  2.1484  0.6246 -0.6604
 6600TIP3    H241216   3.389   3.878   4.740 -2.4275  1.1545 -1.4102
 6601TIP3   OH241217   0.884   5.068   2.039  0.4182 -0.4320 -0.3683
 6601TIP3    H141218   0.909   5.047   1.949  1.0298  1.1668 -0.6013
 6601TIP3    H241219   0.788   5.067   2.037  0.4041 -2.2649 -0.5461
 6602TIP3   OH241220   2.153   1.045   0.475  0.3494 -0.1388 -0.1312
 6602TIP3    H141221   2.191   1.099   0.405  1.1041 -1.1580 -0.5423
 6602TIP3    H241222   2.090   0.989   0.429 -1.1418  1.0048  0.4324
 6603TIP3   OH241223   4.324   1.263   4.685  0.6149 -0.3776  0.6490
 6603TIP3    H141224   4.282   1.182   4.656 -0.8241  0.6523 -0.2539
 6603TIP3    H241225   4.374   1.292   4.609 -0.6625  0.7057  0.1836
 6604TIP3   OH241226   1.395   6.715  14.283  0.0226  0.0043  0.0957
 6604TIP3    H141227   1.485   6.683  14.283  1.3505  3.2560  1.6743
 6604TIP3    H241228   1.353   6.669  14.355  0.7612 -0.7628  0.0505
 6605TIP3   OH241229   1.007   5.821   0.110  0.4479 -0.1798 -0.3329
 6605TIP3    H141230   1.011   5.880   0.185 -0.5631  1.2931 -1.3569
 6605TIP3    H241231   0.926   5.847   0.065  1.5395 -0.2697 -2.4884
 6606TIP3   OH241232   5.156   6.236  17.312 -0.9470  0.4375  0.1426
 6606TIP3    H141233   5.237   6.231  17.261 -1.6476 -1.2954 -0.8953
 6606TIP3    H241234   5.160   6.321  17.356  1.2953  0.5114 -0.0915
 6607TIP3   OH241235   4.583   5.671   5.722 -0.0122  0.2411 -0.8664
 6607TIP3    H141236   4.538   5.604   5.773  0.1181  0.4035 -0.5409
 6607TIP3    H241237   4.534   5.752   5.738 -0.5083  0.1213 -1.7012
 6608TIP3   OH241238   0.115   0.931   6.278  0.1883 -0.5933 -0.3713
 6608TIP3    H141239   0.053   0.992   6.318  0.8862 -1.2162  1.7910
 6608TIP3    H241240   0.198   0.977   6.280  0.8389 -1.7368  1.7967
 6609TIP3   OH241241   4.526   6.474  11.910 -0.3449 -0.2196 -0.3909
 6609TIP3    H141242   4.600   6.494  11.853  0.5486 -1.2680  0.3725
 6609TIP3    H241243   4.454   6.454  11.850  0.0103  0.6622 -1.1335
 6610TIP3   OH241244   3.209   3.815  14.507  0.1792 -0.1187  0.0718
 6610TIP3    H141245   3.184   3.805  14.415  2.2415 -4.0925 -0.2943
 6610TIP3    H241246   3.291   3.865  14.504 -0.2407  0.5543 -0.1664
 6611TIP3   OH241247   4.299   0.469  12.084  0.4322  0.0022  0.2663
 6611TIP3    H141248   4.321   0.376  12.093  0.4054  0.0148  0.4581
 6611TIP3    H241249   4.238   0.472  12.011  2.7662  0.2092 -1.8246
 6612TIP3   OH241250   0.507   3.960  14.048 -0.8951  0.3225  0.7318
 6612TIP3    H141251   0.548   3.978  14.133  3.2448 -0.6100 -0.8423
 6612TIP3    H241252   0.474   3.870  14.056 -1.9954  0.7837  1.7697
 6613TIP3   OH241253   1.679   4.614   2.032  0.0250  0.1830  0.4608
 6613TIP3    H141254   1.713   4.611   2.122  1.4465  0.9024 -0.0237
 6613TIP3    H241255   1.592   4.652   2.041  1.0238  2.4890  1.3659
 6614TIP3   OH241256   1.616   4.077   5.258 -0.2495 -0.0209 -0.3041
 6614TIP3    H141257   1.608   3.982   5.257 -2.1281  0.1091 -0.7239
 6614TIP3    H241258   1.710   4.093   5.271  0.0977 -1.9095 -0.2226
 6615TIP3   OH241259   2.119   6.413  12.403 -0.2252 -0.2089  0.1431
 6615TIP3    H141260   2.084   6.452  12.323 -0.0688 -1.7838 -0.7283
 6615TIP3    H241261   2.100   6.320  12.395  3.5049 -1.1200 -0.1116
 6616TIP3   OH241262   1.811   5.634  11.904 -0.2231  0.4285  0.0582
 6616TIP3    H141263   1.747   5.585  11.956 -1.4693  1.0988 -0.7915
 6616TIP3    H241264   1.882   5.653  11.966 -1.5207  0.9635  1.4456
 6617TIP3   OH241265   2.757   3.822  16.803 -0.4479  0.0800  0.1521
 6617TIP3    H141266   2.683   3.879  16.782 -0.6219  0.3530  1.4322
 6617TIP3    H241267   2.808   3.817  16.722 -1.2097  0.8812 -0.3856
 6618TIP3   OH241268   0.953   3.188   1.186  0.6608 -0.4168 -0.6696
 6618TIP3    H141269   1.030   3.137   1.210  2.1380  1.0871 -2.0075
 6618TIP3    H241270   0.947   3.181   1.091 -0.8483 -0.4514 -0.6096
 6619TIP3   OH241271   5.516   3.797  11.267 -0.2951 -0.0865 -0.1545
 6619TIP3    H141272   5.606   3.778  11.294 -0.6014  1.4924  2.4214
 6619TIP3    H241273   5.525   3.838  11.181  1.5813  0.8302  0.4074
 6620TIP3   OH241274   4.444   5.532  11.627 -0.8765  0.1113 -0.2628
 6620TIP3    H141275   4.436   5.480  11.707 -1.1166  1.0574  0.3411
 6620TIP3    H241276   4.475   5.617  11.657  0.1473  0.1280 -1.3149
 6621TIP3   OH241277   4.310   5.339  11.814 -0.4307  0.3247  0.1903
 6621TIP3    H141278   4.376   5.306  11.874  0.5652 -0.2360 -1.1588
 6621TIP3    H241279   4.227   5.312  11.852  0.0842  0.9144  1.8485
 6622TIP3   OH241280   1.714   2.782   4.576 -0.3471  0.2910 -0.2989
 6622TIP3    H141281   1.764   2.811   4.500  1.2265  2.5825  1.4445
 6622TIP3    H241282   1.766   2.711   4.614 -0.0917  0.4911 -0.2743
 6623TIP3   OH241283   1.426   2.307  15.340 -0.1575  0.1077 -0.4237
 6623TIP3    H141284   1.352   2.319  15.280  0.1586  0.7410 -0.6980
 6623TIP3    H241285   1.410   2.371  15.410  0.2165  0.3728 -0.5759
 6624TIP3   OH241286   6.424   6.272   3.809 -0.3921 -0.0983  0.2536
 6624TIP3    H141287   6.507   6.308   3.780 -0.4767  0.1513  0.3185
 6624TIP3    H241288   6.411   6.195   3.754 -2.1729  2.1697 -2.8338
 6625TIP3   OH241289   4.877   5.438  14.849  0.2407 -1.0451 -0.1145
 6625TIP3    H141290   4.817   5.388  14.906  1.6535 -1.4624  1.0688
 6625TIP3    H241291   4.819   5.481  14.786 -1.7312  1.2216  2.9062
 6626TIP3   OH241292   5.634   2.780  16.328  0.4475  0.9125  0.6815
 6626TIP3    H141293   5.601   2.693  16.304 -1.4462  2.2960 -2.2867
 6626TIP3    H241294   5.557   2.829  16.356  0.4869  2.9880 -2.3658
 6627TIP3   OH241295   5.934   6.244   0.656 -0.2059  0.4547  0.2169
 6627TIP3    H141296   5.916   6.236   0.562  2.9194  2.1117 -0.6912
 6627TIP3    H241297   5.959   6.155   0.683 -0.0388  0.1646 -0.8308
 6628TIP3   OH241298   5.931   5.549  16.483 -0.3673  0.0502  0.0642
 6628TIP3    H141299   6.010   5.594  16.512 -1.2634  0.1433  2.5647
 6628TIP3    H241300   5.952   5.456  16.490  0.5639 -0.0238 -2.5073
 6629TIP3   OH241301   6.135   0.682   2.841 -0.2929  0.0512  0.1914
 6629TIP3    H141302   6.153   0.632   2.762  0.6007  0.4601  0.1259
 6629TIP3    H241303   6.198   0.651   2.906  3.1289  3.7171 -0.9792
 6630TIP3   OH241304   4.148   4.616  14.908  0.3124 -0.1533  0.4442
 6630TIP3    H141305   4.096   4.690  14.939 -0.3840  0.2850 -1.6115
 6630TIP3    H241306   4.088   4.566  14.853  1.8722  0.0205 -1.5135
 6631TIP3   OH241307   0.245   0.089  13.810  0.1180  0.0354  0.1693
 6631TIP3    H141308   0.225   0.018  13.750 -0.7552 -0.0485  0.5495
 6631TIP3    H241309   0.324   0.060  13.855  0.8974  0.1894 -1.0528
 6632TIP3   OH241310   2.588   2.422  13.004  0.3345  0.5850  0.2149
 6632TIP3    H141311   2.615   2.507  12.968  1.6965  1.0757  2.2002
 6632TIP3    H241312   2.494   2.430  13.017  0.3043  1.4659 -0.4755
 6633TIP3   OH241313   1.683   1.988   2.777  0.6996  0.2079 -0.8372
 6633TIP3    H141314   1.756   2.047   2.795  2.4157 -1.2017 -2.6715
 6633TIP3    H241315   1.612   2.045   2.749  1.0482  1.6214  0.9312
 6634TIP3   OH241316   5.239   0.626   1.590  0.2040 -0.3850 -0.2655
 6634TIP3    H141317   5.206   0.643   1.678  2.1397 -1.5852  0.7775
 6634TIP3    H241318   5.196   0.691   1.535  0.7903  2.0949  1.9680
 6635TIP3   OH241319   1.403   2.564   0.986 -0.1339  0.0777  0.1005
 6635TIP3    H141320   1.496   2.571   0.964 -0.1881 -0.3832 -0.3108
 6635TIP3    H241321   1.361   2.539   0.903 -0.2768 -2.3906  0.8118
 6636TIP3   OH241322   2.772   2.617   5.071  0.1323  0.3554  0.1536
 6636TIP3    H141323   2.705   2.673   5.033  0.6963  1.5290  0.8140
 6636TIP3    H241324   2.841   2.612   5.004  0.1751  0.6343  0.1782
 6637TIP3   OH241325   5.649   5.368  13.930 -0.0203 -0.0258  0.3026
 6637TIP3    H141326   5.664   5.459  13.958 -1.0453  0.3747 -0.4028
 6637TIP3    H241327   5.698   5.359  13.848 -0.4346  0.0874  0.0409
 6638TIP3   OH241328   3.572   0.704  13.701  0.0992  0.3828 -0.5586
 6638TIP3    H141329   3.546   0.665  13.784 -0.3385 -0.1979 -0.9647
 6638TIP3    H241330   3.547   0.796  13.710  0.2242  0.3650  0.0200
 6639TIP3   OH241331   2.901   0.644  11.615 -0.0267  0.2164  0.8120
 6639TIP3    H141332   2.967   0.575  11.623 -0.6799 -0.3648  1.2781
 6639TIP3    H241333   2.818   0.598  11.607 -0.4253  0.9446  0.6596
 6640TIP3   OH241334   3.037   5.457   5.860 -0.4207 -0.5181  0.7523
 6640TIP3    H141335   3.117   5.485   5.905  0.3407 -0.9780 -0.2824
 6640TIP3    H241336   2.996   5.395   5.920  0.0961 -0.4360  1.1989
 6641TIP3   OH241337   4.282   2.801  14.325  0.0724 -0.2389  0.1236
 6641TIP3    H141338   4.298   2.785  14.418  1.5088 -0.1202 -0.0841
 6641TIP3    H241339   4.338   2.737  14.280 -1.1790 -0.8083 -0.6658
 6642TIP3   OH241340   1.884   1.839   2.075 -0.1202 -0.3602  0.1327
 6642TIP3    H141341   1.862   1.776   2.006 -0.7000 -0.1239  0.1008
 6642TIP3    H241342   1.807   1.895   2.081 -0.0796 -0.3955  0.9915
 6643TIP3   OH241343   5.824   2.402  14.674 -0.4880 -0.1396  0.8564
 6643TIP3    H141344   5.815   2.495  14.694  0.0445 -0.0434  0.6777
 6643TIP3    H241345   5.770   2.358  14.739  1.4455  0.1291  2.7650
 6644TIP3   OH241346   4.719   5.695  16.436 -0.5925  0.6762 -0.4992
 6644TIP3    H141347   4.754   5.655  16.356  1.0491 -1.3437  1.1207
 6644TIP3    H241348   4.665   5.626  16.476  2.5228 -0.2875  2.5169
 6645TIP3   OH241349   0.108   6.128   3.168 -0.4998 -0.0457  0.0397
 6645TIP3    H141350   0.031   6.119   3.225 -0.1288 -1.4545  0.3653
 6645TIP3    H241351   0.167   6.186   3.216  0.0777 -1.7078  1.4561
 6646TIP3   OH241352   1.538   4.838  14.762 -0.2296  0.0467  0.8204
 6646TIP3    H141353   1.576   4.922  14.786 -1.6908  0.3919  2.0802
 6646TIP3    H241354   1.474   4.858  14.695  2.5985 -0.7113 -2.4243
 6647TIP3   OH241355   1.212   2.690   2.036  0.6050 -0.0700 -0.3843
 6647TIP3    H141356   1.164   2.727   1.962 -1.2166  0.0039  0.7517
 6647TIP3    H241357   1.279   2.756   2.056 -1.5719  2.0281  0.6075
 6648TIP3   OH241358   3.384   4.469  12.044 -0.0409 -0.4307  0.2049
 6648TIP3    H141359   3.397   4.516  12.126  2.0956  1.5728 -1.1427
 6648TIP3    H241360   3.292   4.484  12.022  0.0322  1.3200  0.9215
 6649TIP3   OH241361   4.837   5.810   4.391 -0.6480  0.8390  0.2757
 6649TIP3    H141362   4.852   5.872   4.462 -0.6829  1.0302  0.1182
 6649TIP3    H241363   4.919   5.761   4.384 -0.6929  0.7222  0.5394
 6650TIP3   OH241364   5.744   0.524   2.081 -0.0353 -0.2147  0.0851
 6650TIP3    H141365   5.788   0.458   2.135 -0.8409 -0.9013 -0.0799
 6650TIP3    H241366   5.698   0.473   2.013  2.2257  0.6761 -2.2726
 6651TIP3   OH241367   2.715   2.622  13.310  0.2114 -0.6486 -0.4421
 6651TIP3    H141368   2.654   2.552  13.335 -1.8229  1.3235  0.4799
 6651TIP3    H241369   2.762   2.641  13.391 -0.4557  0.1596 -0.2331
 6652TIP3   OH241370   4.448   2.577  16.223 -0.0885 -0.4121  0.5666
 6652TIP3    H141371   4.354   2.595  16.220 -0.0311 -0.0955  0.6365
 6652TIP3    H241372   4.476   2.610  16.309 -0.2517 -2.1983  1.3456
 6653TIP3   OH241373   1.203   1.470   3.166 -0.1002  0.2590 -0.2342
 6653TIP3    H141374   1.195   1.439   3.076  0.9336 -0.6593 -0.0361
 6653TIP3    H241375   1.117   1.504   3.188 -0.2368  0.9612 -1.7355
 6654TIP3   OH241376   5.874   1.861   5.312 -0.0325  0.2473  0.5755
 6654TIP3    H141377   5.917   1.851   5.396  0.4263 -2.2706  0.1324
 6654TIP3    H241378   5.798   1.803   5.316  0.2053 -0.2182 -0.8371
 6655TIP3   OH241379   0.304   3.802   4.491  0.0236  0.6896  0.3545
 6655TIP3    H141380   0.242   3.730   4.488  0.2955  0.4743 -2.0455
 6655TIP3    H241381   0.390   3.761   4.484  0.2530  1.1829  0.2206
 6656TIP3   OH241382   5.431   2.839  13.366  0.5743  0.4962  0.5266
 6656TIP3    H141383   5.379   2.794  13.433 -0.6392  0.5706 -0.3394
 6656TIP3    H241384   5.510   2.786  13.358  0.6535  0.3853  1.8837
 6657TIP3   OH241385   5.407   5.839  16.958 -0.3249 -0.0441 -0.4407
 6657TIP3    H141386   5.432   5.898  16.887 -0.3919  1.9821  1.1314
 6657TIP3    H241387   5.332   5.882  16.999 -0.9957 -1.7359  0.1914
 6658TIP3   OH241388   2.920   3.191   2.730 -0.1803 -0.0605  0.1880
 6658TIP3    H141389   2.969   3.263   2.690 -1.1026  0.7915  0.5658
 6658TIP3    H241390   2.832   3.199   2.693 -0.3840 -0.7818  0.5067
 6659TIP3   OH241391   0.634   1.420   0.596  0.1290  0.0729  0.2721
 6659TIP3    H141392   0.705   1.480   0.620 -1.9054  2.7214  0.2157
 6659TIP3    H241393   0.598   1.391   0.680 -0.5207  1.0851  0.3592
 6660TIP3   OH241394   4.329   5.989   0.922 -0.1716 -0.4894 -0.1042
 6660TIP3    H141395   4.301   6.080   0.920  1.2811  0.1063 -5.1325
 6660TIP3    H241396   4.248   5.939   0.916 -0.8693  0.7556 -2.3796
 6661TIP3   OH241397   4.121   4.075  12.593  0.5483 -0.1638  0.3112
 6661TIP3    H141398   4.050   4.061  12.655  1.3929 -0.7658  1.1734
 6661TIP3    H241399   4.201   4.053  12.642  1.5088  2.1253 -0.0834
 6662TIP3   OH241400   4.866   2.269  14.220 -0.1692 -0.4505 -0.4549
 6662TIP3    H141401   4.797   2.204  14.208 -0.6459 -0.1118  0.4191
 6662TIP3    H241402   4.830   2.350  14.184 -0.1069 -0.3384 -0.2644
 6663TIP3   OH241403   5.850   3.445   3.731 -0.2586  0.5416 -0.4204
 6663TIP3    H141404   5.864   3.427   3.638  3.2079  0.5951 -0.0504
 6663TIP3    H241405   5.830   3.360   3.769  1.9310 -0.2118 -0.7769
 6664TIP3   OH241406   3.200   1.708   6.045  0.0298  0.2933 -0.2895
 6664TIP3    H141407   3.143   1.751   6.108 -1.0976 -0.7750 -0.5507
 6664TIP3    H241408   3.203   1.616   6.074  3.0847  0.6049  0.7941
 6665TIP3   OH241409   3.876   2.641  15.362  0.6141  0.5185 -0.1201
 6665TIP3    H141410   3.902   2.651  15.270  2.5007  2.0245  0.5158
 6665TIP3    H241411   3.939   2.579  15.398  3.1471  3.6172  1.2544
 6666TIP3   OH241412   2.354   1.926  17.423  0.2830 -0.6334 -0.2923
 6666TIP3    H141413   2.449   1.917  17.409  0.0788 -0.2152 -2.1884
 6666TIP3    H241414   2.319   1.950  17.338 -1.4373  0.1992  0.5934
 6667TIP3   OH241415   4.515   6.268  11.493  0.5359  0.2724  0.4595
 6667TIP3    H141416   4.454   6.204  11.530 -1.2264 -0.0971 -2.7116
 6667TIP3    H241417   4.601   6.235  11.516 -0.3640 -2.3986  0.3226
 6668TIP3   OH241418   6.440   2.082  14.772  0.2582  0.4375 -0.1789
 6668TIP3    H141419   6.390   2.147  14.722 -2.1334 -1.0734  0.1033
 6668TIP3    H241420   6.451   2.009  14.711  0.0858 -0.1532  0.4893
 6669TIP3   OH241421   5.899   5.531   2.243 -0.4990 -0.4354  0.0271
 6669TIP3    H141422   5.937   5.493   2.163 -1.2552  1.2882 -1.2260
 6669TIP3    H241423   5.842   5.463   2.278 -0.0164 -1.2922 -0.8157
 6670TIP3   OH241424   2.064   6.335  15.829  0.0373 -0.1575 -0.1925
 6670TIP3    H141425   1.980   6.305  15.793 -0.2537  1.1215 -0.6108
 6670TIP3    H241426   2.056   6.321  15.923 -1.2953  1.4435 -0.0376
 6671TIP3   OH241427   4.073   1.609   1.634 -0.0942 -0.8435 -0.6702
 6671TIP3    H141428   4.006   1.627   1.700  0.5776 -0.2514 -0.1415
 6671TIP3    H241429   4.101   1.695   1.604 -0.6556 -1.1046 -2.0193
 6672TIP3   OH241430   3.991   2.368  16.331  0.2285 -0.5846  0.5189
 6672TIP3    H141431   3.916   2.368  16.391  2.0305  1.2312  2.9497
 6672TIP3    H241432   3.998   2.277  16.302 -2.2176 -1.0236  1.0351
 6673TIP3   OH241433   0.772   0.994   5.007  0.1029 -0.0850  0.6781
 6673TIP3    H141434   0.718   1.057   5.054 -1.4510  1.0820 -2.3850
 6673TIP3    H241435   0.711   0.945   4.953  1.8389  0.0139 -1.5491
 6674TIP3   OH241436   2.973   5.478   4.147 -0.1573  0.4692 -0.7483
 6674TIP3    H141437   3.040   5.516   4.204  0.9435 -2.1468 -0.1556
 6674TIP3    H241438   2.999   5.503   4.059 -0.6049  2.6517 -0.3288
 6675TIP3   OH241439   3.257   2.043   1.692  0.4387 -0.1035 -0.2139
 6675TIP3    H141440   3.276   2.096   1.769  0.9284  0.8464 -0.9551
 6675TIP3    H241441   3.167   2.013   1.704  0.1048  1.0259  0.1640
 6676TIP3   OH241442   6.559   5.862  16.088  0.7743  0.4137  0.3456
 6676TIP3    H141443   6.501   5.789  16.069  2.2886 -0.5369 -0.8790
 6676TIP3    H241444   6.502   5.928  16.128 -0.4644 -1.7155  2.2978
 6677TIP3   OH241445   5.208   1.443   0.478  0.4594 -0.1775 -0.2960
 6677TIP3    H141446   5.201   1.384   0.402 -0.3114  0.9050 -1.0896
 6677TIP3    H241447   5.269   1.511   0.450  2.5289 -1.3140  1.1456
 6678TIP3   OH241448   6.397   4.942  14.030 -0.0647  0.3103 -0.0335
 6678TIP3    H141449   6.393   4.850  14.055  1.1427  0.4266  0.6726
 6678TIP3    H241450   6.306   4.966  14.012 -0.3989 -1.0019 -0.2184
 6679TIP3   OH241451   3.635   1.805   0.577 -0.2125  0.6238 -0.5510
 6679TIP3    H141452   3.718   1.847   0.556  0.6307 -0.8028 -0.1555
 6679TIP3    H241453   3.638   1.721   0.531 -0.9880  0.1062  0.3098
 6680TIP3   OH241454   0.988   5.977   4.208 -0.7142  0.6650  0.1674
 6680TIP3    H141455   0.944   5.921   4.271 -0.4300  0.3246  0.0643
 6680TIP3    H241456   0.972   6.066   4.240 -1.0614  0.5228  0.3964
 6681TIP3   OH241457   2.356   4.516   3.069  0.1386 -0.0003  0.5440
 6681TIP3    H141458   2.276   4.556   3.037 -0.2599 -0.2063  1.2547
 6681TIP3    H241459   2.344   4.423   3.053 -0.2232 -0.1495  1.5791
 6682TIP3   OH241460   5.013   5.969  12.355 -0.4299  0.1724  0.2935
 6682TIP3    H141461   4.936   5.962  12.411 -1.9593 -2.2504 -1.8582
 6682TIP3    H241462   4.979   6.009  12.274  0.9956  0.7870 -0.0212
 6683TIP3   OH241463   1.956   0.962   3.065 -0.2958 -0.1781  0.3178
 6683TIP3    H141464   2.028   0.900   3.077 -0.0567  0.0602  0.1199
 6683TIP3    H241465   1.913   0.932   2.985  1.2489  1.2809 -1.1456
 6684TIP3   OH241466   4.853   1.067   6.412 -0.7175 -0.9925 -0.1476
 6684TIP3    H141467   4.766   1.081   6.449 -0.4564  0.9017 -0.1596
 6684TIP3    H241468   4.882   1.154   6.384  1.1530 -1.5893 -0.2279
 6685TIP3   OH241469   5.581   2.390   5.683  0.1976 -0.2966  0.1685
 6685TIP3    H141470   5.499   2.439   5.675 -1.0147 -2.4906 -2.7881
 6685TIP3    H241471   5.560   2.316   5.739  0.4774 -0.3444  0.2151
 6686TIP3   OH241472   5.526   0.840   2.497  0.0259  0.3367  0.0168
 6686TIP3    H141473   5.577   0.866   2.574 -0.5100  3.5256 -0.5736
 6686TIP3    H241474   5.592   0.803   2.437  0.6019 -1.2357  1.5475
 6687TIP3   OH241475   1.739   5.314  17.024  0.5011 -0.1585 -0.7373
 6687TIP3    H141476   1.691   5.247  16.975  0.2346  1.0107 -2.1171
 6687TIP3    H241477   1.765   5.269  17.105  0.5331 -1.9866 -1.7049
 6688TIP3   OH241478   4.119   6.687   1.892  0.9673 -0.1191 -0.1580
 6688TIP3    H141479   4.084   6.646   1.813  1.4626 -2.4711  0.7756
 6688TIP3    H241480   4.043   6.730   1.932  0.1573 -1.0705 -0.6226
 6689TIP3   OH241481   0.116   2.803   2.702  0.2668 -0.2396  0.1682
 6689TIP3    H141482   0.032   2.849   2.706 -1.1649 -2.5413 -0.8749
 6689TIP3    H241483   0.105   2.729   2.762  1.1406 -1.1152 -0.7076
 6690TIP3   OH241484   6.497   0.513  12.353 -0.3117  0.1199 -0.2150
 6690TIP3    H141485   6.565   0.509  12.285 -0.6976  1.4892 -0.7033
 6690TIP3    H241486   6.541   0.550  12.429 -0.0759 -0.6834  0.0509
 6691TIP3   OH241487   3.529   0.292  14.702  0.4550 -0.4242  0.1286
 6691TIP3    H141488   3.606   0.296  14.758 -0.1917  0.0540  0.9952
 6691TIP3    H241489   3.474   0.224  14.741  0.0505 -0.1651  0.0168
 6692TIP3   OH241490   6.212   6.407   2.193 -0.4117  0.1964 -0.0299
 6692TIP3    H141491   6.278   6.375   2.131 -0.9989 -2.1008  0.4353
 6692TIP3    H241492   6.144   6.445   2.137 -0.1564 -0.3101 -0.7084
 6693TIP3   OH241493   4.344   6.476   3.181 -0.3243 -0.7593 -0.8002
 6693TIP3    H141494   4.331   6.533   3.105  1.1747 -0.2709 -0.7365
 6693TIP3    H241495   4.358   6.537   3.254 -1.3158 -1.2212 -0.2117
 6694TIP3   OH241496   1.859   1.482   3.790 -0.0025 -0.0518  0.0833
 6694TIP3    H141497   1.893   1.415   3.849  0.0577  1.2004  1.5195
 6694TIP3    H241498   1.900   1.563   3.819 -1.4388  0.9109 -0.4683
 6695TIP3   OH241499   4.630   0.497  12.530 -0.4362  0.3712 -0.3020
 6695TIP3    H141500   4.608   0.590  12.540  1.7671  0.7760  1.9533
 6695TIP3    H241501   4.710   0.498  12.477  1.9970  0.2790  3.0378
 6696TIP3   OH241502   2.766   6.182   5.498  0.0750 -0.5141  0.5641
 6696TIP3    H141503   2.761   6.194   5.403  1.4076 -0.8337  0.4374
 6696TIP3    H241504   2.687   6.133   5.520 -0.0904 -0.7135 -0.4307
 6697TIP3   OH241505   0.319   3.125  17.531 -0.7260 -0.0464  0.1041
 6697TIP3    H141506   0.247   3.188  17.536 -0.2996  0.6259 -1.5786
 6697TIP3    H241507   0.390   3.164  17.582 -1.2780 -0.3394  1.1067
 6698TIP3   OH241508   1.858   3.526   4.837 -0.5597 -0.3418  0.0881
 6698TIP3    H141509   1.941   3.513   4.791  0.2158 -0.8824  1.5580
 6698TIP3    H241510   1.878   3.596   4.900 -0.7926 -1.4362  1.4091
 6699TIP3   OH241511   4.345   4.726  11.951 -0.2262 -0.1022  0.1164
 6699TIP3    H141512   4.361   4.633  11.937  1.0058 -0.2753  2.2954
 6699TIP3    H241513   4.302   4.731  12.036  0.5866  1.3567  0.4835
 6700TIP3   OH241514   0.317   2.632  15.300  0.1532  0.6494 -0.0079
 6700TIP3    H141515   0.396   2.669  15.261  0.0138  1.0877  0.1262
 6700TIP3    H241516   0.296   2.690  15.372 -0.8017  1.0436 -0.5835
 6701TIP3   OH241517   2.135   1.256   2.693 -0.2930  0.1972 -0.2121
 6701TIP3    H141518   2.171   1.245   2.605  1.2510 -0.1468  0.4289
 6701TIP3    H241519   2.209   1.286   2.746 -1.1800  0.3516  0.9842
 6702TIP3   OH241520   0.416   2.839   2.648 -0.1320  0.0675 -0.0205
 6702TIP3    H141521   0.348   2.896   2.682 -1.2715 -1.1985 -0.1080
 6702TIP3    H241522   0.395   2.827   2.555  1.1325  0.9329 -0.4448
 6703TIP3   OH241523   3.065   3.976   6.032  0.4968 -0.2385 -0.0167
 6703TIP3    H141524   3.042   3.883   6.024 -0.6678 -0.0730  0.9528
 6703TIP3    H241525   3.062   3.992   6.126  3.7200  0.0953  0.1233
 6704TIP3   OH241526   6.425   0.465  15.689  0.9439 -0.0069  0.5456
 6704TIP3    H141527   6.337   0.434  15.670  1.3693 -0.6739 -0.4299
 6704TIP3    H241528   6.413   0.548  15.734 -0.1690  0.1792 -0.0778
 6705TIP3   OH241529   5.258   2.149   3.656 -0.2881 -0.3303  0.3264
 6705TIP3    H141530   5.193   2.185   3.594 -1.0543 -1.3679  0.4916
 6705TIP3    H241531   5.292   2.072   3.611  1.9311  0.9664 -0.3714
 6706TIP3   OH241532   0.131   6.321  13.459  0.0890 -0.1850  0.6407
 6706TIP3    H141533   0.078   6.375  13.517 -0.3993 -0.2873  0.2941
 6706TIP3    H241534   0.213   6.370  13.449 -0.7627  1.0511 -0.5621
 6707TIP3   OH241535   3.741   5.917   3.151 -0.1974  0.4384  0.3757
 6707TIP3    H141536   3.679   5.907   3.223 -1.3761 -1.3923 -0.8194
 6707TIP3    H241537   3.702   5.983   3.094 -0.7021 -0.2062 -0.0260
 6708TIP3   OH241538   3.457   5.726   3.644 -0.2542  0.1601  0.0051
 6708TIP3    H141539   3.429   5.636   3.663 -0.0493  0.3439  1.2550
 6708TIP3    H241540   3.380   5.779   3.664 -0.2765  0.3010 -0.4382
 6709TIP3   OH241541   1.584   0.207  12.008  0.8369 -0.2793 -0.4505
 6709TIP3    H141542   1.518   0.148  11.971 -2.1551  0.8939  2.5251
 6709TIP3    H241543   1.622   0.157  12.081  0.2948  0.4413  0.3413
 6710TIP3   OH241544   1.453   2.945   3.650  0.1460  0.8681  0.5731
 6710TIP3    H141545   1.489   3.030   3.625 -1.0049  1.1817 -0.1351
 6710TIP3    H241546   1.473   2.888   3.575  0.4245  0.6666  0.8009
 6711TIP3   OH241547   6.364   1.970   0.085 -0.3273  0.4630 -0.4850
 6711TIP3    H141548   6.413   2.024   0.147 -0.1917  0.2363 -0.3947
 6711TIP3    H241549   6.420   1.966   0.008 -1.8006  3.3592 -1.8829
 6712TIP3   OH241550   3.181   6.080  12.611 -0.2188  0.3961  0.1298
 6712TIP3    H141551   3.271   6.072  12.579  0.1071 -0.6162  1.2040
 6712TIP3    H241552   3.127   6.050  12.539  0.5227 -2.4689  0.6367
 6713TIP3   OH241553   0.828   3.831  15.930  0.8106  0.6309  0.0998
 6713TIP3    H141554   0.827   3.776  15.852  1.8426  3.7521 -2.2879
 6713TIP3    H241555   0.739   3.826  15.964  1.0421 -3.0850  0.6023
 6714TIP3   OH241556   4.325   2.405  12.349  0.3166 -0.5270 -0.0132
 6714TIP3    H141557   4.407   2.377  12.388  1.2601  3.2713  1.1693
 6714TIP3    H241558   4.350   2.458  12.274 -1.3546 -3.1155 -2.6222
 6715TIP3   OH241559   5.032   0.543  13.810  0.2126 -0.0394 -0.0584
 6715TIP3    H141560   5.087   0.480  13.856  0.6393 -0.7061 -1.4280
 6715TIP3    H241561   5.052   0.627  13.851  0.2123 -0.6684  1.2689
 6716TIP3   OH241562   5.114   3.423   4.402 -0.2819  0.0410  0.1650
 6716TIP3    H141563   5.096   3.398   4.492 -1.7709  1.1376  0.2134
 6716TIP3    H241564   5.106   3.342   4.352  0.0221 -0.4769  0.9456
 6717TIP3   OH241565   4.532   1.648   4.706  0.3982  0.3992 -0.8273
 6717TIP3    H141566   4.441   1.673   4.695  0.5345  2.0116  1.1850
 6717TIP3    H241567   4.569   1.715   4.763  2.7414 -0.4601 -1.2243
 6718TIP3   OH241568   0.365   5.935   4.598 -0.0836  0.1139 -0.0004
 6718TIP3    H141569   0.367   6.030   4.611 -0.3696 -0.3008  4.4373
 6718TIP3    H241570   0.272   5.915   4.584 -0.4356  0.3286  1.7591
 6719TIP3   OH241571   4.426   5.110  14.254 -0.1554  0.2278 -0.5789
 6719TIP3    H141572   4.434   5.107  14.349 -1.6396 -0.3560 -0.4503
 6719TIP3    H241573   4.376   5.189  14.236  0.8826  0.8271 -0.9670
 6720TIP3   OH241574   3.980   1.391   5.407 -0.2262 -0.1979  0.4579
 6720TIP3    H141575   4.007   1.430   5.324 -0.2788 -0.0161  0.5241
 6720TIP3    H241576   3.888   1.415   5.415 -0.8392 -2.0698 -0.4775
 6721TIP3   OH241577   4.645   3.221  16.738 -0.0995  0.0741 -0.0034
 6721TIP3    H141578   4.549   3.214  16.744 -0.4649  3.1664 -0.3440
 6721TIP3    H241579   4.676   3.191  16.823 -1.3418 -1.2261  0.0276
 6722TIP3   OH241580   4.351   3.884   1.150 -0.4473 -0.8131 -0.5992
 6722TIP3    H141581   4.313   3.893   1.063 -1.0620  0.7334 -0.2128
 6722TIP3    H241582   4.436   3.927   1.144 -0.2223 -1.2533 -0.5884
 6723TIP3   OH241583   4.345   1.710   4.919 -0.4745 -0.5202 -0.4768
 6723TIP3    H141584   4.414   1.672   4.974  0.8178  0.6437 -1.1979
 6723TIP3    H241585   4.298   1.635   4.883  0.2104 -1.3432  0.3016
 6724TIP3   OH241586   3.449   5.152   4.101  0.1724 -0.3158  0.0133
 6724TIP3    H141587   3.523   5.185   4.153 -0.6179  0.8432  0.4468
 6724TIP3    H241588   3.384   5.125   4.166  0.3466 -1.7062 -0.3606
 6725TIP3   OH241589   3.620   0.483   1.621  0.0001 -0.2306  0.4091
 6725TIP3    H141590   3.674   0.519   1.690  1.8877 -2.1418  0.0180
 6725TIP3    H241591   3.626   0.547   1.550  1.6397 -0.3000  0.4489
 6726TIP3   OH241592   1.370   5.943   1.508 -0.3049  0.4321 -0.5969
 6726TIP3    H141593   1.337   5.934   1.418  2.1466  0.0363 -1.5194
 6726TIP3    H241594   1.339   6.029   1.536 -0.1794  1.0410 -2.2365
 6727TIP3   OH241595   3.424   1.881   2.604 -0.2012 -0.0090 -0.3117
 6727TIP3    H141596   3.472   1.960   2.579 -0.6463  0.6903  0.9565
 6727TIP3    H241597   3.335   1.911   2.621 -0.8527 -1.1138 -1.6012
 6728TIP3   OH241598   5.903   1.408  14.947 -0.2264  0.1980  0.0029
 6728TIP3    H141599   5.854   1.382  15.026  0.9473  2.1233  1.4708
 6728TIP3    H241600   5.994   1.415  14.977  0.3551  0.3529 -1.7100
 6729TIP3   OH241601   0.100   6.562   4.431 -0.0051  0.4452 -0.6872
 6729TIP3    H141602   0.194   6.545   4.425  0.2353  1.0304  0.9692
 6729TIP3    H241603   0.065   6.534   4.346  1.6152 -0.0253 -1.2316
 6730TIP3   OH241604   5.962   2.794  10.958 -0.1202 -0.0331  0.2815
 6730TIP3    H141605   6.024   2.865  10.973 -0.7960  0.4896  0.6830
 6730TIP3    H241606   6.014   2.724  10.919  0.7855  0.2637  0.9207
 6731TIP3   OH241607   1.947   2.637  15.283 -0.3882  0.3464  0.0377
 6731TIP3    H141608   1.909   2.599  15.362 -0.9390  2.6075  0.9129
 6731TIP3    H241609   2.037   2.603  15.281 -0.2398  0.5343  1.8418
 6732TIP3   OH241610   1.527   1.131   4.507  0.5027 -0.2582  0.5615
 6732TIP3    H141611   1.513   1.132   4.602  1.5537 -0.8548  0.7323
 6732TIP3    H241612   1.604   1.187   4.494  0.3757 -0.1975  0.0557
 6733TIP3   OH241613   1.468   0.108   2.378  0.1004 -0.3991  0.1007
 6733TIP3    H141614   1.428   0.033   2.421 -0.5209  0.2386  0.6476
 6733TIP3    H241615   1.401   0.176   2.380  0.2993 -0.1317 -1.2673
 6734TIP3   OH241616   5.296   3.897   3.891 -0.3109 -0.0648  0.2791
 6734TIP3    H141617   5.335   3.918   3.976 -1.0792  0.6307  0.4685
 6734TIP3    H241618   5.282   3.981   3.849  1.4980 -0.4478 -1.2335
 6735TIP3   OH241619   3.096   1.193  11.361 -0.2313  0.7498 -0.4034
 6735TIP3    H141620   3.045   1.120  11.324  0.1593  0.1336  0.2535
 6735TIP3    H241621   3.105   1.171  11.454 -0.3360  1.7769 -0.1449
 6736TIP3   OH241622   1.993   5.374   0.342  0.0317  0.1065 -0.0530
 6736TIP3    H141623   1.906   5.362   0.306 -0.0527  1.9609 -0.5693
 6736TIP3    H241624   1.978   5.398   0.434  0.0250  0.0027 -0.0266
 6737TIP3   OH241625   0.361   0.411   1.284 -0.3288  0.3972 -0.6047
 6737TIP3    H141626   0.430   0.440   1.344 -0.1002 -0.0771 -0.6281
 6737TIP3    H241627   0.354   0.317   1.301 -1.1423  0.4793 -0.4314
 6738TIP3   OH241628   2.474   2.498   2.632 -0.2891 -0.1747  0.2496
 6738TIP3    H141629   2.393   2.456   2.604 -1.4021  2.4773 -0.8609
 6738TIP3    H241630   2.536   2.481   2.561 -1.0190  0.7739 -0.6476
 6739TIP3   OH241631   4.892   3.919   3.092  0.2040  0.3559 -0.1720
 6739TIP3    H141632   4.952   3.992   3.073  1.2777 -0.9523 -2.0900
 6739TIP3    H241633   4.902   3.904   3.186  0.9093  1.8343  0.0228
 6740TIP3   OH241634   4.437   3.754  11.163  0.2593  0.4112  0.6963
 6740TIP3    H141635   4.418   3.845  11.183 -2.1180  0.0818  0.2340
 6740TIP3    H241636   4.363   3.725  11.109  1.3368 -1.5759  0.1662
 6741TIP3   OH241637   1.072   2.623   3.823  0.3165  0.3657  0.4515
 6741TIP3    H141638   1.088   2.536   3.858  0.5578  0.2944  0.1701
 6741TIP3    H241639   1.143   2.638   3.761 -0.0860  0.4996  0.0131
 6742TIP3   OH241640   1.510   5.147   6.406 -0.0925 -0.0837 -0.2401
 6742TIP3    H141641   1.468   5.061   6.414 -2.6712  0.9651 -1.3121
 6742TIP3    H241642   1.437   5.209   6.400  1.6366  1.9658 -1.9148
 6743TIP3   OH241643   2.811   0.068  16.945  0.0195 -0.2652 -0.2603
 6743TIP3    H141644   2.814   0.053  17.039 -0.2818  1.0522 -0.0223
 6743TIP3    H241645   2.733   0.121  16.931  1.6258  2.1461 -0.8266
 6744TIP3   OH241646   3.426   5.099   3.314 -0.7180 -0.3890 -0.1972
 6744TIP3    H141647   3.369   5.094   3.391 -0.6076 -1.4115 -0.1670
 6744TIP3    H241648   3.458   5.189   3.314 -2.9237  0.4576 -0.6418
 6745TIP3   OH241649   6.709   4.852   5.641 -0.2470 -0.4640 -0.2878
 6745TIP3    H141650   6.657   4.932   5.652  0.9079  0.4318 -1.0608
 6745TIP3    H241651   6.797   4.883   5.618  0.3706 -1.9534 -0.0890
 6746TIP3   OH241652   1.970   0.232   1.931  0.7678 -0.8547  0.5227
 6746TIP3    H141653   1.955   0.245   2.024  0.0380 -0.9655  0.4282
 6746TIP3    H241654   2.064   0.242   1.920  0.5058  3.1388  0.6418
 6747TIP3   OH241655   1.103   1.016  15.831  0.4496  0.4721  0.5505
 6747TIP3    H141656   1.195   1.018  15.858  1.0236  0.0320 -1.2545
 6747TIP3    H241657   1.074   0.927  15.848  1.4741 -0.4734 -2.1980
 6748TIP3   OH241658   3.874   1.431  12.312 -0.0462  0.2731 -0.1554
 6748TIP3    H141659   3.867   1.398  12.223  1.1117 -2.2772  0.6124
 6748TIP3    H241660   3.941   1.500  12.307 -0.5835  0.7281 -1.3664
 6749TIP3   OH241661   1.718   1.773  17.514  0.4298 -0.0660 -0.2355
 6749TIP3    H141662   1.772   1.837  17.559 -0.2038  0.9672 -0.9212
 6749TIP3    H241663   1.639   1.766  17.567  0.3552 -0.0468 -0.3462
 6750TIP3   OH241664   5.226   5.253  14.957  0.1495 -0.1970  0.1314
 6750TIP3    H141665   5.189   5.338  14.980 -0.3164 -1.1848  3.6752
 6750TIP3    H241666   5.320   5.269  14.948  0.5196  0.3879  3.6391
 6751TIP3   OH241667   1.824   0.859  14.319  0.7960 -0.2420 -0.2720
 6751TIP3    H141668   1.818   0.783  14.377 -1.1874  0.1166  0.0407
 6751TIP3    H241669   1.800   0.934  14.374  0.8275  0.3603 -1.0588
 6752TIP3   OH241670   4.788   2.339   6.125 -0.4990 -0.1215 -0.4488
 6752TIP3    H141671   4.743   2.256   6.137  3.4868 -2.5957 -0.7061
 6752TIP3    H241672   4.753   2.374   6.043 -1.5186 -2.1221 -0.9289
 6753TIP3   OH241673   1.395   6.489  12.840  0.2368  0.0542  0.2830
 6753TIP3    H141674   1.383   6.513  12.748  2.0908  0.7124  0.1801
 6753TIP3    H241675   1.489   6.498  12.855 -0.0071 -0.2700  2.1907
 6754TIP3   OH241676   3.993   4.571  12.363 -0.0740  0.4308 -0.3073
 6754TIP3    H141677   4.068   4.629  12.374  0.0302  0.4525 -1.0632
 6754TIP3    H241678   3.963   4.553  12.452  0.8224  0.4246  0.0038
 6755TIP3   OH241679   2.591   2.222   4.487  0.1344 -0.0731  0.5690
 6755TIP3    H141680   2.539   2.234   4.566  0.3733  0.9319  0.5795
 6755TIP3    H241681   2.534   2.170   4.429 -0.3024 -0.2289  1.1263
 6756TIP3   OH241682   5.083   2.251   0.127 -0.0582  0.5008  0.4349
 6756TIP3    H141683   4.995   2.219   0.148  0.8334 -1.4465  1.4271
 6756TIP3    H241684   5.092   2.237   0.033  0.0498 -1.6515  0.7225
 6757TIP3   OH241685   3.017   3.138   5.459  0.4614 -0.0382 -0.3466
 6757TIP3    H141686   3.067   3.175   5.532  2.3741 -2.2621 -0.4166
 6757TIP3    H241687   2.988   3.053   5.492 -2.8050  0.8438 -0.5805
 6758TIP3   OH241688   5.423   2.924  16.391 -0.2329  0.5035  0.2001
 6758TIP3    H141689   5.351   2.901  16.332 -1.0886 -1.1422  1.7781
 6758TIP3    H241690   5.386   2.989  16.451 -0.4936 -0.4346  1.0914
 6759TIP3   OH241691   0.542   1.727  15.334 -0.0633  0.0831 -0.3849
 6759TIP3    H141692   0.473   1.742  15.398  1.1719 -0.6138  1.1940
 6759TIP3    H241693   0.563   1.815  15.300 -0.2224  0.5772  0.7539
 6760TIP3   OH241694   4.285   4.051  15.130 -0.3321 -0.6914  0.0716
 6760TIP3    H141695   4.337   4.102  15.068 -3.3296  2.2299 -0.2751
 6760TIP3    H241696   4.290   3.961  15.097  2.9561 -0.3095 -0.8571
 6761TIP3   OH241697   5.886   4.954   2.039  0.5791 -0.8052  0.3763
 6761TIP3    H141698   5.797   4.919   2.043  1.4748 -3.1614  0.9833
 6761TIP3    H241699   5.889   5.019   2.109 -1.1934  0.8172 -0.9243
 6762TIP3   OH241700   0.722   2.817  16.914  0.2646 -0.0334  0.1681
 6762TIP3    H141701   0.649   2.822  16.975 -1.8059 -0.9099 -2.0617
 6762TIP3    H241702   0.762   2.904  16.917 -0.8328  0.4611  1.4846
 6763TIP3   OH241703   0.004   5.965   5.920 -0.1559 -0.1057  0.8408
 6763TIP3    H141704  -0.032   6.053   5.933  0.5258  0.2351  0.4777
 6763TIP3    H241705   0.056   5.948   5.998 -0.8320 -0.4689  1.2200
 6764TIP3   OH241706   6.056   2.493  15.051  0.1193  0.2608  0.6434
 6764TIP3    H141707   6.118   2.536  14.992  1.0061 -1.7873 -0.0196
 6764TIP3    H241708   6.061   2.542  15.132 -0.2875  2.4715 -0.5880
 6765TIP3   OH241709   5.285   1.629  17.568 -0.2914  0.4170  0.1213
 6765TIP3    H141710   5.231   1.701  17.534  0.6513  2.2318  2.1526
 6765TIP3    H241711   5.247   1.611  17.655 -0.1161 -1.1424 -0.1034
 6766TIP3   OH241712   3.406   5.903   5.151  0.0759  0.4651  0.4999
 6766TIP3    H141713   3.472   5.835   5.164 -0.2796  0.1795  0.8571
 6766TIP3    H241714   3.454   5.985   5.157  0.0893  0.3609  3.0536
 6767TIP3   OH241715   5.270   0.756   0.579  0.2177  0.6710  0.8764
 6767TIP3    H141716   5.185   0.713   0.584  0.0010  1.1277  1.2345
 6767TIP3    H241717   5.267   0.807   0.499  1.5027 -2.0842 -1.0775
 6768TIP3   OH241718   4.086   3.411   3.026 -0.2576  0.4064 -0.2140
 6768TIP3    H141719   4.160   3.363   2.990 -0.9502  0.5899 -2.0029
 6768TIP3    H241720   4.060   3.361   3.103 -0.1725 -1.3938 -1.2958
 6769TIP3   OH241721   5.320   4.888  12.328  0.1386  0.1662 -0.1113
 6769TIP3    H141722   5.378   4.835  12.272 -1.2830 -1.9392  0.2886
 6769TIP3    H241723   5.255   4.924  12.268  1.8108  2.6282 -0.5793
 6770TIP3   OH241724   0.989   1.828   0.231 -0.0042  0.0823  0.5292
 6770TIP3    H141725   1.073   1.854   0.192  0.9323 -0.4834  2.0748
 6770TIP3    H241726   1.008   1.743   0.273 -1.0432  0.4788  1.8573
 6771TIP3   OH241727   3.718   2.415   0.026 -0.3932  0.1412 -0.2719
 6771TIP3    H141728   3.643   2.450   0.074 -0.5085  0.1052 -0.4254
 6771TIP3    H241729   3.687   2.332  -0.011 -0.1676 -0.0495 -0.0373
 6772TIP3   OH241730   6.465   6.342  16.031 -0.0523 -0.1232  0.2660
 6772TIP3    H141731   6.552   6.323  16.066 -0.1753  0.9639  1.1929
 6772TIP3    H241732   6.474   6.427  15.989 -0.4654 -0.4077 -0.4068
 6773TIP3   OH241733   5.086   3.790  14.954 -0.0437 -0.3411  0.0272
 6773TIP3    H141734   5.116   3.721  14.894  0.3787 -0.1809  0.0515
 6773TIP3    H241735   5.115   3.871  14.912 -1.5382 -0.0968 -0.5878
 6774TIP3   OH241736   2.900   4.195  16.354 -0.0294  0.1982 -0.1454
 6774TIP3    H141737   2.949   4.233  16.281 -1.1345  1.7537 -0.1252
 6774TIP3    H241738   2.931   4.104  16.359  2.0439  0.8060 -0.7898
 6775TIP3   OH241739   6.662   2.625  14.564  0.3203 -0.0999 -0.7929
 6775TIP3    H141740   6.709   2.709  14.560  0.2018 -0.0626 -2.4660
 6775TIP3    H241741   6.589   2.637  14.503 -1.1553 -0.5945  0.8173
 6776TIP3   OH241742   3.808   6.277   3.894  0.1664 -0.6257 -0.4439
 6776TIP3    H141743   3.755   6.206   3.930  0.9919 -0.9199  0.2364
 6776TIP3    H241744   3.890   6.273   3.944  0.4851  0.3746 -0.8624
 6777TIP3   OH241745   1.362   0.418  15.546  0.4311  0.3461  0.5627
 6777TIP3    H141746   1.310   0.383  15.474  0.4465 -1.3726  1.3242
 6777TIP3    H241747   1.324   0.379  15.625  0.9231  1.5299  1.4301
 6778TIP3   OH241748   4.561   4.139  14.177  0.4709  0.6227 -0.0621
 6778TIP3    H141749   4.630   4.176  14.232 -0.2542  0.6624  0.8420
 6778TIP3    H241750   4.580   4.173  14.089  1.6761  0.5137  0.1337
 6779TIP3   OH241751   1.949   3.233  16.114 -0.4503 -0.1554 -0.2223
 6779TIP3    H141752   1.947   3.178  16.035 -0.1426 -0.8386  0.2373
 6779TIP3    H241753   2.039   3.225  16.146 -0.1900  1.1996 -0.5384
 6780TIP3   OH241754   0.339   4.873   3.437 -0.0532  0.0745  0.3070
 6780TIP3    H141755   0.360   4.843   3.348  2.2355 -0.3635  0.9118
 6780TIP3    H241756   0.248   4.846   3.451  0.0416 -1.2881 -1.3328
 6781TIP3   OH241757   1.314   3.805   1.845 -0.3616  0.5207  0.0764
 6781TIP3    H141758   1.286   3.837   1.759 -2.1352 -0.3688  0.2895
 6781TIP3    H241759   1.287   3.713   1.846 -1.4343  0.8113  2.0113
 6782TIP3   OH241760   3.047   0.932  10.919 -0.0094  0.1415  0.2895
 6782TIP3    H141761   3.092   0.995  10.863  1.1423 -0.7347  0.1999
 6782TIP3    H241762   3.105   0.856  10.922 -1.5009 -1.0780  0.1005
 6783TIP3   OH241763   3.781   4.639  14.089  0.2479 -0.0717 -0.1593
 6783TIP3    H141764   3.724   4.714  14.105  0.4458  0.0695 -0.1176
 6783TIP3    H241765   3.837   4.666  14.016  1.8888  0.7091  1.2963
 6784TIP3   OH241766   1.633   2.473  15.042  0.1534 -0.3741  0.0443
 6784TIP3    H141767   1.571   2.412  15.081  1.1753 -2.2631 -1.1536
 6784TIP3    H241768   1.662   2.430  14.962  1.7804  1.1921 -0.2688
 6785TIP3   OH241769   4.653   3.027   4.126  0.0986 -0.0722  0.3378
 6785TIP3    H141770   4.739   3.008   4.164  0.0094 -0.2382  0.4527
 6785TIP3    H241771   4.671   3.036   4.032  0.2576 -0.0095  0.3726
 6786TIP3   OH241772   2.503   3.143  14.504 -0.5011 -0.2764  0.5056
 6786TIP3    H141773   2.470   3.127  14.416 -1.5098  2.2577  0.3309
 6786TIP3    H241774   2.453   3.084  14.560 -1.8591  0.0289 -0.3425
 6787TIP3   OH241775   3.111   0.111   6.234  0.1742 -0.2061  0.6407
 6787TIP3    H141776   3.038   0.147   6.183 -0.4659 -2.1170  0.1529
 6787TIP3    H241777   3.178   0.179   6.228 -1.4855  1.5739  1.0221
 6788TIP3   OH241778   0.196   2.482  10.490  0.0162 -0.1406  0.7594
 6788TIP3    H141779   0.178   2.437  10.407 -0.2867  0.7180  0.3458
 6788TIP3    H241780   0.110   2.513  10.519  0.1125 -0.5075  1.4418
 6789TIP3   OH241781   3.099   1.181  15.846 -0.0898 -0.1464  0.0515
 6789TIP3    H141782   3.027   1.194  15.908 -1.6600 -1.6254 -1.3590
 6789TIP3    H241783   3.144   1.102  15.876  2.3955  1.8738  2.1374
 6790TIP3   OH241784   2.289   4.243  16.938 -0.0743  0.0316 -0.1197
 6790TIP3    H141785   2.224   4.251  16.868 -0.5544  1.1264  0.4297
 6790TIP3    H241786   2.242   4.202  17.010 -0.0818  0.5442  0.1735
 6791TIP3   OH241787   2.681   4.643  15.056  0.4424  0.4234  0.4083
 6791TIP3    H141788   2.773   4.626  15.078  0.1745 -0.0907  1.1482
 6791TIP3    H241789   2.655   4.567  15.004 -0.7161 -1.5405  3.6007
 6792TIP3   OH241790   0.077   0.391   5.287 -0.6742 -0.5239 -0.4553
 6792TIP3    H141791  -0.004   0.435   5.260  0.4433  2.2719  0.3774
 6792TIP3    H241792   0.089   0.419   5.378  3.1202  2.4419 -1.5978
 6793TIP3   OH241793   5.824   4.101   6.320 -0.2118  0.6895  0.1467
 6793TIP3    H141794   5.820   4.194   6.340 -0.9837  0.6582  0.1790
 6793TIP3    H241795   5.916   4.077   6.333 -0.1347  1.3002  0.7734
 6794TIP3   OH241796   3.311   2.172  16.190  0.2310 -0.0126  0.3168
 6794TIP3    H141797   3.330   2.253  16.237  0.8521  1.5722 -2.4061
 6794TIP3    H241798   3.215   2.167  16.188  0.1797 -0.5964  2.3815
 6795TIP3   OH241799   5.481   1.923  15.927  0.0676  0.8612  0.0238
 6795TIP3    H141800   5.537   1.997  15.951  1.5723 -0.7098  1.6456
 6795TIP3    H241801   5.412   1.923  15.994  2.2063 -1.3396  2.4323
 6796TIP3   OH241802   0.776   4.271  11.378 -0.1166  0.1274 -0.5170
 6796TIP3    H141803   0.714   4.220  11.429  0.5376  1.1452  1.4134
 6796TIP3    H241804   0.762   4.243  11.287 -1.2726 -1.8195  0.2032
 6797TIP3   OH241805   3.825   2.807  11.602 -0.0987 -0.6053  0.9316
 6797TIP3    H141806   3.838   2.894  11.564 -2.1258 -0.3305  0.7592
 6797TIP3    H241807   3.878   2.749  11.547  2.9699  0.6805  2.2757
 6798TIP3   OH241808   5.731   6.497   5.812 -0.1715  0.4400  0.4001
 6798TIP3    H141809   5.712   6.403   5.811 -1.2906  0.6430  0.6768
 6798TIP3    H241810   5.783   6.512   5.733 -1.5659 -0.1291 -0.6780
 6799TIP3   OH241811   0.063   5.411  16.982  0.3704 -0.0445 -0.1523
 6799TIP3    H141812   0.066   5.389  17.075  0.5334  1.2056  0.1568
 6799TIP3    H241813   0.004   5.486  16.977 -0.0989 -0.4651 -1.1422
 6800TIP3   OH241814   1.666   0.212  17.483  0.0073  0.1298  0.3533
 6800TIP3    H141815   1.712   0.231  17.401  0.7974  0.8185  0.9350
 6800TIP3    H241816   1.682   0.120  17.499  0.6020  0.2020  0.1865
 6801TIP3   OH241817   4.307   1.353   5.164 -0.4759  0.0571 -0.4836
 6801TIP3    H141818   4.226   1.402   5.175 -0.8890 -0.6218 -0.4593
 6801TIP3    H241819   4.289   1.293   5.091 -0.1880 -0.4811 -0.1211
 6802TIP3   OH241820   4.453   2.895   4.275 -0.2774 -0.3054  0.5506
 6802TIP3    H141821   4.476   2.826   4.213  1.1024 -1.4567  2.2437
 6802TIP3    H241822   4.469   2.976   4.228  0.2723 -1.1294 -0.7382
 6803TIP3   OH241823   5.737   4.755   1.762  0.2845  0.3149  0.3277
 6803TIP3    H141824   5.666   4.763   1.699  1.7445 -1.7116 -1.7210
 6803TIP3    H241825   5.762   4.846   1.781 -1.2216  1.0059 -0.7831
 6804TIP3   OH241826   6.362   3.657  13.843  0.3598 -0.2162 -0.0632
 6804TIP3    H141827   6.450   3.690  13.861  0.2012 -0.3261  0.9496
 6804TIP3    H241828   6.333   3.619  13.926 -0.0713 -1.5046 -0.7917
 6805TIP3   OH241829   0.990   2.553  10.708  0.0613  0.1048  0.2317
 6805TIP3    H141830   0.945   2.469  10.695  0.5568 -0.2246  0.5884
 6805TIP3    H241831   0.965   2.581  10.795  1.7558 -0.8677  1.0814
 6806TIP3   OH241832   3.561   3.912  17.241 -0.2305  0.1710 -0.0435
 6806TIP3    H141833   3.643   3.863  17.232 -0.3210 -0.4476  2.1035
 6806TIP3    H241834   3.562   3.945  17.330 -1.5006  1.7241 -0.5627
 6807TIP3   OH241835   2.877   0.099  15.005 -0.4038  0.1129 -0.1700
 6807TIP3    H141836   2.955   0.152  15.022 -0.3639 -0.3904  1.3878
 6807TIP3    H241837   2.910   0.010  14.995 -0.4596  0.3010 -2.8863
 6808TIP3   OH241838   3.299   3.063   6.920  0.7159  0.0930 -0.4155
 6808TIP3    H141839   3.319   2.979   6.962 -0.6603 -1.0124 -1.8411
 6808TIP3    H241840   3.375   3.080   6.865  0.0694 -1.4226 -1.8529
 6809TIP3   OH241841   1.610   0.804   2.201  0.3236  0.3664  0.2961
 6809TIP3    H141842   1.528   0.760   2.179  0.1002  1.2021 -0.6123
 6809TIP3    H241843   1.650   0.825   2.116  0.8997  1.0253  0.7113
 6810TIP3   OH241844   0.652   6.630  16.779  0.3171 -0.1970 -0.4277
 6810TIP3    H141845   0.723   6.573  16.747  1.7498  0.9512  0.5505
 6810TIP3    H241846   0.697   6.696  16.832 -1.2149  2.0557 -1.7614
 6811TIP3   OH241847   5.215   6.338   2.422 -0.0240 -0.6048  0.2997
 6811TIP3    H141848   5.146   6.273   2.416  0.8212 -1.4171 -0.8649
 6811TIP3    H241849   5.290   6.299   2.379  0.0066  1.8202 -2.1384
 6812TIP3   OH241850   4.819   5.044  16.640  0.1712 -0.5624 -0.2846
 6812TIP3    H141851   4.822   5.079  16.730 -0.2271  1.5437 -1.0236
 6812TIP3    H241852   4.740   4.989  16.639 -0.6600  0.5620  0.3004
 6813TIP3   OH241853   1.177   6.230  13.614  0.0321 -0.2590  0.0279
 6813TIP3    H141854   1.099   6.175  13.615  0.2909 -0.6342  0.7246
 6813TIP3    H241855   1.245   6.175  13.574  0.4251 -0.6671  1.1995
 6814TIP3   OH241856   0.785   1.688  12.039  0.2412 -0.0581  0.0223
 6814TIP3    H141857   0.804   1.681  11.946  0.5002  0.5099  0.0316
 6814TIP3    H241858   0.690   1.697  12.044  0.1260 -1.0688 -0.1239
 6815TIP3   OH241859   4.030   3.798   2.898 -0.1223 -0.8098 -0.1052
 6815TIP3    H141860   4.086   3.851   2.954  0.8530 -1.0538 -0.8373
 6815TIP3    H241861   4.056   3.820   2.809 -0.4712 -1.6948 -0.4384
 6816TIP3   OH241862   0.330   6.019  11.983  0.4173 -0.1902 -0.0323
 6816TIP3    H141863   0.332   5.937  12.031 -1.8856 -1.0795 -1.3040
 6816TIP3    H241864   0.392   6.006  11.911  1.1865 -0.2213  0.6273
 6817TIP3   OH241865   3.494   5.912   4.864 -0.0242  0.4903 -0.0066
 6817TIP3    H141866   3.535   5.966   4.932 -2.6358  0.4580  1.7487
 6817TIP3    H241867   3.526   5.824   4.881  0.3073  0.6882  0.4239
 6818TIP3   OH241868   1.201   0.308  12.120  0.0551  0.7126  1.2361
 6818TIP3    H141869   1.228   0.400  12.121 -0.2468  0.8032  1.0100
 6818TIP3    H241870   1.107   0.310  12.102  0.2672  0.3145 -0.0400
 6819TIP3   OH241871   0.286   5.562   5.670 -0.2098 -0.3178 -0.1606
 6819TIP3    H141872   0.202   5.589   5.708 -0.8042 -1.3709 -0.6771
 6819TIP3    H241873   0.309   5.633   5.610 -0.0169  0.6382  0.9999
 6820TIP3   OH241874   1.185   3.544   0.349  0.2565  0.3354  0.2187
 6820TIP3    H141875   1.259   3.601   0.369  0.8300 -0.8957  1.9124
 6820TIP3    H241876   1.174   3.490   0.428 -0.7046 -1.3879 -1.0049
 6821TIP3   OH241877   4.385   4.352  12.499 -0.3628 -0.3335  0.1972
 6821TIP3    H141878   4.477   4.331  12.517 -0.7358 -0.5603  2.0348
 6821TIP3    H241879   4.347   4.271  12.466 -0.4459 -0.9703  1.7731
 6822TIP3   OH241880   2.874   5.412   2.925 -0.1327 -0.2426 -0.5660
 6822TIP3    H141881   2.889   5.340   2.864  1.8149 -0.2493 -0.1571
 6822TIP3    H241882   2.895   5.374   3.011 -1.1285  0.2601 -0.0748
 6823TIP3   OH241883   0.993   1.036   4.216  0.2476  0.2561  0.2426
 6823TIP3    H141884   1.062   1.062   4.155  0.2644  0.8384  0.5021
 6823TIP3    H241885   0.921   1.096   4.198  0.3475  0.6019  0.9682
 6824TIP3   OH241886   5.239   1.147  16.671 -0.0059  0.0635  0.2723
 6824TIP3    H141887   5.299   1.172  16.742 -1.3902  1.6469  0.9608
 6824TIP3    H241888   5.263   1.206  16.599 -1.4974  1.6208  0.9822
 6825TIP3   OH241889   3.729   3.061  14.535 -0.1428 -0.3948  0.3407
 6825TIP3    H141890   3.825   3.053  14.534 -0.0097  0.7275 -1.6358
 6825TIP3    H241891   3.713   3.149  14.568 -0.3466  0.1951 -1.2245
 6826TIP3   OH241892   4.855   5.847   1.687 -1.3002  0.0036 -0.0134
 6826TIP3    H141893   4.793   5.811   1.751  1.2724 -1.3513  1.9251
 6826TIP3    H241894   4.862   5.779   1.620 -2.3625  0.4597 -0.6066
 6827TIP3   OH241895   5.735   6.005  15.094 -0.0210  0.2467  0.0332
 6827TIP3    H141896   5.724   6.090  15.138 -1.9641 -0.2074  0.5192
 6827TIP3    H241897   5.686   6.013  15.013  0.6158 -0.0934 -0.3922
 6828TIP3   OH241898   3.112   1.653  17.524 -0.2063  0.3220 -0.0925
 6828TIP3    H141899   3.090   1.601  17.447 -0.8861 -0.3396  0.5217
 6828TIP3    H241900   3.129   1.741  17.491  1.4557 -0.3767 -1.2261
 6829TIP3   OH241901   5.991   3.675  12.112  0.3518 -0.3506 -0.1812
 6829TIP3    H141902   5.910   3.725  12.118  0.3424 -0.3743 -0.1027
 6829TIP3    H241903   6.060   3.738  12.130  0.4914  0.0808 -2.0376
 6830TIP3   OH241904   5.168   4.459   2.649 -0.2886  0.1900 -0.3192
 6830TIP3    H141905   5.251   4.419   2.675  1.0470  2.4408 -0.8436
 6830TIP3    H241906   5.188   4.504   2.567 -1.8528  1.3476 -0.1014
 6831TIP3   OH241907   4.541   0.239  12.751  1.0866  0.2288 -0.2346
 6831TIP3    H141908   4.605   0.201  12.811  0.8790  1.4357  0.7959
 6831TIP3    H241909   4.545   0.333  12.768  0.9222  0.5956 -2.0339
 6832TIP3   OH241910   5.619   6.080   6.144 -0.3443 -0.0936  0.0858
 6832TIP3    H141911   5.564   6.001   6.150 -0.6133  0.1972  3.2147
 6832TIP3    H241912   5.702   6.054   6.184 -0.5175  1.2229  1.3902
 6833TIP3   OH241913   0.615   5.789  11.189 -0.3816 -0.0396  0.5597
 6833TIP3    H141914   0.617   5.864  11.129  0.0745 -0.9938 -0.6721
 6833TIP3    H241915   0.524   5.763  11.192 -0.3900 -0.0581  0.1833
 6834TIP3   OH241916   6.497   0.699  11.935 -0.1822  0.1532  0.2072
 6834TIP3    H141917   6.410   0.694  11.976  0.3422 -0.8048  1.2443
 6834TIP3    H241918   6.538   0.615  11.955  1.0969  0.6987 -0.0372
 6835TIP3   OH241919   2.752   5.352   2.146 -0.0592 -0.2521 -0.2884
 6835TIP3    H141920   2.674   5.395   2.180  0.9351  1.4344 -0.0266
 6835TIP3    H241921   2.719   5.287   2.084 -1.6455  0.7702 -0.5727
 6836TIP3   OH241922   4.087   1.894  13.699 -0.3947 -0.2653 -0.0349
 6836TIP3    H141923   4.066   1.877  13.791 -0.7397  1.1867  0.1899
 6836TIP3    H241924   4.010   1.864  13.650 -1.0340  0.6969  0.3468
 6837TIP3   OH241925   3.891   5.844   3.550  0.9399 -0.5059 -0.1717
 6837TIP3    H141926   3.850   5.882   3.627 -1.3325 -3.0983  0.0570
 6837TIP3    H241927   3.979   5.880   3.549  0.1269  1.7732  2.0026
 6838TIP3   OH241928   6.065   3.492   2.555  0.7294 -0.1230  0.1090
 6838TIP3    H141929   6.152   3.494   2.596  1.3555  0.3525 -1.1586
 6838TIP3    H241930   6.046   3.584   2.535  1.2481 -0.4442 -2.1767
 6839TIP3   OH241931   5.726   3.061   3.667 -0.4772  0.1645  0.3474
 6839TIP3    H141932   5.692   3.145   3.637 -0.5004  0.4220  1.0790
 6839TIP3    H241933   5.796   3.083   3.728  0.6622 -0.3610 -0.7334
 6840TIP3   OH241934   3.063   4.754  11.179 -0.0204  0.0035 -0.0374
 6840TIP3    H141935   3.003   4.813  11.132 -1.1831 -1.6693 -0.7775
 6840TIP3    H241936   3.127   4.727  11.113 -0.3227 -0.6148 -0.0877
 6841TIP3   OH241937   3.832   0.987   4.697 -0.0728  0.7709  0.2625
 6841TIP3    H141938   3.767   0.928   4.660 -0.6851  0.9568  1.0117
 6841TIP3    H241939   3.881   0.933   4.759 -0.2948  0.9148  0.5676
 6842TIP3   OH241940   4.618   0.270  13.719 -0.1068 -0.8933  0.2849
 6842TIP3    H141941   4.664   0.201  13.768  0.4666 -1.5874 -1.1833
 6842TIP3    H241942   4.668   0.349  13.739  0.8021 -1.3661 -0.0298
 6843TIP3   OH241943   0.103   0.687  12.012 -0.2439  0.0995 -0.2891
 6843TIP3    H141944   0.115   0.761  12.072  0.2576 -1.3265  1.4372
 6843TIP3    H241945   0.181   0.688  11.957 -0.5025  1.1722 -0.6642
 6844TIP3   OH241946   0.631   6.462  16.421  0.2111 -0.5028  0.4844
 6844TIP3    H141947   0.725   6.445  16.421  0.7994  2.3562  0.1969
 6844TIP3    H241948   0.609   6.473  16.328 -0.1348  0.0559  0.6282
 6845TIP3   OH241949   6.471   0.640  13.036 -0.2903  0.5009 -0.0897
 6845TIP3    H141950   6.407   0.689  13.089 -0.1996 -0.2983  0.7915
 6845TIP3    H241951   6.530   0.601  13.100 -1.5489 -2.4486 -0.5422
 6846TIP3   OH241952   1.777   5.926  16.300  0.0010  0.2716  0.3398
 6846TIP3    H141953   1.826   5.950  16.221  0.8204 -0.1469  0.7086
 6846TIP3    H241954   1.685   5.924  16.272  0.2569  0.3652 -0.5383
 6847TIP3   OH241955   0.642   3.422   3.916 -0.3973  0.3765 -0.3140
 6847TIP3    H141956   0.643   3.377   4.000  0.5260 -0.8702 -0.9556
 6847TIP3    H241957   0.595   3.363   3.858  0.9559  0.1323 -1.2126
 6848TIP3   OH241958   5.620   1.403  15.133  0.0820  0.5582  0.4217
 6848TIP3    H141959   5.598   1.488  15.095  2.2839  1.7986  1.7198
 6848TIP3    H241960   5.606   1.415  15.227  0.5652 -0.4862  0.6361
 6849TIP3   OH241961   4.807   4.196   0.259 -0.5411  0.4213 -0.0188
 6849TIP3    H141962   4.748   4.237   0.322  0.3969  2.1677 -0.2229
 6849TIP3    H241963   4.753   4.131   0.214 -1.8575  0.8280  0.9310
 6850TIP3   OH241964   1.508   4.054  14.852  0.5617 -0.0435 -0.5189
 6850TIP3    H141965   1.426   4.061  14.900  0.8946  0.4985 -0.0160
 6850TIP3    H241966   1.482   4.036  14.761 -0.0981 -0.0719 -0.3258
 6851TIP3   OH241967   2.645   4.362   4.761  0.4680 -0.0263  0.2078
 6851TIP3    H141968   2.683   4.278   4.787 -1.1589 -1.0261 -0.5252
 6851TIP3    H241969   2.555   4.359   4.794 -0.3216  0.4361 -1.7941
 6852TIP3   OH241970   3.564   5.049   5.875  0.0736 -0.0605 -0.4801
 6852TIP3    H141971   3.659   5.038   5.882  0.1306  0.0041 -1.0670
 6852TIP3    H241972   3.540   5.097   5.954  0.7584  1.2682 -1.0450
 6853TIP3   OH241973   3.150   0.076  12.414  0.4129  0.1683  0.6074
 6853TIP3    H141974   3.225   0.098  12.469  0.1106  1.8956  0.3627
 6853TIP3    H241975   3.184   0.078  12.325  0.5983 -1.3938  0.6027
 6854TIP3   OH241976   4.461   2.623   6.650 -0.1857  0.0850  0.1793
 6854TIP3    H141977   4.518   2.552   6.621 -0.8437  0.5531 -2.6594
 6854TIP3    H241978   4.486   2.640   6.740  1.8687 -1.8988  0.0674
 6855TIP3   OH241979   0.982   0.771  12.505 -0.4707  0.1168  0.2402
 6855TIP3    H141980   0.897   0.809  12.481 -0.5152  0.4286  0.8779
 6855TIP3    H241981   1.016   0.830  12.572  0.2610  0.0024 -0.0257
 6856TIP3   OH241982   1.410   4.526  16.460 -0.0019 -0.4014 -0.0943
 6856TIP3    H141983   1.332   4.485  16.424 -0.5038 -0.9203  1.4976
 6856TIP3    H241984   1.483   4.483  16.415 -0.5510 -2.1634  0.5981
 6857TIP3   OH241985   5.640   1.518  15.972  0.7221 -0.7817  0.6912
 6857TIP3    H141986   5.673   1.605  15.996  0.1247  0.3694 -2.1955
 6857TIP3    H241987   5.692   1.494  15.895  0.3126 -2.6597  0.9617
 6858TIP3   OH241988   6.568   4.130   3.175 -0.3411  0.4496  0.6524
 6858TIP3    H141989   6.637   4.192   3.151 -0.9255  1.2232  0.9376
 6858TIP3    H241990   6.581   4.056   3.115  0.2812  0.8986  0.2150
 6859TIP3   OH241991   6.442   1.165  12.015  0.1146  0.0694 -0.1373
 6859TIP3    H141992   6.494   1.105  11.962  0.5919 -0.0709  0.4766
 6859TIP3    H241993   6.362   1.179  11.965 -0.2094 -1.4407 -0.0731
 6860TIP3   OH241994   5.046   4.954   4.188 -0.2398 -0.5520  0.1581
 6860TIP3    H141995   5.140   4.945   4.206 -0.2461 -0.6494  0.1398
 6860TIP3    H241996   5.004   4.937   4.273 -0.2057  0.1988  0.3358
 6861TIP3   OH241997   4.406   2.290   1.909  0.0808 -0.4803  0.6440
 6861TIP3    H141998   4.472   2.230   1.873 -0.5139 -1.9489  1.8879
 6861TIP3    H241999   4.407   2.272   2.003  0.0082  1.6431  1.0825
 6862TIP3   OH242000   1.064   1.348  15.556 -0.3154 -0.4704 -0.8733
 6862TIP3    H142001   0.971   1.325  15.556 -0.9696  1.9057  0.1550
 6862TIP3    H242002   1.078   1.393  15.473 -0.2276 -0.2918 -0.7621
 6863TIP3   OH242003   0.424   2.963  15.629  0.5235 -0.6069  0.1272
 6863TIP3    H142004   0.339   3.008  15.624  1.3672  0.9414 -1.4584
 6863TIP3    H242005   0.451   2.974  15.720 -1.1000 -1.4461  0.7643
 6864TIP3   OH242006   0.741   4.727  13.930  0.1689  0.4641  0.1062
 6864TIP3    H142007   0.770   4.779  13.855 -0.2860  0.1948 -0.2667
 6864TIP3    H242008   0.770   4.776  14.006 -1.0743  1.7763 -0.2112
 6865TIP3   OH242009   4.927   2.793   0.139 -0.3605  0.0186 -0.6584
 6865TIP3    H142010   4.846   2.840   0.124 -0.5656 -0.7871 -2.3041
 6865TIP3    H242011   4.901   2.716   0.189 -0.6728 -0.3577 -1.3798
 6866TIP3   OH242012   2.645   6.015   3.552  0.2175  0.3712  0.1329
 6866TIP3    H142013   2.564   6.057   3.524 -0.0067 -0.5178 -0.5755
 6866TIP3    H242014   2.624   5.922   3.555  0.2898  0.3397  3.0309
 6867TIP3   OH242015   1.061   3.208  16.949 -0.2416  0.3707 -0.0086
 6867TIP3    H142016   1.140   3.192  16.898 -1.3617 -0.1627 -1.6720
 6867TIP3    H242017   1.046   3.302  16.941  0.8005  0.6606  1.2402
 6868TIP3   OH242018   4.532   1.625  16.911 -0.7143  0.3417  0.4228
 6868TIP3    H142019   4.587   1.676  16.851 -1.6380  0.1755 -0.6005
 6868TIP3    H242020   4.538   1.535  16.878 -0.1688  0.0089  1.4033
 6869TIP3   OH242021   6.147   4.017   2.894  0.1704 -0.3605 -0.1839
 6869TIP3    H142022   6.080   3.957   2.862  1.7781 -0.8733 -2.9278
 6869TIP3    H242023   6.230   3.975   2.872  1.3653  1.9370 -0.4337
 6870TIP3   OH242024   3.956   4.807  10.425  0.1207 -0.4121  0.1013
 6870TIP3    H142025   4.008   4.879  10.388  0.2847 -0.5287  0.1020
 6870TIP3    H242026   3.876   4.849  10.456  1.2461  0.2053  2.4181
 6871TIP3   OH242027   2.480   1.490  16.885 -0.0587  0.5101 -0.1373
 6871TIP3    H142028   2.480   1.409  16.835  1.8603  1.5502 -1.9866
 6871TIP3    H242029   2.399   1.488  16.935 -0.3196 -2.2696 -0.5448
 6872TIP3   OH242030   4.118   0.109   5.765  0.0475  0.6495 -0.4291
 6872TIP3    H142031   4.126   0.164   5.687  0.7891  0.2176 -0.6695
 6872TIP3    H242032   4.174   0.151   5.830  1.2932 -0.2585 -0.8791
 6873TIP3   OH242033   2.163   5.874  15.784 -0.0169 -0.3192  0.2399
 6873TIP3    H142034   2.243   5.926  15.790  0.5954 -1.4317  2.7803
 6873TIP3    H242035   2.193   5.784  15.771 -0.9535 -0.5191 -0.7206
 6874TIP3   OH242036   2.068   3.021   2.842  0.4378  0.4753 -0.1278
 6874TIP3    H142037   2.114   2.939   2.825 -3.2139 -2.4417  2.3785
 6874TIP3    H242038   2.056   3.023   2.937 -0.3473  3.5882 -0.1715
 6875TIP3   OH242039   4.023   1.935   5.030 -0.7137 -0.5643  0.2780
 6875TIP3    H142040   3.990   1.877   5.098  0.0373 -0.2469  0.9234
 6875TIP3    H242041   3.977   2.017   5.044 -0.4745 -0.4634  0.4805
 6876TIP3   OH242042   1.984   0.946   1.668 -1.0084 -0.6901 -0.7101
 6876TIP3    H142043   2.033   1.023   1.641 -0.7277  0.3236  2.2729
 6876TIP3    H242044   1.900   0.953   1.623 -0.2422  0.2456 -2.0365
 6877TIP3   OH242045   3.614   3.583   5.737 -0.1859  0.7475 -0.0487
 6877TIP3    H142046   3.670   3.529   5.793 -0.8179  0.5415  0.3911
 6877TIP3    H242047   3.545   3.615   5.796 -2.1862 -1.3004 -1.1187
 6878TIP3   OH242048   4.289   1.747  14.072  0.4866 -0.7828 -0.2851
 6878TIP3    H142049   4.334   1.832  14.076  0.2427 -0.6886  1.2878
 6878TIP3    H242050   4.344   1.688  14.124 -1.5107 -0.4527  2.4506
 6879TIP3   OH242051   2.564   1.583  11.549  0.0239 -0.5426  0.0752
 6879TIP3    H142052   2.577   1.521  11.477 -0.2730 -1.4477  0.7833
 6879TIP3    H242053   2.619   1.550  11.620  0.2939  0.3257  0.2813
 6880TIP3   OH242054   5.942   5.230   2.934  0.4498  0.1999 -0.2439
 6880TIP3    H142055   5.913   5.297   2.872 -0.2948 -0.3527 -0.5109
 6880TIP3    H242056   5.887   5.244   3.011 -0.4425 -0.7344 -0.6822
 6881TIP3   OH242057   6.449   0.270  13.039 -0.1357 -0.0902  0.1928
 6881TIP3    H142058   6.375   0.329  13.053  0.6511  1.4447 -1.6169
 6881TIP3    H242059   6.410   0.183  13.034 -1.5924  0.4911  0.9431
 6882TIP3   OH242060   3.575   3.783  12.429 -0.1085 -0.1853  0.0017
 6882TIP3    H142061   3.533   3.760  12.512 -0.8157  1.0396  0.0153
 6882TIP3    H242062   3.619   3.866  12.448 -1.5974  0.9462 -1.2290
 6883TIP3   OH242063   2.507   1.522  17.150 -0.4883 -0.3219 -0.3900
 6883TIP3    H142064   2.548   1.441  17.181 -0.5573 -0.3563 -0.3875
 6883TIP3    H242065   2.533   1.528  17.058  0.5923  0.3320 -0.0611
 6884TIP3   OH242066   2.353   1.174  13.077  0.5128  0.3808 -0.1215
 6884TIP3    H142067   2.345   1.149  12.985  1.4925 -2.0077  0.3735
 6884TIP3    H242068   2.446   1.170  13.096  0.2425 -0.3163  1.2422
 6885TIP3   OH242069   2.295   4.520   2.670 -0.0917  0.4083  0.2786
 6885TIP3    H142070   2.257   4.443   2.713 -1.2912  0.0214 -1.3967
 6885TIP3    H242071   2.279   4.592   2.732 -2.3875 -0.0059  0.2435
 6886TIP3   OH242072   6.106   0.742   3.990 -0.1936 -0.4351 -0.0921
 6886TIP3    H142073   6.163   0.723   3.916  2.9279  1.7282  1.5183
 6886TIP3    H242074   6.105   0.661   4.041  1.3777 -0.5793 -0.2452
 6887TIP3   OH242075   1.746   3.088   4.211  0.6593 -0.7012  0.5091
 6887TIP3    H142076   1.762   3.010   4.265  1.2065  0.3979  2.0150
 6887TIP3    H242077   1.701   3.148   4.270 -0.3196 -0.0873 -0.8196
 6888TIP3   OH242078   0.581   6.235  12.046 -0.0401 -0.2605 -0.2725
 6888TIP3    H142079   0.523   6.242  12.122 -0.1392 -0.9365 -0.2757
 6888TIP3    H242080   0.633   6.156  12.063  1.3876  0.7041  0.0754
 6889TIP3   OH242081   3.954   3.494  17.313  0.0427  0.0344 -0.0780
 6889TIP3    H142082   3.960   3.485  17.218  1.2625 -1.7364  0.1318
 6889TIP3    H242083   3.918   3.410  17.343  1.6814 -0.2580  1.1817
 6890TIP3   OH242084   2.979   4.097   3.858  0.1714  0.5913  0.2849
 6890TIP3    H142085   3.005   4.062   3.943 -0.3687 -1.4096 -0.3288
 6890TIP3    H242086   2.884   4.110   3.866  0.1678  0.6855  0.0831
 6891TIP3   OH242087   1.498   3.638   5.081  0.1378 -0.0513  0.3809
 6891TIP3    H142088   1.548   3.642   5.162  1.5704 -0.1796 -0.4504
 6891TIP3    H242089   1.408   3.620   5.108  0.1713  1.9224  2.0413
 6892TIP3   OH242090   0.770   2.821   5.291  0.3143  0.5210 -0.1597
 6892TIP3    H142091   0.701   2.776   5.340  0.9506  0.6095  0.8380
 6892TIP3    H242092   0.743   2.812   5.199 -0.2725 -0.7080  0.1039
 6893TIP3   OH242093   6.202   4.083   1.975  0.4364 -0.1941 -0.1867
 6893TIP3    H142094   6.120   4.107   1.933 -0.3196 -0.9705  0.7983
 6893TIP3    H242095   6.215   4.149   2.042  1.5672  0.9599 -1.4665
 6894TIP3   OH242096   4.151   4.658  16.626  0.2867 -0.3669  0.4757
 6894TIP3    H142097   4.151   4.599  16.551 -2.6146  1.2352 -0.9589
 6894TIP3    H242098   4.071   4.636  16.674  0.1897  1.0437  1.0285
 6895TIP3   OH242099   0.542   3.949  12.664 -0.3892  0.2685 -0.1454
 6895TIP3    H142100   0.612   3.929  12.602  0.3378  2.2839 -0.0396
 6895TIP3    H242101   0.468   3.896  12.634  0.7958 -0.9737 -0.9950
 6896TIP3   OH242102   3.815   5.009   6.265 -0.1470  0.0237 -0.3077
 6896TIP3    H142103   3.801   4.926   6.310  0.9311  1.3508  2.7697
 6896TIP3    H242104   3.740   5.063   6.290 -0.2045  0.4251 -1.2720
 6897TIP3   OH242105   4.035   3.708   5.711  0.5645 -0.2563 -0.2788
 6897TIP3    H142106   3.957   3.755   5.740  0.0457 -0.5707 -1.1499
 6897TIP3    H242107   4.003   3.640   5.652  1.3784 -1.2238  0.3507
 6898TIP3   OH242108   3.987   6.606   2.300  0.0680 -0.0544 -0.0387
 6898TIP3    H142109   3.980   6.587   2.393  1.7847 -1.7427 -0.1893
 6898TIP3    H242110   4.075   6.642   2.290 -0.3532  0.7651 -0.9233
 6899TIP3   OH242111   1.968   0.517   4.715  0.3071 -0.0720 -0.3280
 6899TIP3    H142112   2.002   0.451   4.655 -0.3849  0.5677 -1.4755
 6899TIP3    H242113   1.936   0.587   4.657 -2.5795 -0.4508  0.6630
 6900TIP3   OH242114   5.084   1.758   2.141  0.6200  0.4658 -0.0785
 6900TIP3    H142115   5.018   1.733   2.205 -0.2380 -1.1069 -1.4939
 6900TIP3    H242116   5.111   1.846   2.167 -1.2541  0.7273  1.1510
 6901TIP3   OH242117   5.581   3.687   5.914 -0.0781 -0.1419  0.5531
 6901TIP3    H142118   5.624   3.727   5.989  0.4094  0.1730  0.1097
 6901TIP3    H242119   5.646   3.626   5.878  0.0673  0.4326 -0.1982
 6902TIP3   OH242120   0.813   3.077  12.788  0.1640  0.4944 -0.0923
 6902TIP3    H142121   0.819   2.983  12.807 -0.3896  0.1975 -1.2601
 6902TIP3    H242122   0.849   3.120  12.865 -3.0512 -0.5786  2.2175
 6903TIP3   OH242123   4.770   3.173   4.384 -0.7553  0.4196  0.5201
 6903TIP3    H142124   4.827   3.143   4.313 -1.0207 -1.2464  0.9673
 6903TIP3    H242125   4.694   3.210   4.340 -1.0983 -0.9602 -0.1039
 6904TIP3   OH242126   5.405   5.451   5.140  0.4787 -0.6288  0.4526
 6904TIP3    H142127   5.375   5.539   5.164  1.0026 -0.4679  0.5223
 6904TIP3    H242128   5.326   5.398   5.142  0.2739 -0.3036  1.0739
 6905TIP3   OH242129   4.649   0.050  10.975 -0.1229  0.2000 -0.1309
 6905TIP3    H142130   4.554   0.059  10.966  0.0386  1.2396 -0.9940
 6905TIP3    H242131   4.682   0.140  10.980  0.9461 -0.0779 -1.4509
 6906TIP3   OH242132   3.725   5.734  16.164 -0.5711 -0.3588  0.3476
 6906TIP3    H142133   3.763   5.675  16.229 -1.7398  1.3704  2.7395
 6906TIP3    H242134   3.783   5.726  16.088  4.0194  1.1642  3.2577
 6907TIP3   OH242135   1.531   6.642   0.484  0.0074  0.2064  0.3678
 6907TIP3    H142136   1.591   6.661   0.556  0.2985  0.0170  0.1794
 6907TIP3    H242137   1.581   6.662   0.405  0.1447 -0.8123  0.1809
 6908TIP3   OH242138   4.639   0.145   1.558  0.2083 -0.4416  0.2213
 6908TIP3    H142139   4.638   0.131   1.652  0.3782 -0.5731  0.2037
 6908TIP3    H242140   4.555   0.113   1.527  0.6000 -1.4534  0.1775
 6909TIP3   OH242141   0.033   1.915  13.938 -0.2668 -0.2815  0.0207
 6909TIP3    H142142   0.075   1.867  14.009  0.8715 -0.9514 -1.0702
 6909TIP3    H242143   0.020   1.850  13.869 -0.1497  0.6221 -0.8765
 6910TIP3   OH242144   3.483   3.256   4.150  0.2113  0.2620  0.0271
 6910TIP3    H142145   3.467   3.324   4.216 -0.5504  2.7900 -2.5283
 6910TIP3    H242146   3.578   3.251   4.143  0.2902  1.6549 -0.2342
 6911TIP3   OH242147   0.506   6.551  15.708  0.2759  0.1953 -0.0394
 6911TIP3    H142148   0.594   6.589  15.709  0.5034 -0.2545  2.4843
 6911TIP3    H242149   0.455   6.607  15.766 -0.9610  0.0451 -0.9313
 6912TIP3   OH242150   1.374   0.231  13.467  0.4768  0.1050 -0.9668
 6912TIP3    H142151   1.296   0.176  13.459  0.8043 -0.6047  0.5238
 6912TIP3    H242152   1.349   0.314  13.425 -1.2298  0.0545 -0.1145
 6913TIP3   OH242153   1.344   6.196   4.043 -0.2866  0.1167  0.6829
 6913TIP3    H142154   1.287   6.271   4.060 -0.1473  0.2609  0.5210
 6913TIP3    H242155   1.373   6.167   4.129  1.1556  1.4148  0.6714
 6914TIP3   OH242156   5.213   4.090   3.079 -0.1812  0.1478 -0.5064
 6914TIP3    H142157   5.164   4.164   3.042 -0.0991 -0.3772 -1.6994
 6914TIP3    H242158   5.180   4.082   3.169 -1.7117  0.3004 -1.0299
 6915TIP3   OH242159   0.781   6.088  14.567  0.1899  0.3442 -0.4841
 6915TIP3    H142160   0.693   6.051  14.564  0.0659  0.7071 -2.4246
 6915TIP3    H242161   0.829   6.031  14.627 -0.7700 -1.2096 -1.1494
 6916TIP3   OH242162   1.441   6.389   3.366 -0.0697  0.6470  0.4797
 6916TIP3    H142163   1.472   6.314   3.417  0.6464  0.4604 -0.2085
 6916TIP3    H242164   1.425   6.457   3.431 -0.9570 -0.1564  1.1458
 6917TIP3   OH242165   0.881   2.616   0.102  0.6813  0.2508 -0.0128
 6917TIP3    H142166   0.786   2.618   0.110  0.7204  1.1134  0.3571
 6917TIP3    H242167   0.897   2.596   0.009  0.1331  0.7388 -0.2169
 6918TIP3   OH242168   0.051   4.061   4.217  0.2229  0.0882 -0.2215
 6918TIP3    H142169   0.135   4.015   4.216  0.8916  1.2572 -1.4594
 6918TIP3    H242170   0.072   4.150   4.245 -0.5920  0.4052 -0.5818
 6919TIP3   OH242171   6.632   6.133  13.029 -0.5395  0.3936 -0.5142
 6919TIP3    H142172   6.693   6.167  13.095 -0.7813 -0.3124  0.0929
 6919TIP3    H242173   6.683   6.130  12.948  0.0768  0.2866 -0.1276
 6920TIP3   OH242174   4.113   3.220   0.500  0.0497 -0.2605 -0.0904
 6920TIP3    H142175   4.131   3.140   0.549 -0.3674 -0.3271 -0.0394
 6920TIP3    H242176   4.099   3.191   0.410  1.4061 -0.0722 -0.3778
 6921TIP3   OH242177   3.393   2.051  13.923 -0.7733 -0.3438 -0.3367
 6921TIP3    H142178   3.338   2.122  13.958 -0.1776  0.1170 -0.3251
 6921TIP3    H242179   3.396   1.987  13.994 -0.9690 -0.1909 -0.1877
 6922TIP3   OH242180   1.945   6.020   3.193 -0.3192 -0.7523  0.0651
 6922TIP3    H142181   1.907   6.003   3.279  0.1359 -1.5222  0.1244
 6922TIP3    H242182   2.038   6.034   3.210 -0.5514  1.0922 -0.0796
 6923TIP3   OH242183   1.495   5.372  16.067 -0.6738 -0.4386 -0.0792
 6923TIP3    H142184   1.520   5.388  15.976 -0.6934 -0.8933 -0.1676
 6923TIP3    H242185   1.528   5.448  16.115  1.2732 -1.1837 -0.1174
 6924TIP3   OH242186   2.241   1.121  12.542 -0.0023 -0.2383 -1.0301
 6924TIP3    H142187   2.157   1.162  12.565  0.1801 -0.1588 -0.4835
 6924TIP3    H242188   2.216   1.039  12.499 -0.3793  0.8090 -2.8961
 6925TIP3   OH242189   5.749   0.561  12.000 -0.0350 -0.0562 -0.0015
 6925TIP3    H142190   5.709   0.508  12.069  1.2769 -1.2585 -0.1086
 6925TIP3    H242191   5.700   0.643  12.001 -2.1611 -1.2520  0.1603
 6926TIP3   OH242192   0.085   6.162   1.921 -0.5274 -0.7649 -0.3229
 6926TIP3    H142193   0.140   6.086   1.901 -0.1796 -0.5499 -0.2026
 6926TIP3    H242194   0.122   6.232   1.867  0.0592 -0.3218  0.6202
 6927TIP3   OH242195   6.583   1.453   5.533 -0.4557  0.3702 -0.2332
 6927TIP3    H142196   6.576   1.419   5.622 -0.7206 -0.8550 -0.7069
 6927TIP3    H242197   6.659   1.408   5.496 -1.9267 -1.2208 -1.4889
 6928TIP3   OH242198   6.570   2.319  14.916 -0.0763 -0.6129  0.2891
 6928TIP3    H142199   6.477   2.308  14.939  0.1353 -0.4240  1.2884
 6928TIP3    H242200   6.570   2.327  14.821 -0.8648 -2.6880  0.0746
 6929TIP3   OH242201   5.865   6.353  14.467  0.1486 -0.0583  0.1659
 6929TIP3    H142202   5.904   6.371  14.552  0.4500 -1.9507  0.4903
 6929TIP3    H242203   5.896   6.423  14.409  1.9281 -0.0868  1.0316
 6930TIP3   OH242204   0.479   2.682   3.772 -0.5713  0.4376 -0.2809
 6930TIP3    H142205   0.511   2.703   3.859 -0.8477 -1.5353  0.3462
 6930TIP3    H242206   0.384   2.690   3.778 -0.7357 -1.4511  0.1549
 6931TIP3   OH242207   3.686   4.532   2.882  0.6375  0.3319  0.2205
 6931TIP3    H142208   3.771   4.493   2.904  0.0668 -1.2358 -0.2791
 6931TIP3    H242209   3.677   4.605   2.944  2.5958  0.9111 -0.0971
 6932TIP3   OH242210   1.950   0.276  16.587  0.3346  0.3929 -0.3657
 6932TIP3    H142211   2.008   0.300  16.515  0.0025  0.7745 -0.5082
 6932TIP3    H242212   1.970   0.340  16.656  0.2373  0.3907 -0.3341
 6933TIP3   OH242213   4.948   4.323   5.916 -0.2239 -0.4565  0.6889
 6933TIP3    H142214   4.944   4.301   6.009 -0.7639 -1.6299  0.4078
 6933TIP3    H242215   4.862   4.362   5.897 -0.0206  0.0161  0.7355
 6934TIP3   OH242216   5.373   3.451   5.643 -0.1515  0.2972  0.9963
 6934TIP3    H142217   5.400   3.541   5.626  0.2221  0.1275  0.6668
 6934TIP3    H242218   5.449   3.399   5.619 -1.0420 -0.2666 -0.7421
 6935TIP3   OH242219   6.444   5.470  13.278  0.1268 -0.6753 -0.7314
 6935TIP3    H142220   6.368   5.500  13.329 -0.5465 -1.1866 -1.4138
 6935TIP3    H242221   6.518   5.481  13.337 -0.6117 -1.0744  0.2947
 6936TIP3   OH242222   6.340   4.159  12.059  0.3799  0.0706  0.3114
 6936TIP3    H142223   6.370   4.230  12.002 -1.1797  0.6796  0.1840
 6936TIP3    H242224   6.315   4.203  12.140 -0.7081 -0.2963  0.1920
 6937TIP3   OH242225   4.579   3.492  12.740 -0.1849  0.3968  0.5430
 6937TIP3    H142226   4.538   3.504  12.826 -2.3930  1.0471 -0.5278
 6937TIP3    H242227   4.544   3.563  12.686  2.1128  0.7564 -0.6054
 6938TIP3   OH242228   0.101   4.686   2.318 -0.0698  0.1422 -0.0983
 6938TIP3    H142229   0.054   4.654   2.395  1.2973 -1.2972  0.1845
 6938TIP3    H242230   0.043   4.668   2.244 -0.9049  0.4906  0.4543
 6939TIP3   OH242231   0.900   1.463  15.829  0.5360 -0.2251  0.6491
 6939TIP3    H142232   0.830   1.483  15.891  0.6081 -0.5156  0.8243
 6939TIP3    H242233   0.963   1.534  15.840  0.5312 -0.2572  0.8841
 6940TIP3   OH242234   5.060   0.885   3.981  0.0401  0.3552 -0.0244
 6940TIP3    H142235   5.080   0.943   3.907 -2.2790 -0.9212 -1.7965
 6940TIP3    H242236   5.014   0.811   3.942  0.4588 -1.3649  2.5004
 6941TIP3   OH242237   0.197   0.211   4.221  0.4035 -0.3279  0.6426
 6941TIP3    H142238   0.275   0.156   4.228  0.9074  0.3770  0.7176
 6941TIP3    H242239   0.153   0.201   4.306  0.8299 -0.1297  0.8920
 6942TIP3   OH242240   3.045   3.618   0.811 -0.0520  0.1488  0.4539
 6942TIP3    H142241   3.003   3.550   0.863  0.0687  1.3911  2.2821
 6942TIP3    H242242   3.044   3.584   0.721 -1.7541 -1.3843  0.9846
 6943TIP3   OH242243   1.000   4.860  12.259 -0.0335 -0.1289  0.1766
 6943TIP3    H142244   1.033   4.831  12.344  0.0210 -3.1542 -0.7534
 6943TIP3    H242245   0.915   4.899  12.278 -0.5509 -1.7829  1.5530
 6944TIP3   OH242246   6.051   5.223   3.292  0.5634  0.0544  0.7195
 6944TIP3    H142247   5.975   5.210   3.236  0.4605 -0.1225  0.8965
 6944TIP3    H242248   6.014   5.246   3.378  0.6474 -1.4248  1.1902
 6945TIP3   OH242249   0.731   0.502   2.987  0.1285  0.7001 -0.1565
 6945TIP3    H142250   0.775   0.536   2.909 -0.5672  1.5982 -0.1713
 6945TIP3    H242251   0.686   0.578   3.024 -0.4103  0.0555  0.5340
 6946TIP3   OH242252   5.211   2.549  14.189  0.4810 -0.1816  0.5316
 6946TIP3    H142253   5.231   2.461  14.154  1.5224  0.2866 -0.1046
 6946TIP3    H242254   5.161   2.591  14.119  1.0489  0.1471  0.3139
 6947TIP3   OH242255   5.896   4.171  15.343 -0.1994  0.6561  0.1509
 6947TIP3    H142256   5.958   4.177  15.271 -0.6515 -1.2383 -0.4335
 6947TIP3    H242257   5.936   4.109  15.404 -1.0410  0.2209  0.2666
 6948TIP3   OH242258   0.520   0.015   3.321 -0.4455 -0.0841  0.3736
 6948TIP3    H142259   0.487   0.054   3.240  2.1114  1.2398 -0.1079
 6948TIP3    H242260   0.615   0.013   3.311 -0.1368 -1.4086  2.6918
 6949TIP3   OH242261   3.026   2.633  12.748  0.2889 -0.2693  0.9621
 6949TIP3    H142262   2.993   2.558  12.699  2.2949  1.3880 -3.5554
 6949TIP3    H242263   2.960   2.702  12.734  1.1479  0.3846 -0.1036
 6950TIP3   OH242264   6.200   4.246  12.605 -0.1594 -0.2333 -0.0473
 6950TIP3    H142265   6.204   4.273  12.697  0.5508 -3.5997  1.0665
 6950TIP3    H242266   6.286   4.268  12.569 -0.5609  1.4194 -0.0561
 6951TIP3   OH242267   3.013   3.398   3.951 -0.9238 -0.3818 -0.0864
 6951TIP3    H142268   2.934   3.357   3.985 -1.0688 -0.4533 -0.5046
 6951TIP3    H242269   3.073   3.325   3.935 -1.1797 -0.4384 -0.8251
 6952TIP3   OH242270   5.354   0.175  14.034 -0.2201 -0.3496 -0.0927
 6952TIP3    H142271   5.339   0.113  14.106  0.7541 -0.7247 -0.1991
 6952TIP3    H242272   5.449   0.176  14.023 -0.2528  0.8086 -0.4144
 6953TIP3   OH242273   1.530   4.103  16.432  0.3614  0.3663 -0.5772
 6953TIP3    H142274   1.492   4.110  16.519 -0.1935 -2.1673 -0.5699
 6953TIP3    H242275   1.455   4.095  16.373  0.7160  2.3187 -1.3899
 6954TIP3   OH242276   0.472   4.571   1.070 -0.6856  0.3257 -0.0796
 6954TIP3    H142277   0.460   4.481   1.038 -1.6488 -0.5153  2.3948
 6954TIP3    H242278   0.526   4.613   1.003 -1.6461 -1.5538 -2.1832
 6955TIP3   OH242279   1.325   1.322   1.947 -0.2702 -0.2951  0.5889
 6955TIP3    H142280   1.417   1.340   1.969 -0.5990  0.1619  1.6353
 6955TIP3    H242281   1.316   1.227   1.957  0.4248 -0.5427 -0.8828
 6956TIP3   OH242282   1.946   5.267  15.188 -0.4432  0.2511  0.5416
 6956TIP3    H142283   2.015   5.214  15.148 -0.6259 -0.7235  1.4463
 6956TIP3    H242284   1.941   5.234  15.278 -1.5040  0.8896  0.7304
 6957TIP3   OH242285   0.784   4.850   5.027 -0.0099 -0.2359 -0.5290
 6957TIP3    H142286   0.752   4.846   5.117  0.5001 -0.0375 -0.3344
 6957TIP3    H242287   0.710   4.885   4.977 -0.3041 -0.3743 -0.1928
 6958TIP3   OH242288   0.682   3.860  11.748  0.3363  0.3943  0.2760
 6958TIP3    H142289   0.663   3.767  11.763 -0.9713  0.5479 -0.2974
 6958TIP3    H242290   0.629   3.905  11.814  1.1091  0.7402  0.6715
 6959TIP3   OH242291   6.050   2.177   5.001 -0.8947  0.2651  0.4225
 6959TIP3    H142292   5.971   2.177   4.948 -0.5368 -0.3398 -0.1137
 6959TIP3    H242293   6.036   2.106   5.064 -0.2145 -0.7163 -0.5234
 6960TIP3   OH242294   6.340   4.943  16.119 -0.1972  0.3286 -0.1593
 6960TIP3    H142295   6.370   4.916  16.032  0.7532 -0.0845  0.2871
 6960TIP3    H242296   6.415   4.928  16.176 -0.8303  0.5441  0.7496
 6961TIP3   OH242297   2.646   5.826   1.509  0.6549 -0.4784  0.1547
 6961TIP3    H142298   2.642   5.879   1.429 -0.2232 -1.5730 -0.5578
 6961TIP3    H242299   2.559   5.787   1.515  1.2879 -1.8518  0.6495
 6962TIP3   OH242300   1.030   1.825  13.025  0.4164  0.8598 -0.3171
 6962TIP3    H142301   1.056   1.906  13.068 -1.1676  1.0597  0.3494
 6962TIP3    H242302   1.020   1.761  13.096  1.0366  0.2413 -0.7680
 6963TIP3   OH242303   6.195   2.356   1.438  0.2640 -0.1547  0.0976
 6963TIP3    H142304   6.111   2.354   1.483  0.2644  0.0792  0.1112
 6963TIP3    H242305   6.260   2.345   1.508  0.2691  0.3237  0.1728
 6964TIP3   OH242306   4.266   3.032  10.545  0.4492 -0.1019 -0.1023
 6964TIP3    H142307   4.226   3.071  10.623 -0.9238 -0.8058 -0.4307
 6964TIP3    H242308   4.352   3.001  10.576 -0.5534 -1.4859  1.4794
 6965TIP3   OH242309   6.053   4.549  16.077 -0.3380 -0.1020 -0.3578
 6965TIP3    H142310   6.047   4.525  15.984  0.5491 -0.8947 -0.2260
 6965TIP3    H242311   5.987   4.617  16.088  0.7965  1.3914 -2.0097
 6966TIP3   OH242312   6.091   6.650  14.603 -0.2447  0.1534 -0.0695
 6966TIP3    H142313   6.130   6.566  14.628  0.0802  0.5465  0.8063
 6966TIP3    H242314   6.126   6.712  14.668 -0.2681  1.0147 -0.8639
 6967TIP3   OH242315   4.722   1.185   2.607 -0.0546  0.1383 -0.1120
 6967TIP3    H142316   4.809   1.224   2.614  0.4647 -0.6438 -1.7468
 6967TIP3    H242317   4.739   1.092   2.590 -1.2499 -0.4611  1.6680
 6968TIP3   OH242318   5.480   3.981   0.722  0.1700  0.5660  0.2494
 6968TIP3    H142319   5.529   4.034   0.785  0.6021  1.2101 -0.6035
 6968TIP3    H242320   5.395   4.024   0.715 -0.3541 -0.2422  1.3253
 6969TIP3   OH242321   5.043   2.917   4.419 -0.8506  0.1562  0.0830
 6969TIP3    H142322   5.084   2.844   4.465 -1.1486  0.8664  1.5421
 6969TIP3    H242323   5.022   2.882   4.332  4.3623  0.2008 -1.5476
 6970TIP3   OH242324   0.270   5.081  12.708 -0.0327 -0.0370  0.3934
 6970TIP3    H142325   0.180   5.113  12.716  0.1932  0.2028  2.4021
 6970TIP3    H242326   0.324   5.152  12.743  0.8553 -0.6244  0.2495
 6971TIP3   OH242327   3.290   0.557  16.391  0.2587  0.6167  0.4493
 6971TIP3    H142328   3.256   0.519  16.309 -2.9407  1.5393  1.1891
 6971TIP3    H242329   3.338   0.485  16.431  2.0902  0.1766 -2.2388
 6972TIP3   OH242330   6.033   5.030  16.818 -0.4650 -0.3808 -0.4887
 6972TIP3    H142331   6.007   5.093  16.751  1.6344 -0.9895 -2.0070
 6972TIP3    H242332   5.956   4.974  16.829 -1.2224  0.3822 -1.6193
 6973TIP3   OH242333   4.716   0.163  11.284  0.5459 -0.3095 -0.1322
 6973TIP3    H142334   4.631   0.185  11.321  0.5513  0.8810 -0.8063
 6973TIP3    H242335   4.715   0.201  11.197  0.8194 -2.4416 -1.1366
 6974TIP3   OH242336   4.686   2.649  13.315 -0.8348  0.2339  0.2502
 6974TIP3    H142337   4.712   2.677  13.227  0.1699 -0.8735  0.1701
 6974TIP3    H242338   4.617   2.585  13.301 -0.7696  0.1584  0.2720
 6975TIP3   OH242339   4.400   4.390   5.377 -0.0800 -0.4416 -0.3366
 6975TIP3    H142340   4.457   4.329   5.330 -0.4264  0.4692 -2.0100
 6975TIP3    H242341   4.355   4.439   5.309  0.2814  1.8184  0.9403
 6976TIP3   OH242342   3.592   0.861  14.100 -0.0138  0.6030 -0.5075
 6976TIP3    H142343   3.595   0.911  14.181 -0.1288  0.3878 -0.3693
 6976TIP3    H242344   3.564   0.774  14.127  2.8275 -0.3671 -0.3489
 6977TIP3   OH242345   3.424   0.289   1.554 -0.2916 -0.4920  0.1628
 6977TIP3    H142346   3.340   0.324   1.525  0.1691 -0.7526 -1.6189
 6977TIP3    H242347   3.477   0.366   1.575 -1.4085 -0.3445  2.8089
 6978TIP3   OH242348   2.120   1.118  16.572 -0.0712  0.0830 -0.1814
 6978TIP3    H142349   2.139   1.136  16.664  1.1917  1.1158 -0.6208
 6978TIP3    H242350   2.122   1.023  16.564 -1.7066 -0.1173  1.1456
 6979TIP3   OH242351   0.708   3.802  17.246 -0.0733  0.1359  0.1490
 6979TIP3    H142352   0.625   3.817  17.202  0.4060  2.0407 -0.2101
 6979TIP3    H242353   0.715   3.874  17.310  1.9141  0.9218 -0.8443
 6980TIP3   OH242354   4.425   5.757  16.726 -0.3936 -0.3140 -0.6560
 6980TIP3    H142355   4.355   5.817  16.698 -0.3879  0.4678  0.8947
 6980TIP3    H242356   4.393   5.719  16.807  1.1702  0.4394  0.3465
 6981TIP3   OH242357   0.520   5.786   1.701  0.5207 -0.6030  0.6130
 6981TIP3    H142358   0.502   5.876   1.727 -0.9429 -0.7309  0.1253
 6981TIP3    H242359   0.486   5.732   1.773 -2.2314 -0.8930 -0.7787
 6982TIP3   OH242360   3.801   0.145  13.938  0.3162  0.4700 -0.4493
 6982TIP3    H142361   3.840   0.135  14.025 -2.0382 -1.8469  0.4714
 6982TIP3    H242362   3.809   0.058  13.898 -2.0998  0.3908 -0.9193
 6983TIP3   OH242363   5.590   6.657   3.092  0.0675 -0.0939 -0.4657
 6983TIP3    H142364   5.541   6.585   3.133  0.0286  0.3963  0.3564
 6983TIP3    H242365   5.631   6.616   3.015 -0.0036 -0.9798 -0.0508
 6984TIP3   OH242366   0.225   0.799   4.101  0.2051  0.0485 -0.3832
 6984TIP3    H142367   0.204   0.714   4.139 -0.1846 -0.7524 -2.2965
 6984TIP3    H242368   0.184   0.862   4.160 -1.2193 -1.1869  0.0022
 6985TIP3   OH242369   6.275   1.475  15.591  0.1065  0.3974  0.4788
 6985TIP3    H142370   6.359   1.516  15.571  0.3987 -0.6266 -0.4583
 6985TIP3    H242371   6.268   1.482  15.687  1.1803  0.6308  0.5526
 6986TIP3   OH242372   2.294   0.350  14.794  0.3484 -0.3058 -0.6557
 6986TIP3    H142373   2.361   0.366  14.728  0.9672 -0.3695 -0.0615
 6986TIP3    H242374   2.312   0.415  14.862  1.3185 -1.8467  0.6263
 6987TIP3   OH242375   4.432   1.190  13.599 -0.2292  0.1849 -1.3115
 6987TIP3    H142376   4.446   1.278  13.636 -0.3193  0.2604 -1.4575
 6987TIP3    H242377   4.337   1.179  13.598 -0.2805 -1.4957  2.4656
 6988TIP3   OH242378   2.165   5.092  12.918  0.4232  0.3907  0.3976
 6988TIP3    H142379   2.116   5.163  12.875 -2.0389 -1.2430  0.3007
 6988TIP3    H242380   2.160   5.113  13.011 -0.3863  0.3272  0.3784
 6989TIP3   OH242381   5.110   0.661   5.304 -0.3089 -0.0778 -0.5581
 6989TIP3    H142382   5.028   0.711   5.309  0.1973  0.6971  0.4369
 6989TIP3    H242383   5.111   0.610   5.386  1.1975  1.5556  0.5039
 6990TIP3   OH242384   0.352   5.489  16.048 -0.0841 -0.2052 -0.2054
 6990TIP3    H142385   0.311   5.575  16.057  0.0634 -0.2639  1.4834
 6990TIP3    H242386   0.446   5.505  16.061  0.0721 -0.4900 -0.9359
 6991TIP3   OH242387   1.586   3.896   4.127 -0.0685 -0.3905 -0.2361
 6991TIP3    H142388   1.510   3.943   4.093 -0.2039  0.1146  0.7162
 6991TIP3    H242389   1.660   3.953   4.106 -0.0935 -0.3217 -0.1402
 6992TIP3   OH242390   3.656   0.509   5.452  0.0150 -0.2579  0.3186
 6992TIP3    H142391   3.640   0.598   5.421  0.8120  0.0559  0.7795
 6992TIP3    H242392   3.607   0.454   5.392 -1.4019  0.5458  0.6859
 6993TIP3   OH242393   6.332   3.719  15.654 -0.3128  0.0137 -0.0441
 6993TIP3    H142394   6.270   3.678  15.714 -1.5515  0.6788 -0.8196
 6993TIP3    H242395   6.334   3.811  15.683  0.1362  0.0445 -0.1736
 6994TIP3   OH242396   2.338   2.088  15.051  0.0865  0.5520  0.0591
 6994TIP3    H142397   2.397   2.015  15.031 -0.6199  0.1546 -0.6372
 6994TIP3    H242398   2.364   2.157  14.990 -0.9395 -0.0562 -1.1277
 6995TIP3   OH242399   3.088   5.836  16.630 -0.4810  0.2326 -0.7995
 6995TIP3    H142400   3.164   5.824  16.572 -1.3862 -0.1801 -1.9295
 6995TIP3    H242401   3.057   5.924  16.610 -1.1620 -0.1384 -1.3899
 6996TIP3   OH242402   6.510   0.855   4.903 -0.4769 -0.2626 -0.0647
 6996TIP3    H142403   6.459   0.827   4.980 -1.3271  0.5045 -0.3247
 6996TIP3    H242404   6.527   0.948   4.919  1.6086 -0.6880  0.4064
 6997TIP3   OH242405   1.516   1.176   1.011 -0.1805  0.5252  0.9120
 6997TIP3    H142406   1.611   1.189   1.003 -0.2052  0.6723  0.8562
 6997TIP3    H242407   1.503   1.083   0.992 -0.1264  0.6601  0.1707
 6998TIP3   OH242408   4.485   0.120   2.252 -0.2991  0.2861 -0.1672
 6998TIP3    H142409   4.500   0.175   2.329 -0.4117 -2.8266  2.3363
 6998TIP3    H242410   4.570   0.117   2.208  0.8930 -0.7019  2.0147
 6999TIP3   OH242411   3.017   3.417   2.604 -0.5272  0.2225  0.2967
 6999TIP3    H142412   3.002   3.469   2.525 -3.8114 -0.1784  0.5248
 6999TIP3    H242413   3.111   3.396   2.601 -0.0947  1.9704 -2.3524
 7000TIP3   OH242414   3.037   5.030  13.393  0.3833  0.5949 -0.0200
 7000TIP3    H142415   3.042   5.123  13.416  1.3417  1.1131 -2.1110
 7000TIP3    H242416   3.092   4.987  13.459  0.3126  1.5653  0.6969
 7001TIP3   OH242417   1.202   3.097   2.189 -0.7520  0.3967  0.1746
 7001TIP3    H142418   1.235   3.144   2.265 -0.5032  0.3994  0.0638
 7001TIP3    H242419   1.144   3.160   2.145 -0.5196  0.5551  0.0974
 7002TIP3   OH242420   1.564   1.780  17.258 -0.3126 -0.4559  0.1330
 7002TIP3    H142421   1.480   1.817  17.285 -0.5583 -0.4809 -0.5785
 7002TIP3    H242422   1.624   1.801  17.330 -0.8723 -0.2419  0.5403
 7003TIP3   OH242423   5.619   1.009  10.754 -0.4199  0.2962  0.3210
 7003TIP3    H142424   5.534   1.045  10.731 -0.5343  0.7634  1.4166
 7003TIP3    H242425   5.604   0.960  10.835  0.2789  0.0809  0.3299
 7004TIP3   OH242426   2.968   0.204   2.443  0.0214  0.4234 -0.1885
 7004TIP3    H142427   2.928   0.164   2.366 -1.1440 -0.7917  1.0099
 7004TIP3    H242428   2.947   0.145   2.515  1.9702  0.9785  0.9148
 7005TIP3   OH242429   1.888   1.850   0.890 -0.3223  0.5021  0.0405
 7005TIP3    H142430   1.832   1.788   0.937 -1.9814  2.1965  0.3811
 7005TIP3    H242431   1.887   1.819   0.799 -3.4580  1.5436 -0.3780
 7006TIP3   OH242432   4.033   3.502  12.602 -0.1944  0.2187  0.0758
 7006TIP3    H142433   4.075   3.568  12.657 -1.1862 -0.2436  1.4836
 7006TIP3    H242434   3.945   3.537  12.585 -0.5424 -0.4678  0.3854
 7007TIP3   OH242435   5.736   3.242   4.212 -0.6678  0.4721  0.1570
 7007TIP3    H142436   5.655   3.245   4.161 -0.4394  1.0748 -0.1859
 7007TIP3    H242437   5.714   3.284   4.295 -0.9473 -0.1942  0.4261
 7008TIP3   OH242438   2.808   5.340   1.185  0.0923 -0.2961 -0.1633
 7008TIP3    H142439   2.792   5.356   1.092 -1.5931 -0.5419  0.0527
 7008TIP3    H242440   2.856   5.257   1.187  0.5948 -0.0312 -0.8270
 7009TIP3   OH242441   0.795   3.659  16.152  0.0960 -0.0595 -0.2711
 7009TIP3    H142442   0.731   3.590  16.170 -0.8319  1.0451  0.9055
 7009TIP3    H242443   0.760   3.736  16.198  1.5814  0.9375 -0.7478
 7010TIP3   OH242444   4.289   4.034  14.314  0.2017 -0.0226 -0.4975
 7010TIP3    H142445   4.364   4.091  14.301  0.1660  0.1528  0.0332
 7010TIP3    H242446   4.276   3.991  14.229  1.4613 -0.7469 -0.3535
 7011TIP3   OH242447   3.059   1.807   3.802 -0.2373  0.2350  0.1601
 7011TIP3    H142448   3.152   1.814   3.822 -0.7014  1.5554  2.2557
 7011TIP3    H242449   3.043   1.714   3.790  0.7531 -0.4919  3.4684
 7012TIP3   OH242450   5.972   2.436  11.368 -0.0623 -0.1287  0.0126
 7012TIP3    H142451   6.022   2.443  11.287 -2.3405  0.8336 -1.3968
 7012TIP3    H242452   6.006   2.506  11.423  1.0461 -0.3645 -0.3475
 7013TIP3   OH242453   5.411   5.079   0.971 -0.4218  0.1791  0.9169
 7013TIP3    H142454   5.331   5.099   0.922 -0.8215  0.2515  1.5808
 7013TIP3    H242455   5.470   5.152   0.953 -0.2434 -0.2107 -0.1197
 7014TIP3   OH242456   3.611   2.079  14.866  0.1519  0.3697  0.4959
 7014TIP3    H142457   3.546   2.107  14.801  1.7556  0.7394 -1.0377
 7014TIP3    H242458   3.595   1.985  14.876 -1.3220  0.6582  1.0016
 7015TIP3   OH242459   5.732   6.649   0.068 -0.5036 -0.3507 -0.3520
 7015TIP3    H142460   5.704   6.565   0.031  0.6171 -0.5997 -0.6572
 7015TIP3    H242461   5.802   6.678   0.010  0.0355  0.1385  0.5352
 7016TIP3   OH242462   2.641   5.360  10.924 -0.0875  0.4675 -0.4890
 7016TIP3    H142463   2.579   5.367  10.852  1.4416  0.5162 -1.8666
 7016TIP3    H242464   2.650   5.266  10.939 -1.3129  0.4870  0.4929
 7017TIP3   OH242465   0.781   6.222  12.284  0.0196  0.4965  0.3408
 7017TIP3    H142466   0.757   6.254  12.371  2.3131 -3.3966  2.6930
 7017TIP3    H242467   0.754   6.131  12.284  2.3573 -0.3150 -2.0511
 7018TIP3   OH242468   4.409   4.625  16.795  0.0560 -0.2436  0.0781
 7018TIP3    H142469   4.339   4.642  16.732  0.0864 -0.9045 -0.1336
 7018TIP3    H242470   4.460   4.554  16.757  0.8387  0.2108  0.2446
 7019TIP3   OH242471   5.038   5.649   0.125  1.7150  0.2024  0.0150
 7019TIP3    H142472   5.000   5.696   0.050 -0.9991 -1.1514  0.4213
 7019TIP3    H242473   5.059   5.563   0.090  2.6371  0.3097  0.2893
 7020TIP3   OH242474   2.067   3.940  14.594 -0.2726 -0.1821  0.4191
 7020TIP3    H142475   1.994   4.000  14.606 -0.5233 -0.4225  0.0999
 7020TIP3    H242476   2.080   3.936  14.499 -0.8217 -1.2974  0.3796
 7021TIP3   OH242477   1.553   2.936  14.289 -0.0448  0.1745  0.1902
 7021TIP3    H142478   1.572   2.995  14.361 -0.7134  0.2636  0.3004
 7021TIP3    H242479   1.565   2.848  14.325 -2.1331  0.1578  0.9554
 7022TIP3   OH242480   3.222   5.947   3.804 -0.0552 -0.5324 -0.4109
 7022TIP3    H142481   3.183   5.882   3.863  1.2440 -0.8109  0.1703
 7022TIP3    H242482   3.185   6.030   3.834  1.1313 -0.5731  1.3331
 7023TIP3   OH242483   3.081   6.228  14.434 -0.9396 -0.6351  0.1538
 7023TIP3    H142484   2.991   6.195  14.445 -1.6930  1.6018  1.2702
 7023TIP3    H242485   3.084   6.308  14.486  0.0131  2.4579 -4.1502
 7024TIP3   OH242486   2.651   6.654   0.089 -0.1592  0.2030  0.3546
 7024TIP3    H142487   2.668   6.745   0.066 -1.4827  1.0935  2.6113
 7024TIP3    H242488   2.589   6.624   0.022 -0.6105  1.3267  0.2458
 7025TIP3   OH242489   2.026   1.888  14.412 -0.2041  0.0434 -0.4929
 7025TIP3    H142490   1.954   1.948  14.432 -1.6904 -1.5886 -0.6937
 7025TIP3    H242491   2.004   1.808  14.460  1.4119 -0.5543 -0.6913
 7026TIP3   OH242492   2.676   0.525  13.448  0.4691 -0.5274 -0.3876
 7026TIP3    H142493   2.759   0.535  13.401 -0.5618  1.4493 -1.8849
 7026TIP3    H242494   2.672   0.601  13.506  0.2389 -1.2731  0.6134
 7027TIP3   OH242495   2.145   2.832  17.274 -0.5287 -0.4999 -0.1102
 7027TIP3    H142496   2.078   2.894  17.302  0.2005 -0.6220  2.1340
 7027TIP3    H242497   2.227   2.880  17.280  0.1136 -1.6914  2.1782
 7028TIP3   OH242498   4.278   1.912   3.300  0.1022  0.5474 -0.0603
 7028TIP3    H142499   4.184   1.924   3.288  0.0584 -0.3488 -0.7475
 7028TIP3    H242500   4.287   1.822   3.333  0.7032  0.7327  0.3158
 7029TIP3   OH242501   0.955   4.041  15.710  0.2452 -0.3422  0.4362
 7029TIP3    H142502   0.963   3.946  15.715 -0.0692 -0.4121 -0.2536
 7029TIP3    H242503   0.883   4.055  15.648 -0.6440  0.3230  1.5918
 7030TIP3   OH242504   4.962   6.008  17.314  0.1573  0.3087  0.3135
 7030TIP3    H142505   4.977   5.993  17.220  1.9525 -0.7491  0.7123
 7030TIP3    H242506   5.022   6.080  17.336 -1.5543  1.7832  0.3302
 7031TIP3   OH242507   4.391   4.922  13.152 -1.0556 -0.4145  0.2789
 7031TIP3    H142508   4.428   4.944  13.237  1.1709 -0.0317 -0.7101
 7031TIP3    H242509   4.374   4.828  13.156  1.1236 -0.8580  0.4807
 7032TIP3   OH242510   2.212   1.388  11.346 -0.6038  0.0464 -0.7134
 7032TIP3    H142511   2.223   1.305  11.300 -2.0576  0.7081 -2.3858
 7032TIP3    H242512   2.149   1.437  11.292 -0.3744  1.9274  0.6246
 7033TIP3   OH242513   0.019   0.689  14.006  0.3543 -0.5487  0.5586
 7033TIP3    H142514   0.090   0.697  13.943  1.0412 -1.4261  1.1863
 7033TIP3    H242515  -0.010   0.598  13.998 -0.7383 -0.1968  0.2903
 7034TIP3   OH242516   2.105   3.212  11.357  0.3065 -0.2733  0.0945
 7034TIP3    H142517   2.137   3.186  11.270  1.2922  0.0049  0.3534
 7034TIP3    H242518   2.089   3.306  11.350 -0.1648 -0.3538  0.0591
 7035TIP3   OH242519   2.929   1.435  15.346 -0.3029 -0.3842 -0.0220
 7035TIP3    H142520   2.858   1.486  15.307  0.1592  0.4340  0.1927
 7035TIP3    H242521   3.005   1.454  15.292 -0.3475 -1.6882 -0.5848
 7036TIP3   OH242522   2.311   5.196  10.835 -0.6972  0.3651  0.6585
 7036TIP3    H142523   2.268   5.275  10.803 -2.0858 -0.4254  0.5235
 7036TIP3    H242524   2.378   5.177  10.768  0.0446  1.7083  0.9761
 7037TIP3   OH242525   0.329   3.335   4.956  0.0126  0.0079 -0.7951
 7037TIP3    H142526   0.422   3.353   4.951 -0.3611  1.9773 -1.4137
 7037TIP3    H242527   0.313   3.314   5.048  1.1949 -1.3679 -0.8705
 7038TIP3   OH242528   3.224   4.039   2.404 -0.4142 -0.1670 -0.0194
 7038TIP3    H142529   3.214   4.080   2.491 -0.4647  2.2499 -1.0866
 7038TIP3    H242530   3.277   4.101   2.355 -1.6151 -0.7729 -2.1800
 7039TIP3   OH242531   4.745   5.338   4.800  0.5714  0.5378 -0.1277
 7039TIP3    H142532   4.788   5.412   4.758  0.5446  0.2359 -0.6963
 7039TIP3    H242533   4.679   5.377   4.858  1.0266  0.9715  0.0950
 7040TIP3   OH242534   2.857   2.100   4.571 -0.2419  0.3332  0.0858
 7040TIP3    H142535   2.770   2.081   4.608 -0.6575  1.1670 -0.4360
 7040TIP3    H242536   2.850   2.189   4.537  1.4818  1.2933  1.9715
 7041TIP3   OH242537   3.256   4.686   0.197  0.3534 -0.3628 -0.3654
 7041TIP3    H142538   3.200   4.624   0.150  0.2027 -0.4661 -0.0510
 7041TIP3    H242539   3.332   4.698   0.139  0.3467 -0.7827 -0.4657
 7042TIP3   OH242540   3.580   6.135  14.624 -0.0692 -0.4581  0.1964
 7042TIP3    H142541   3.599   6.075  14.552  0.3847  2.0236 -1.8811
 7042TIP3    H242542   3.486   6.152  14.618 -0.0780 -0.4414  0.3642
 7043TIP3   OH242543   1.794   4.416   5.296 -0.0798  0.0451 -0.3724
 7043TIP3    H142544   1.816   4.370   5.378  2.3379  1.3363 -0.1913
 7043TIP3    H242545   1.817   4.354   5.227  0.1887 -0.1723 -0.0910
 7044TIP3   OH242546   3.415   5.023   6.826  0.5806  0.3568  0.4550
 7044TIP3    H142547   3.335   4.985   6.792  0.7196  0.4483  0.0265
 7044TIP3    H242548   3.485   4.967   6.793  0.8004  1.0791 -0.3288
 7045TIP3   OH242549   6.110   5.046  13.125 -0.0784 -0.0372  0.3063
 7045TIP3    H142550   6.024   5.004  13.124 -0.0400 -0.2412 -2.8867
 7045TIP3    H242551   6.173   4.974  13.116  0.4142  0.2125  1.4919
 7046TIP3   OH242552   6.440   3.493   4.121 -0.0038 -0.2809  0.6470
 7046TIP3    H142553   6.370   3.552   4.093 -0.1076 -1.1954 -1.2026
 7046TIP3    H242554   6.514   3.550   4.140 -0.3492  0.5274 -0.3435
 7047TIP3   OH242555   1.378   0.691  13.547  0.2942  0.2849  0.2388
 7047TIP3    H142556   1.466   0.725  13.561  0.6443 -0.8534  0.9622
 7047TIP3    H242557   1.326   0.730  13.617  0.8463 -1.1474  1.4979
 7048TIP3   OH242558   2.644   2.615  11.670  0.1813 -0.4695  0.6251
 7048TIP3    H142559   2.728   2.660  11.684 -0.8225  1.4896  0.7898
 7048TIP3    H242560   2.659   2.526  11.700  1.6869  0.3303  2.4487
 7049TIP3   OH242561   4.481   6.429  13.651  0.1467  0.4998  0.4458
 7049TIP3    H142562   4.503   6.370  13.723  1.1896 -0.0465 -0.2932
 7049TIP3    H242563   4.399   6.395  13.616  1.1519 -1.0757 -0.5093
 7050TIP3   OH242564   5.287   2.064   5.227  0.0584 -0.4592 -0.5359
 7050TIP3    H142565   5.348   2.009   5.177 -2.4232 -1.7267 -2.4048
 7050TIP3    H242566   5.317   2.058   5.317  3.6552  0.3898 -1.5142
 7051TIP3   OH242567   5.338   5.901   0.461 -0.4352  0.1829  0.6851
 7051TIP3    H142568   5.298   5.851   0.532 -0.5664 -0.7846 -0.0421
 7051TIP3    H242569   5.279   5.886   0.386 -1.0206  2.2171  0.6695
 7052TIP3   OH242570   1.023   4.310   1.544 -0.3225 -0.4923  0.4343
 7052TIP3    H142571   1.036   4.216   1.548  0.1232 -0.4118  0.9067
 7052TIP3    H242572   1.100   4.344   1.498 -1.0658 -0.4739 -0.8524
 7053TIP3   OH242573   4.656   1.491  11.593  0.3651 -0.2527  0.0076
 7053TIP3    H142574   4.688   1.563  11.648  1.1510 -0.2785 -0.4061
 7053TIP3    H242575   4.610   1.535  11.521 -0.2470 -0.2061  0.4198
 7054TIP3   OH242576   1.257   2.095  13.618  0.3565  0.0433  0.1486
 7054TIP3    H142577   1.335   2.052  13.655  0.6641  1.5532  1.3660
 7054TIP3    H242578   1.218   2.029  13.561  1.2200 -1.5724  1.3482
 7055TIP3   OH242579   4.407   0.721  11.113  0.5928  0.4486 -0.0534
 7055TIP3    H142580   4.500   0.740  11.117  0.5148  0.7490  0.4315
 7055TIP3    H242581   4.391   0.694  11.023  1.2368 -0.0807 -0.0129
 7056TIP3   OH242582   4.457   5.644  15.396  0.2702  0.5315  0.3978
 7056TIP3    H142583   4.460   5.717  15.334 -0.4648 -0.2503 -0.5814
 7056TIP3    H242584   4.368   5.610  15.389  1.0778 -1.5563 -0.4538
 7057TIP3   OH242585   3.747   6.453   3.675 -0.0729  0.3285 -0.2068
 7057TIP3    H142586   3.796   6.527   3.711  0.3985  0.1083 -0.3934
 7057TIP3    H242587   3.752   6.385   3.742  0.7481 -0.0577 -0.6389
 7058TIP3   OH242588   4.612   2.308  16.880 -0.1255  0.4280  0.2464
 7058TIP3    H142589   4.667   2.263  16.944 -1.4850 -0.0971  1.0964
 7058TIP3    H242590   4.535   2.252  16.872 -0.5858  1.1903 -0.8317
 7059TIP3   OH242591   5.895   3.139  16.682 -0.0001  0.5272 -0.5280
 7059TIP3    H142592   5.923   3.051  16.707  0.2317  0.3506 -1.3927
 7059TIP3    H242593   5.921   3.148  16.591 -0.5377  1.2866 -0.6161
 7060TIP3   OH242594   6.210   5.944  17.337  0.5773 -0.0985 -0.4371
 7060TIP3    H142595   6.274   5.946  17.266 -0.5828  1.1814 -1.5193
 7060TIP3    H242596   6.240   6.012  17.398  0.6088  0.0544 -0.6204
 7061TIP3   OH242597   6.623   5.317  15.355  0.1693 -0.8134  0.2757
 7061TIP3    H142598   6.590   5.396  15.398  1.9683  0.6055 -0.8106
 7061TIP3    H242599   6.546   5.277  15.315 -0.7597  0.4457  0.7554
 7062TIP3   OH242600   5.447   6.343  13.731 -0.0923  0.5099 -0.3549
 7062TIP3    H142601   5.356   6.315  13.741 -0.1527  0.5202 -0.8535
 7062TIP3    H242602   5.447   6.435  13.757 -0.0293  0.2470  0.6086
 7063TIP3   OH242603   1.310   3.219  14.794  0.6844  0.3491  0.0511
 7063TIP3    H142604   1.233   3.163  14.786  1.8547 -1.5354  1.0988
 7063TIP3    H242605   1.277   3.308  14.781 -1.6188 -0.3946  0.3634
 7064TIP3   OH242606   0.039   3.694  15.507  0.6307 -0.0338 -0.3493
 7064TIP3    H142607   0.014   3.651  15.589  0.6621 -1.0995 -0.8803
 7064TIP3    H242608  -0.042   3.732  15.475 -0.0839 -2.1622 -1.2883
 7065TIP3   OH242609   4.428   5.618  16.111 -0.1792 -0.4119  0.1530
 7065TIP3    H142610   4.454   5.679  16.179  0.4259  0.1509 -0.5617
 7065TIP3    H242611   4.349   5.577  16.144  0.2659 -0.3595  1.3095
 7066TIP3   OH242612   0.321   6.098   2.932 -0.0032 -1.0184  0.4940
 7066TIP3    H142613   0.293   6.151   3.007 -0.7061 -2.7632  1.5056
 7066TIP3    H242614   0.396   6.146   2.897 -2.5210  2.4904 -0.7502
 7067TIP3   OH242615   4.541   2.913  13.031  0.2151 -0.1727 -0.0048
 7067TIP3    H142616   4.501   2.936  12.947 -0.5509 -1.3257  0.0156
 7067TIP3    H242617   4.499   2.972  13.094  1.2112  1.0894 -0.4891
 7068TIP3   OH242618   4.909   2.625  13.750  0.0997  0.1571  0.2332
 7068TIP3    H142619   4.825   2.671  13.747 -0.5468 -0.8821  1.3069
 7068TIP3    H242620   4.949   2.641  13.664 -1.2348  0.6132 -0.3228
 7069TIP3   OH242621   1.765   4.750   0.325  0.6936 -0.0490  0.4150
 7069TIP3    H142622   1.855   4.776   0.344  0.7198  0.7525 -0.6786
 7069TIP3    H242623   1.769   4.715   0.236 -0.5237  2.6740 -0.8156
 7070TIP3   OH242624   2.831   6.539  12.285  0.0184  0.5536  0.2908
 7070TIP3    H142625   2.919   6.557  12.253  0.2401 -0.3568  0.3660
 7070TIP3    H242626   2.844   6.516  12.377 -0.0790 -1.3257 -0.1390
 7071TIP3   OH242627   5.491   0.555   1.611 -0.7136 -0.2286  0.1526
 7071TIP3    H142628   5.500   0.498   1.687  2.3268 -0.4967 -0.3030
 7071TIP3    H242629   5.397   0.573   1.606 -1.3481 -2.3792  2.3401
 7072TIP3   OH242630   6.518   6.167   1.598  0.2332  0.3206  0.2788
 7072TIP3    H142631   6.513   6.118   1.681  0.9070  0.5768  0.4852
 7072TIP3    H242632   6.572   6.112   1.541 -0.4361  0.0287 -0.0792
 7073TIP3   OH242633   1.704   2.193  17.079  0.3048 -0.2377  0.1562
 7073TIP3    H142634   1.766   2.168  17.147  1.5438 -3.6698 -1.9869
 7073TIP3    H242635   1.618   2.177  17.119  0.8194  1.1648  1.9769
 7074TIP3   OH242636   5.384   6.659   2.128 -0.0687 -0.3534  0.2063
 7074TIP3    H142637   5.433   6.641   2.047  0.4776  0.2686  0.3939
 7074TIP3    H242638   5.292   6.659   2.100  0.0839 -0.5883 -0.3277
 7075TIP3   OH242639   5.337   4.537  13.469 -0.4439  0.0014  0.1899
 7075TIP3    H142640   5.432   4.551  13.475 -0.6385  0.8601  1.4720
 7075TIP3    H242641   5.304   4.614  13.424 -0.3793 -1.0698 -1.8175
 7076TIP3   OH242642   5.912   1.905   3.254  0.3476 -0.2252  0.5539
 7076TIP3    H142643   5.932   1.837   3.320  2.5642  1.0430  1.3116
 7076TIP3    H242644   5.997   1.944   3.234 -0.6583  1.2763 -1.0648
 7077TIP3   OH242645   2.335   2.909  15.587 -0.1391 -0.9893 -0.0254
 7077TIP3    H142646   2.253   2.879  15.626 -0.3934  2.0703  2.1473
 7077TIP3    H242647   2.402   2.850  15.622 -1.1501 -2.3819 -0.3625
 7078TIP3   OH242648   0.762   5.882   6.288  0.2413 -0.5155  0.6812
 7078TIP3    H142649   0.782   5.967   6.250  2.5703  0.0717  2.9090
 7078TIP3    H242650   0.831   5.824   6.255  2.0682 -0.0887  3.3475
 7079TIP3   OH242651   3.158   1.075  10.407 -0.3267 -0.1237  0.1609
 7079TIP3    H142652   3.208   1.041  10.482 -0.4464  0.2083  0.3966
 7079TIP3    H242653   3.173   1.169  10.410  0.5230 -0.2114 -0.8634
 7080TIP3   OH242654   5.184   2.412   2.508  0.0842  0.7367 -0.1891
 7080TIP3    H142655   5.119   2.375   2.448 -0.4512 -1.4417  1.5789
 7080TIP3    H242656   5.250   2.344   2.516  0.5582  1.3239  1.0495
 7081TIP3   OH242657   1.861   0.167  14.594 -0.2278  0.3280 -0.2339
 7081TIP3    H142658   1.805   0.164  14.671 -0.9575  1.6335 -0.6846
 7081TIP3    H242659   1.939   0.215  14.622  0.6338 -1.2897  0.3284
 7082TIP3   OH242660   2.941   2.668  14.844 -0.0277 -0.1908  0.3014
 7082TIP3    H142661   3.031   2.644  14.866  0.8139  1.5606 -0.9904
 7082TIP3    H242662   2.921   2.742  14.900  0.3602  1.1424 -1.2396
 7083TIP3   OH242663   4.552   4.989   1.559  0.2223 -0.4215  0.7619
 7083TIP3    H142664   4.528   4.935   1.635  0.6608 -0.7126  0.6920
 7083TIP3    H242665   4.499   5.068   1.570  0.7337 -0.1907  1.7116
 7084TIP3   OH242666   5.828   6.195   3.864 -0.4568  0.1661  0.3998
 7084TIP3    H142667   5.743   6.219   3.828 -0.4044 -0.0236  0.1416
 7084TIP3    H242668   5.870   6.279   3.884  0.1158  0.3587 -1.4103
 7085TIP3   OH242669   5.190   1.793   0.917  0.1817 -0.9245 -0.0607
 7085TIP3    H142670   5.217   1.731   0.984  0.6216 -0.1490  0.4995
 7085TIP3    H242671   5.160   1.739   0.844 -2.1250 -1.8188  1.4546
 7086TIP3   OH242672   5.727   4.840   4.676  0.2509  0.4795  0.3316
 7086TIP3    H142673   5.657   4.857   4.739  0.3893  0.3397  0.5237
 7086TIP3    H242674   5.799   4.806   4.729 -0.6219 -2.5616 -0.2088
 7087TIP3   OH242675   4.037   3.978  14.707  0.4274  0.1763 -0.0534
 7087TIP3    H142676   3.962   3.947  14.758 -1.6215  2.1964 -1.6101
 7087TIP3    H242677   4.061   3.904  14.652  0.0457 -0.7125  0.9278
 7088TIP3   OH242678   1.407   0.550  16.358  0.1160 -0.5614  0.1935
 7088TIP3    H142679   1.476   0.563  16.423 -0.1706 -0.8076  0.5459
 7088TIP3    H242680   1.454   0.527  16.277  0.5810  1.3061 -0.1253
 7089TIP3   OH242681   2.327   6.680   0.821  0.5631 -0.6039  1.2747
 7089TIP3    H142682   2.332   6.652   0.729  0.6437  0.0720  1.0716
 7089TIP3    H242683   2.415   6.712   0.840  0.2338  0.3298  1.2434
 7090TIP3   OH242684   1.559   0.022  15.321 -0.4501 -0.2653 -0.3746
 7090TIP3    H142685   1.571   0.115  15.302  0.5238 -0.5808 -1.4341
 7090TIP3    H242686   1.575   0.015  15.415 -4.7272  1.2485  0.6932
 7091TIP3   OH242687   5.966   3.205   3.065  0.1277  0.0601  0.3792
 7091TIP3    H142688   6.049   3.253   3.058  1.8026 -2.8732 -2.5436
 7091TIP3    H242689   5.903   3.262   3.020  0.8873  1.5891  1.1602
 7092TIP3   OH242690   5.693   0.799   5.680 -0.5247  0.7978 -0.1199
 7092TIP3    H142691   5.762   0.818   5.744 -0.4534  0.8288 -0.2053
 7092TIP3    H242692   5.612   0.802   5.731 -0.3966 -0.0276  0.1357
 7093TIP3   OH242693   2.677   1.942   5.173  0.2848 -0.7095  0.1636
 7093TIP3    H142694   2.748   1.951   5.237  0.3417  1.1841 -0.0999
 7093TIP3    H242695   2.610   1.890   5.218  0.9490 -0.6823  1.2094
 7094TIP3   OH242696   2.991   4.084   2.030  0.1583  0.2031 -0.5527
 7094TIP3    H142697   2.990   4.021   2.103  0.7827 -0.2071 -0.8845
 7094TIP3    H242698   2.899   4.105   2.016 -0.0408 -0.3934 -0.2158
 7095TIP3   OH242699   0.640   0.569  14.736 -0.8650 -0.1153  0.4418
 7095TIP3    H142700   0.734   0.552  14.725 -1.1082 -1.1460 -0.1845
 7095TIP3    H242701   0.619   0.632  14.667 -0.5712  0.3915  0.8078
 7096TIP3   OH242702   5.534   3.252   2.440  0.2343  0.4740 -0.0924
 7096TIP3    H142703   5.512   3.174   2.388  0.3788  0.4932 -0.1817
 7096TIP3    H242704   5.626   3.268   2.421  0.0601  0.9989 -0.5016
 7097TIP3   OH242705   2.412   3.938   2.745  0.2684  0.1587 -0.3365
 7097TIP3    H142706   2.423   3.930   2.650 -1.4632  0.6932 -0.6253
 7097TIP3    H242707   2.450   4.024   2.767  1.2117 -0.2250 -0.4312
 7098TIP3   OH242708   5.624   1.514  13.569 -0.3858 -0.0924 -0.1961
 7098TIP3    H142709   5.702   1.490  13.620 -0.7447  0.3183  0.5614
 7098TIP3    H242710   5.653   1.585  13.512  0.4556 -1.6525 -1.8043
 7099TIP3   OH242711   4.183   4.632  10.473 -0.0912 -0.3904 -0.4308
 7099TIP3    H142712   4.237   4.648  10.396 -1.5125  0.1004 -1.3659
 7099TIP3    H242713   4.102   4.680  10.456 -0.1785  0.3456  1.7014
 7100TIP3   OH242714   3.969   0.578   2.183  0.0385  0.8225  0.0799
 7100TIP3    H142715   3.977   0.487   2.155 -2.7480  1.0459 -1.9310
 7100TIP3    H242716   3.934   0.573   2.272 -2.7327 -0.2553 -0.9490
 7101TIP3   OH242717   6.124   3.859   3.802 -0.4714  0.4294 -0.5316
 7101TIP3    H142718   6.153   3.840   3.713 -0.9418  1.9200 -1.0337
 7101TIP3    H242719   6.189   3.922   3.835 -0.9917  0.8381 -0.2764
 7102TIP3   OH242720   5.954   5.495  11.514  0.2716 -0.1627 -0.7201
 7102TIP3    H142721   5.999   5.549  11.449 -0.2488  0.6963 -0.3796
 7102TIP3    H242722   5.888   5.553  11.553  2.8401  0.6029  3.1610
 7103TIP3   OH242723   4.472   3.727   0.799 -0.0392 -0.8786 -0.1774
 7103TIP3    H142724   4.459   3.764   0.712  1.0676 -0.7487 -0.3053
 7103TIP3    H242725   4.415   3.650   0.801  0.8802 -1.6297 -1.4919
 7104TIP3   OH242726   2.806   6.043   4.376  0.2604  0.2953 -0.5964
 7104TIP3    H142727   2.831   6.133   4.353 -0.3691  0.7152  0.3007
 7104TIP3    H242728   2.733   6.023   4.318 -0.2606  0.7538 -0.1200
 7105TIP3   OH242729   0.816   6.503  12.237  0.2587 -0.0020  0.5921
 7105TIP3    H142730   0.736   6.543  12.270 -1.1472 -0.1486 -2.2937
 7105TIP3    H242731   0.803   6.409  12.251 -0.1336 -0.0312  0.0686
 7106TIP3   OH242732   6.512   0.284   5.100  0.3612 -0.1733 -0.0977
 7106TIP3    H142733   6.518   0.313   5.191  1.9630 -0.2902 -0.1232
 7106TIP3    H242734   6.420   0.291   5.078 -0.0212  0.0826  1.4621
 7107TIP3   OH242735   4.891   1.171  16.561 -0.4392  0.1993 -0.1619
 7107TIP3    H142736   4.865   1.144  16.649 -0.7863  2.3581  0.4534
 7107TIP3    H242737   4.864   1.263  16.554  0.2316  0.3105 -2.2700
 7108TIP3   OH242738   4.191   3.846   4.541 -0.3952 -0.2323  0.9047
 7108TIP3    H142739   4.190   3.771   4.600  2.4794 -2.0638 -1.0858
 7108TIP3    H242740   4.210   3.921   4.598  2.8630 -1.9885  2.4363
 7109TIP3   OH242741   3.304   6.641   1.721  0.2501  0.1990  0.1881
 7109TIP3    H142742   3.326   6.576   1.787 -0.0293 -0.1174 -0.0227
 7109TIP3    H242743   3.291   6.590   1.641  0.8277  0.6019 -0.1726
 7110TIP3   OH242744   0.590   2.157   3.198 -0.1490 -0.6713 -0.6502
 7110TIP3    H142745   0.587   2.137   3.291  0.1877  2.3008  0.1020
 7110TIP3    H242746   0.659   2.101   3.163  0.5481 -0.9782  1.1340
 7111TIP3   OH242747   2.316   1.479  14.408 -0.1421  0.0225  0.2553
 7111TIP3    H142748   2.334   1.567  14.375  2.4305 -0.2303  0.8203
 7111TIP3    H242749   2.289   1.430  14.330  0.2283  0.8520 -0.4094
 7112TIP3   OH242750   4.011   1.829   3.203  0.5448 -0.1424 -0.1533
 7112TIP3    H142751   3.985   1.760   3.142  2.5293 -1.1910  0.1147
 7112TIP3    H242752   4.019   1.908   3.148  1.7452 -0.9406 -1.1691
 7113TIP3   OH242753   3.607   1.840  12.369 -0.2095  0.1164 -0.5371
 7113TIP3    H142754   3.670   1.908  12.345  0.8630 -0.3287  0.8959
 7113TIP3    H242755   3.607   1.779  12.295 -0.2201  0.9777 -1.2671
 7114TIP3   OH242756   0.413   1.673   6.202  0.5283 -0.0140  0.4611
 7114TIP3    H142757   0.394   1.586   6.167  1.1209  0.2569 -0.5637
 7114TIP3    H242758   0.327   1.710   6.223  0.0117  0.3318 -1.9840
 7115TIP3   OH242759   2.365   0.041  16.098  0.4514 -0.1615 -0.3174
 7115TIP3    H142760   2.300   0.011  16.034 -0.0038 -0.2047  0.1593
 7115TIP3    H242761   2.444   0.056  16.046 -0.5076  1.9473 -1.2639
 7116TIP3   OH242762   1.316   3.158   3.119  0.4100  0.2847 -0.2323
 7116TIP3    H142763   1.249   3.100   3.083  0.5187 -0.5337  0.8217
 7116TIP3    H242764   1.281   3.246   3.109 -1.5578 -0.1988  1.6903
 7117TIP3   OH242765   2.205   6.670   4.569 -0.1262 -0.1441 -0.1505
 7117TIP3    H142766   2.223   6.762   4.587 -0.0153 -0.1346 -0.3114
 7117TIP3    H242767   2.123   6.670   4.520 -0.7469 -0.2063  0.8534
 7118TIP3   OH242768   1.802   3.568   1.724 -0.5079 -0.1645  0.1929
 7118TIP3    H142769   1.842   3.495   1.770  0.1010 -1.1536 -1.7969
 7118TIP3    H242770   1.753   3.528   1.653  0.8209  1.3507 -1.6990
 7119TIP3   OH242771   3.734   6.602  13.844  0.4652 -0.3542 -0.0093
 7119TIP3    H142772   3.782   6.520  13.859 -1.1002 -1.6408 -1.5879
 7119TIP3    H242773   3.656   6.593  13.899 -0.8602 -1.0429 -1.8980
 7120TIP3   OH242774   2.281   5.701  10.786 -0.4783  0.6665  0.3619
 7120TIP3    H142775   2.272   5.795  10.769  0.0103  1.2248  2.8746
 7120TIP3    H242776   2.376   5.686  10.784 -0.2758  1.0025  3.2589
 7121TIP3   OH242777   0.268   3.890  11.661 -0.5573  0.7522  0.3026
 7121TIP3    H142778   0.274   3.824  11.730 -1.0899  1.6731  1.2640
 7121TIP3    H242779   0.310   3.849  11.585 -0.2335 -0.4061  1.0736
 7122TIP3   OH242780   1.226   3.503  17.268  0.1561  0.3216 -0.3972
 7122TIP3    H142781   1.256   3.473  17.354  0.7176 -1.3886 -1.1429
 7122TIP3    H242782   1.304   3.505  17.214 -0.5303 -1.2012 -1.5410
 7123TIP3   OH242783   0.842   4.799   3.191 -0.3551  0.2413 -0.1288
 7123TIP3    H142784   0.874   4.863   3.127 -0.9589 -1.7085 -2.5427
 7123TIP3    H242785   0.855   4.841   3.276  1.8462  2.4129 -1.4120
 7124TIP3   OH242786   3.518   4.863  14.609  0.0846  0.4266  0.8957
 7124TIP3    H142787   3.572   4.879  14.532 -0.9483 -2.1394 -0.5227
 7124TIP3    H242788   3.428   4.859  14.574 -0.4618 -0.3264  2.2973
 7125TIP3   OH242789   4.240   5.505  17.163  0.5423 -0.0148  0.6424
 7125TIP3    H142790   4.259   5.415  17.135 -0.8026 -0.0083 -0.4440
 7125TIP3    H242791   4.144   5.508  17.168  0.3492  2.0411 -1.9391
 7126TIP3   OH242792   4.700   6.196  13.140  0.4093  0.1599  0.6266
 7126TIP3    H142793   4.636   6.232  13.200 -1.3862  0.1853 -1.2149
 7126TIP3    H242794   4.666   6.109  13.118  2.1696 -0.7451  1.2708
 7127TIP3   OH242795   0.125   4.519   3.459 -0.1967 -0.7330 -0.3730
 7127TIP3    H142796   0.173   4.443   3.425  1.2831 -1.1619  2.3452
 7127TIP3    H242797   0.123   4.505   3.554 -0.6445  2.1921  0.1417
 7128TIP3   OH242798   4.681   5.762  17.059  0.0208 -0.1625 -0.0764
 7128TIP3    H142799   4.666   5.824  16.987 -0.3577  0.7256  0.7344
 7128TIP3    H242800   4.656   5.811  17.138  1.4914 -0.7296  0.7785
 7129TIP3   OH242801   3.379   2.945  16.369  0.4130  0.5300  0.1626
 7129TIP3    H142802   3.330   3.015  16.327  0.0675  0.6724  0.7899
 7129TIP3    H242803   3.396   2.977  16.458  0.9294  0.1420  0.2108
 7130TIP3   OH242804   1.665   4.396  12.982 -0.0720 -0.3554 -0.3332
 7130TIP3    H142805   1.718   4.428  12.910 -1.0253  0.1306 -0.8404
 7130TIP3    H242806   1.614   4.472  13.010 -0.7080 -0.8723 -0.0550
 7131TIP3   OH242807   3.758   2.179  14.613  0.8374 -0.1237 -0.2136
 7131TIP3    H142808   3.732   2.193  14.704 -1.1994  0.7557 -0.8833
 7131TIP3    H242809   3.803   2.095  14.613 -1.6337 -1.5290  1.1442
 7132TIP3   OH242810   0.752   0.843   2.761  0.4331  0.0640  0.9636
 7132TIP3    H142811   0.706   0.772   2.717 -2.1584  1.2992  1.4468
 7132TIP3    H242812   0.786   0.898   2.690  1.4887 -1.0409  0.5915
 7133TIP3   OH242813   0.697   5.777  13.154  0.4047 -0.2551  0.1098
 7133TIP3    H142814   0.727   5.864  13.178 -1.4912  0.9675 -1.6416
 7133TIP3    H242815   0.738   5.760  13.069  0.4417 -0.9097  0.2518
 7134TIP3   OH242816   2.233   6.511  14.599 -0.5425 -0.0742 -0.6078
 7134TIP3    H142817   2.167   6.470  14.543 -2.0965 -0.8338  1.6446
 7134TIP3    H242818   2.197   6.598  14.618 -0.2809 -0.0147 -0.3839
 7135TIP3   OH242819   1.015   3.676  14.579 -0.1089  0.0234 -0.0126
 7135TIP3    H142820   0.925   3.710  14.583 -0.2492 -0.4230  0.9342
 7135TIP3    H242821   1.059   3.715  14.655 -0.3461 -2.0249  1.2654
 7136TIP3   OH242822   5.256   1.305   0.714 -0.2895  0.3556 -0.0173
 7136TIP3    H142823   5.279   1.212   0.719  2.2620  0.9655  2.3894
 7136TIP3    H242824   5.251   1.324   0.620  1.6687 -1.6883 -0.6153
 7137TIP3   OH242825   2.717   2.953  14.260  0.4430 -0.1895 -0.7317
 7137TIP3    H142826   2.786   2.923  14.202  1.6509 -1.0984  1.0886
 7137TIP3    H242827   2.745   2.926  14.348 -0.9746  1.6674  0.3827
 7138TIP3   OH242828   0.855   4.921   4.403 -0.6448 -0.2202 -0.2866
 7138TIP3    H142829   0.925   4.912   4.338 -0.9091  0.3943 -0.6704
 7138TIP3    H242830   0.860   5.012   4.431  0.2671 -0.7805  1.5108
 7139TIP3   OH242831   6.645   0.548   2.261  0.1224  0.2930  0.0410
 7139TIP3    H142832   6.609   0.606   2.194 -0.0573 -0.0475 -0.1595
 7139TIP3    H242833   6.738   0.571   2.265 -0.1129  1.2211  0.6061
 7140TIP3   OH242834   2.795   2.256   0.099 -0.0988  0.2474 -0.2797
 7140TIP3    H142835   2.731   2.197   0.139 -0.9136  0.5896 -1.0500
 7140TIP3    H242836   2.848   2.286   0.172 -0.3436 -0.6157  0.2734
 7141TIP3   OH242837   5.238   1.509   1.076 -0.0873  0.2660  0.4874
 7141TIP3    H142838   5.218   1.576   1.142  2.6459  0.4825  1.1973
 7141TIP3    H242839   5.207   1.427   1.115 -0.2394  0.6449  1.1808
 7142TIP3   OH242840   3.377   2.047  17.486 -0.4699 -0.0962 -0.0257
 7142TIP3    H142841   3.291   2.089  17.485 -0.5376 -0.0992  1.9501
 7142TIP3    H242842   3.359   1.954  17.496 -0.2572 -0.2832 -1.2981
 7143TIP3   OH242843   4.015   1.102  14.104  0.1610 -0.1366 -0.3310
 7143TIP3    H142844   3.969   1.121  14.185  0.5479  0.8189 -0.3320
 7143TIP3    H242845   3.961   1.035  14.061 -0.0192 -0.6790  0.7180
 7144TIP3   OH242846   4.697   3.338  11.406 -0.3301 -0.4233  0.5376
 7144TIP3    H142847   4.710   3.361  11.498  1.0457  1.8325 -0.1341
 7144TIP3    H242848   4.617   3.384  11.381  0.5625  0.9240  0.0588
 7145TIP3   OH242849   3.723   5.195   1.995  0.3372 -0.0970  0.3952
 7145TIP3    H142850   3.642   5.225   1.954  1.4303  0.1634 -1.7107
 7145TIP3    H242851   3.742   5.261   2.062 -1.7306 -0.7804  1.7680
 7146TIP3   OH242852   3.578   5.343  14.778 -0.3382 -0.2287  0.0126
 7146TIP3    H142853   3.540   5.256  14.762 -0.8016 -0.2045  0.9432
 7146TIP3    H242854   3.653   5.325  14.836 -0.6027  0.0201  0.4315
 7147TIP3   OH242855   1.118   0.248  12.424 -0.1732  0.1867  0.3729
 7147TIP3    H142856   1.130   0.271  12.332  0.1471 -0.3329  0.2818
 7147TIP3    H242857   1.051   0.309  12.455  0.2724  0.8776  0.0011
 7148TIP3   OH242858   6.705   6.039  16.380 -0.4641  0.5848  0.5069
 7148TIP3    H142859   6.755   6.117  16.402  1.2369  0.1572 -1.5126
 7148TIP3    H242860   6.764   5.966  16.400 -1.0964 -0.0670  0.0806
 7149TIP3   OH242861   0.189   5.379  10.971 -0.3513  0.3028  0.0861
 7149TIP3    H142862   0.219   5.394  10.881  0.2843  1.4369  0.4691
 7149TIP3    H242863   0.245   5.308  11.003  1.9055  2.2632  0.7286
 7150TIP3   OH242864   3.408   0.450  11.656 -0.3659  0.1487 -0.2002
 7150TIP3    H142865   3.375   0.362  11.641  1.3844 -0.3381 -1.5288
 7150TIP3    H242866   3.362   0.505  11.593  2.2099 -0.7728 -3.0908
 7151TIP3   OH242867   3.895   1.335  11.814  0.0055  0.1750 -0.0032
 7151TIP3    H142868   3.828   1.370  11.755 -0.2009 -1.0986 -0.5480
 7151TIP3    H242869   3.978   1.346  11.767 -0.1701 -0.9244 -0.5867
 7152TIP3   OH242870   1.423   5.388   2.666 -0.4338  0.5811 -0.5140
 7152TIP3    H142871   1.428   5.484   2.666  1.5738  0.5348  0.2252
 7152TIP3    H242872   1.511   5.360   2.640  0.2851 -1.0311  3.0826
 7153TIP3   OH242873   0.779   6.038  11.855 -0.2298  0.3144 -0.1525
 7153TIP3    H142874   0.685   6.026  11.838 -0.0789 -3.3273  0.6527
 7153TIP3    H242875   0.795   5.988  11.935  2.5161  0.2942 -0.6277
 7154TIP3   OH242876   5.934   3.913  11.769 -0.2466 -0.6376 -0.5070
 7154TIP3    H142877   5.870   3.858  11.725  0.2909 -2.4529  0.8764
 7154TIP3    H242878   6.003   3.926  11.704 -1.7360  1.0092 -1.8729
 7155TIP3   OH242879   2.988   6.700  13.554 -0.0015  0.0908 -0.7790
 7155TIP3    H142880   2.999   6.731  13.464  1.9692  0.3894 -0.4882
 7155TIP3    H242881   3.066   6.732  13.600  0.6167 -2.6781  0.2965
 7156TIP3   OH242882   4.662   3.097   0.259 -0.4089 -0.5723 -0.5279
 7156TIP3    H142883   4.575   3.063   0.236  0.9665 -3.0658 -2.5888
 7156TIP3    H242884   4.713   3.089   0.178  1.2757  2.7329  0.0426
 7157TIP3   OH242885   0.535   0.550  13.739 -0.5058 -0.2211 -0.4497
 7157TIP3    H142886   0.483   0.596  13.673  1.2972  0.2842 -1.6125
 7157TIP3    H242887   0.518   0.457  13.723 -4.5332 -0.1852  2.2091
 7158TIP3   OH242888   1.310   0.031  15.563  0.1615  0.2370  0.4007
 7158TIP3    H142889   1.405   0.038  15.555 -0.1243  2.8194 -2.6016
 7158TIP3    H242890   1.282   0.114  15.601 -0.9245 -0.7992  2.0101
 7159TIP3   OH242891   3.147   2.144   1.949 -0.3680  0.4870 -0.7794
 7159TIP3    H142892   3.144   2.054   1.981  1.1440  0.3710 -0.9150
 7159TIP3    H242893   3.082   2.190   2.002  1.3582  0.0971  1.8232
 7160TIP3   OH242894   5.089   4.904   1.729 -0.0890 -0.0852  0.3519
 7160TIP3    H142895   5.169   4.853   1.715 -0.2361 -1.0343  2.5829
 7160TIP3    H242896   5.019   4.850   1.693  0.0560 -0.1336  0.1390
 7161TIP3   OH242897   5.593   1.339  11.624 -0.3104  0.0620 -0.2013
 7161TIP3    H142898   5.520   1.278  11.615 -0.0385  0.0929 -3.8591
 7161TIP3    H242899   5.557   1.425  11.603  0.1934  0.5753  0.9160
 7162TIP3   OH242900   0.494   2.940   1.326 -0.3434 -0.0365  0.5003
 7162TIP3    H142901   0.469   2.882   1.254 -2.1363  0.8243  0.3604
 7162TIP3    H242902   0.588   2.927   1.336 -0.4365 -1.8485 -0.4867
 7163TIP3   OH242903   2.295   2.884  13.719 -0.6614 -0.3370 -0.2839
 7163TIP3    H142904   2.367   2.835  13.678 -0.0246 -0.7671  1.2643
 7163TIP3    H242905   2.228   2.890  13.651  0.1720 -1.3858 -1.2394
 7164TIP3   OH242906   2.542   1.147   2.419  0.6423 -0.6178  0.2226
 7164TIP3    H142907   2.457   1.107   2.437  0.1493 -0.9334 -2.3423
 7164TIP3    H242908   2.592   1.135   2.500 -1.3037 -1.5820  1.3643
 7165TIP3   OH242909   3.634   6.319  15.594  0.4591 -0.2154 -0.2815
 7165TIP3    H142910   3.687   6.389  15.556 -1.8001  0.6518 -2.0792
 7165TIP3    H242911   3.687   6.240  15.582  1.2861  0.5669 -2.2087
 7166TIP3   OH242912   1.531   3.954  15.247  0.7731 -0.0231  0.9567
 7166TIP3    H142913   1.623   3.929  15.256  0.9558  0.6826  1.1270
 7166TIP3    H242914   1.534   4.047  15.224  0.1790 -0.5160 -1.3514
 7167TIP3   OH242915   0.759   0.738  11.774 -0.5401  0.2111  0.1612
 7167TIP3    H142916   0.779   0.814  11.720  1.2032 -0.5541 -0.3464
 7167TIP3    H242917   0.723   0.674  11.714 -0.5716  0.1068  0.2903
 7168TIP3   OH242918   6.523   4.707  16.103  0.0174  0.6865  0.3280
 7168TIP3    H142919   6.572   4.783  16.134  0.2574  0.4720  0.4761
 7168TIP3    H242920   6.590   4.642  16.081  0.0414  1.6355 -2.9433
 7169TIP3   OH242921   5.578   6.425  14.896 -0.3866  0.1235 -0.2157
 7169TIP3    H142922   5.578   6.479  14.817  1.1465 -0.1265 -0.4210
 7169TIP3    H242923   5.616   6.480  14.964 -0.3634 -0.1344 -0.0163
 7170TIP3   OH242924   5.305   5.516  15.451 -0.0971 -0.0515  0.4852
 7170TIP3    H142925   5.314   5.451  15.381 -0.2154  1.6449 -1.1938
 7170TIP3    H242926   5.388   5.511  15.499  0.7376 -0.0390 -0.8940
 7171TIP3   OH242927   5.457   3.992   2.220 -0.3096 -0.0903 -0.9456
 7171TIP3    H142928   5.459   3.959   2.130 -2.1898  1.3204 -1.5607
 7171TIP3    H242929   5.364   4.006   2.239  0.0170 -0.6759  1.3667
 7172TIP3   OH242930   4.651   3.663  15.051  0.8392 -0.8047 -0.2028
 7172TIP3    H142931   4.733   3.648  15.097  1.6387  0.2771 -1.1926
 7172TIP3    H242932   4.643   3.590  14.990  0.0177 -1.9825  1.2644
 7173TIP3   OH242933   2.839   2.755   1.442 -0.4593 -0.4500  0.3723
 7173TIP3    H142934   2.892   2.814   1.496  1.0171 -1.2183 -0.1681
 7173TIP3    H242935   2.776   2.812   1.399  1.6096  0.9548 -0.9764
 7174TIP3   OH242936   0.069   2.218  14.676  0.3043  0.5307 -0.9827
 7174TIP3    H142937   0.140   2.281  14.692 -0.5674  1.0219  1.2480
 7174TIP3    H242938  -0.006   2.273  14.653 -0.5420  0.4105  1.2721
 7175TIP3   OH242939   4.045   3.479   0.158  0.0567  0.2143  0.2593
 7175TIP3    H142940   4.031   3.509   0.067 -2.4800  0.8719  0.7782
 7175TIP3    H242941   3.967   3.427   0.178  0.6030  0.0285  2.0445
 7176TIP3   OH242942   1.215   0.875   5.097 -0.2407 -0.1681 -0.3222
 7176TIP3    H142943   1.161   0.816   5.149  0.0639 -2.0734 -2.0583
 7176TIP3    H242944   1.153   0.935   5.055 -0.5023  1.3008  1.9635
 7177TIP3   OH242945   2.456   5.867  14.252  0.7184  0.4024 -0.5411
 7177TIP3    H142946   2.458   5.941  14.191  0.6391  0.6647 -0.2353
 7177TIP3    H242947   2.468   5.790  14.198 -4.6865  0.0297 -1.8249
 7178TIP3   OH242948   0.768   2.844  15.720 -0.3755  0.1967  0.2668
 7178TIP3    H142949   0.751   2.800  15.803 -2.2578  0.5836  0.1253
 7178TIP3    H242950   0.783   2.936  15.744 -0.3726  0.2048  0.2336
 7179TIP3   OH242951   5.497   2.987   2.372  0.8751 -0.0352  0.3964
 7179TIP3    H142952   5.547   2.911   2.343 -0.1960 -1.2128  1.5227
 7179TIP3    H242953   5.445   2.955   2.446 -0.7627  1.3854 -0.0676
 7180TIP3   OH242954   2.730   2.995   1.855 -0.4135  0.6461  0.5760
 7180TIP3    H142955   2.647   3.041   1.841 -0.3202  0.3037 -1.4154
 7180TIP3    H242956   2.706   2.903   1.858 -0.3024  0.6423  1.9977
 7181TIP3   OH242957   0.845   5.740   3.285 -0.2549 -0.7151 -0.8062
 7181TIP3    H142958   0.924   5.710   3.240 -1.5003 -2.2091 -2.0850
 7181TIP3    H242959   0.842   5.834   3.267  1.1017 -0.6739 -0.9243
 7182TIP3   OH242960   0.537   1.649  14.883 -0.6303 -0.0643  0.4056
 7182TIP3    H142961   0.524   1.592  14.808 -1.1756  1.3139 -0.6032
 7182TIP3    H242962   0.457   1.702  14.887 -0.6910 -0.2217  2.0786
 7183TIP3   OH242963   2.797   5.869  12.959  1.0427 -0.2795  0.0755
 7183TIP3    H142964   2.754   5.827  13.034  0.0559  0.4717 -0.0511
 7183TIP3    H242965   2.850   5.799  12.921 -1.7005 -1.9480 -1.0405
 7184TIP3   OH242966   0.544   5.297  15.510  0.3285  0.0908  0.0504
 7184TIP3    H142967   0.555   5.204  15.490  0.4063  0.1361 -0.1185
 7184TIP3    H242968   0.548   5.301  15.605 -1.3485 -0.2972  0.1670
 7185TIP3   OH242969   4.834   0.757  15.995  0.2674 -0.1860  0.2560
 7185TIP3    H142970   4.854   0.783  16.084 -0.5110 -3.1968  1.4455
 7185TIP3    H242971   4.738   0.753  15.993  0.3141 -2.8345  0.2543
 7186TIP3   OH242972   6.628   6.456  12.819 -0.5778 -0.3558 -0.4803
 7186TIP3    H142973   6.667   6.509  12.888  1.7633 -1.6210 -0.7401
 7186TIP3    H242974   6.533   6.462  12.834 -0.2405  1.3939  1.2896
 7187TIP3   OH242975   5.021   1.731  12.977  0.6010 -0.0018 -0.5430
 7187TIP3    H142976   4.951   1.793  12.954  0.4822  0.2571  0.4669
 7187TIP3    H242977   4.977   1.664  13.028  0.9675 -0.2318 -0.5318
 7188TIP3   OH242978   2.475   1.243  16.758  0.7259 -0.0772 -0.0312
 7188TIP3    H142979   2.533   1.169  16.776  1.1375  0.1165 -0.5341
 7188TIP3    H242980   2.486   1.260  16.665  1.6560  1.4681  0.3227
 7189TIP3   OH242981   0.136   6.188   1.569 -0.0644 -0.6725  0.0445
 7189TIP3    H142982   0.179   6.129   1.630  0.8428  0.1758  0.2407
 7189TIP3    H242983   0.081   6.131   1.515 -1.6396 -1.3674  2.2181
 7190TIP3   OH242984   3.676   2.267   2.912 -0.1991  0.1226  0.5001
 7190TIP3    H142985   3.706   2.196   2.969 -0.7001 -0.9824 -0.5578
 7190TIP3    H242986   3.587   2.243   2.889  0.0715  0.3955 -0.9364
 7191TIP3   OH242987   6.500   0.188  11.316 -0.3363  0.8376  0.1866
 7191TIP3    H142988   6.496   0.191  11.221 -2.5245 -1.0542  0.1231
 7191TIP3    H242989   6.593   0.182  11.337  0.2547  2.5537 -1.7299
 7192TIP3   OH242990   5.667   3.401   5.560 -0.0779  0.5481 -0.3056
 7192TIP3    H142991   5.660   3.455   5.482  1.2192  1.0156 -0.1261
 7192TIP3    H242992   5.716   3.324   5.533  0.0265  0.5208 -0.0492
 7193TIP3   OH242993   3.359   6.578   4.978  0.3514  0.3116  0.6987
 7193TIP3    H142994   3.286   6.579   5.040 -0.2157  3.8801  0.1588
 7193TIP3    H242995   3.437   6.590   5.032  0.0297  1.5767  0.8986
 7194TIP3   OH242996   3.458   1.267   4.404 -0.1823 -0.0780 -0.0592
 7194TIP3    H142997   3.451   1.279   4.309 -0.5409 -1.0915 -0.1737
 7194TIP3    H242998   3.522   1.196   4.415 -1.7633 -1.5342  0.3270
 7195TIP3   OH242999   3.392   1.914   4.865  1.2674 -0.3898  0.5573
 7195TIP3    H143000   3.365   1.822   4.862 -0.3768  0.0661  0.5497
 7195TIP3    H243001   3.474   1.917   4.815  0.2677 -1.4950 -1.2510
 7196TIP3   OH243002   4.785   3.563   0.311 -0.2170 -0.3666 -0.1550
 7196TIP3    H143003   4.783   3.468   0.318 -1.2296 -0.2611  1.7110
 7196TIP3    H243004   4.841   3.592   0.382 -1.0692  0.4750  0.2046
 7197TIP3   OH243005   1.667   4.336   2.067 -0.5151 -0.4778 -0.1187
 7197TIP3    H143006   1.704   4.417   2.102 -0.4573 -1.2321  1.7090
 7197TIP3    H243007   1.610   4.304   2.136 -1.4664 -1.4066 -1.2935
 7198TIP3   OH243008   3.973   3.952  16.753  0.3804  0.0419 -0.8398
 7198TIP3    H143009   3.927   3.886  16.804  0.2763  0.6449 -0.1286
 7198TIP3    H243010   3.946   3.936  16.663  0.1504 -0.7084 -0.6436
 7199TIP3   OH243011   1.796   0.871   0.414 -0.5733 -0.4910  0.0497
 7199TIP3    H143012   1.829   0.787   0.381  0.4022  0.1314 -0.6007
 7199TIP3    H243013   1.718   0.888   0.361  1.1840  0.6940 -2.3723
 7200TIP3   OH243014   2.998   4.264  16.613 -0.4447  0.5154  0.4791
 7200TIP3    H143015   3.092   4.280  16.605 -0.5052  0.8827  0.4870
 7200TIP3    H243016   2.967   4.254  16.523 -0.4068  0.4240  0.4759
 7201TIP3   OH243017   3.588   0.671  17.301  0.6806 -0.2042  0.6105
 7201TIP3    H143018   3.534   0.593  17.294  0.5651 -0.1657  1.0069
 7201TIP3    H243019   3.529   0.744  17.278 -0.2359  0.1142  3.5268
 7202TIP3   OH243020   3.828   3.561  14.370  0.4704 -0.1082  0.0144
 7202TIP3    H143021   3.774   3.521  14.302  0.5470 -1.5973  0.7835
 7202TIP3    H243022   3.907   3.507  14.373  1.0198  0.6953  0.4287
 7203TIP3   OH243023   0.667   5.169   4.773 -0.5181 -0.1848  0.1242
 7203TIP3    H143024   0.727   5.217   4.831  0.3212 -1.5180  0.3939
 7203TIP3    H243025   0.724   5.113   4.722 -1.3895 -0.0534 -1.0233
 7204TIP3   OH243026   0.055   3.108  12.626  0.2251 -0.7282 -0.6297
 7204TIP3    H143027  -0.000   3.120  12.549  1.2763 -0.7737 -1.4018
 7204TIP3    H243028   0.123   3.174  12.617  0.9171 -1.3789 -0.2480
 7205TIP3   OH243029   5.979   6.369  14.699  0.8523  0.4908  0.3677
 7205TIP3    H143030   6.017   6.416  14.773  0.0809  2.1657 -0.2229
 7205TIP3    H243031   5.908   6.317  14.737  1.1297  0.5273  0.9375
 7206TIP3   OH243032   1.021   4.664  15.793  0.6369  0.1130 -0.1837
 7206TIP3    H143033   1.079   4.712  15.852  1.5889  0.5304 -1.4167
 7206TIP3    H243034   1.002   4.581  15.839  1.3463  0.4258  0.6865
 7207TIP3   OH243035   5.982   5.248  15.543 -0.1084  0.3160 -0.5355
 7207TIP3    H143036   5.897   5.212  15.518 -0.6517  0.7972  0.5471
 7207TIP3    H243037   6.046   5.192  15.499 -0.9812  0.3171 -1.8503
 7208TIP3   OH243038   0.047   2.538  13.395 -0.2210 -0.0002  0.0743
 7208TIP3    H143039   0.140   2.540  13.415  0.5146 -2.0335 -2.5847
 7208TIP3    H243040   0.009   2.476  13.457  0.2181  0.6516  1.0059
 7209TIP3   OH243041   4.760   2.015   3.281  0.1776 -0.2488 -0.2818
 7209TIP3    H143042   4.854   2.002   3.272  0.1593 -0.2939 -0.4033
 7209TIP3    H243043   4.725   1.926   3.291  0.1404 -0.2362 -0.3012
 7210TIP3   OH243044   5.432   6.445  14.428  0.0097 -0.3822  0.4815
 7210TIP3    H143045   5.429   6.362  14.477  0.5811 -0.0314  1.1356
 7210TIP3    H243046   5.359   6.496  14.463 -1.8280 -1.4691 -1.5741
 7211TIP3   OH243047   1.696   2.187  13.061 -0.3841  0.1085 -0.7457
 7211TIP3    H143048   1.776   2.163  13.013 -0.9710  1.5799 -2.5521
 7211TIP3    H243049   1.728   2.239  13.135  0.3932 -0.2947 -0.7806
 7212TIP3   OH243050   1.345   2.825  17.372 -0.1418  0.5228  0.0312
 7212TIP3    H143051   1.306   2.746  17.411 -1.2142  1.3148  0.6331
 7212TIP3    H243052   1.318   2.822  17.281  1.1280 -0.5793 -0.3471
 7213TIP3   OH243053   0.570   4.121   4.747  0.2757  0.1763  0.4995
 7213TIP3    H143054   0.484   4.082   4.728  0.9372 -0.3206 -1.8188
 7213TIP3    H243055   0.600   4.075   4.826 -0.5528 -1.4010 -0.0598
 7214TIP3   OH243056   3.215   5.962   5.613 -0.8121 -0.0802  0.2542
 7214TIP3    H143057   3.236   5.891   5.673 -0.9741 -0.2998  0.0562
 7214TIP3    H243058   3.150   6.014   5.659  0.2923  0.7140  0.9480
 7215TIP3   OH243059   5.355   4.359   0.830  0.2870  0.1776  0.0127
 7215TIP3    H143060   5.406   4.339   0.751 -0.2779 -0.1865 -0.2667
 7215TIP3    H243061   5.406   4.427   0.874  1.4014 -0.6961  0.1234
 7216TIP3   OH243062   5.343   5.667  12.943  0.4927  0.2229  0.4239
 7216TIP3    H143063   5.279   5.677  13.014  2.4214 -0.0568  2.2871
 7216TIP3    H243064   5.354   5.572  12.934  1.6256  0.2714  1.0938
 7217TIP3   OH243065   0.932   4.846  10.883 -0.0988  0.2063 -0.8037
 7217TIP3    H143066   0.867   4.807  10.825  1.0917 -1.0646 -1.3454
 7217TIP3    H243067   1.011   4.853  10.830  0.2760  1.5910 -0.1220
 7218TIP3   OH243068   2.122   2.050   3.428  0.1132 -0.4419  0.0379
 7218TIP3    H143069   2.107   1.994   3.351 -0.6850 -0.3154  0.0902
 7218TIP3    H243070   2.041   2.101   3.436  0.2119 -0.4131  0.9245
 7219TIP3   OH243071   4.153   1.719   3.794  0.0092  0.0913 -0.2292
 7219TIP3    H143072   4.236   1.726   3.842  0.9644  1.1559 -1.9528
 7219TIP3    H243073   4.089   1.699   3.862  1.3222  1.3606  1.4958
 7220TIP3   OH243074   0.208   0.188   3.942  0.0945  0.8361 -0.6107
 7220TIP3    H143075   0.197   0.191   4.038  2.1658  0.8352 -0.3188
 7220TIP3    H243076   0.128   0.226   3.908 -0.4942  1.2968  1.1529
 7221TIP3   OH243077   3.482   3.368   1.551 -0.0089 -0.4070 -0.1181
 7221TIP3    H143078   3.560   3.382   1.605  0.0882  1.0953 -0.5908
 7221TIP3    H243079   3.460   3.456   1.519  0.0775 -1.2598 -2.6945
 7222TIP3   OH243080   0.446   4.457   2.149 -0.3358  0.2185 -0.4597
 7222TIP3    H143081   0.525   4.415   2.183  0.0774  0.5706 -0.9657
 7222TIP3    H243082   0.429   4.529   2.210 -1.2809 -0.8944  0.6417
 7223TIP3   OH243083   2.588   0.425  15.984 -0.3415  0.6081  0.3622
 7223TIP3    H143084   2.510   0.401  16.034  0.0350 -0.7539  0.3506
 7223TIP3    H243085   2.586   0.366  15.909  0.4980  0.8202  0.1713
 7224TIP3   OH243086   6.545   3.918   4.340  0.5095 -0.2294  0.4687
 7224TIP3    H143087   6.633   3.943   4.312 -0.2710  0.0470 -1.9072
 7224TIP3    H243088   6.488   3.984   4.302 -0.8989 -1.3785  0.5253
 7225TIP3   OH243089   2.329   1.116   0.686 -0.6332 -0.0016  0.9301
 7225TIP3    H143090   2.390   1.150   0.620 -0.8885  1.8322  1.5799
 7225TIP3    H243091   2.278   1.050   0.639 -2.4794  2.8812 -1.5525
 7226TIP3   OH243092   3.097   3.336   0.538  0.4482  0.1198  0.5412
 7226TIP3    H143093   3.071   3.280   0.611 -0.1281 -1.8388 -1.0640
 7226TIP3    H243094   3.108   3.276   0.465 -0.1782  2.1247 -1.3150
 7227TIP3   OH243095   2.528   4.321  16.573  0.2744 -0.0059  0.5242
 7227TIP3    H143096   2.565   4.267  16.504 -0.4761 -0.4926  0.4914
 7227TIP3    H243097   2.490   4.396  16.528  0.0977 -0.1470  0.4359
 7228TIP3   OH243098   3.292   2.417  11.198  0.2241 -0.4466 -0.4470
 7228TIP3    H143099   3.340   2.451  11.122 -0.8089  0.5901 -0.6568
 7228TIP3    H243100   3.203   2.401  11.166  0.0204 -0.9013  0.3122
 7229TIP3   OH243101   4.768   0.732   5.635 -0.1423 -0.0793  0.0511
 7229TIP3    H143102   4.862   0.746   5.649 -0.3654  1.4112  0.2075
 7229TIP3    H243103   4.735   0.703   5.720  0.0632  0.0295  0.1676
 7230TIP3   OH243104   2.837   0.342   2.697  0.4777 -0.3831 -0.5044
 7230TIP3    H143105   2.835   0.344   2.601 -0.3782 -0.1093 -0.4827
 7230TIP3    H243106   2.911   0.285   2.718  0.3254 -0.8917 -1.3261
 7231TIP3   OH243107   6.655   5.145   1.213  0.2698 -0.3229  0.1296
 7231TIP3    H143108   6.731   5.133   1.156  0.5851  1.4727  0.1198
 7231TIP3    H243109   6.588   5.183   1.157 -0.2176 -0.7311  0.4274
 7232TIP3   OH243110   4.882   0.274  13.439  0.3401 -0.6808  0.2913
 7232TIP3    H143111   4.830   0.351  13.461  1.8941  0.1859  1.1741
 7232TIP3    H243112   4.925   0.297  13.356  0.9675 -0.4946  0.6620
 7233TIP3   OH243113   5.994   6.016  15.752  0.0965 -0.0761  0.2942
 7233TIP3    H143114   5.956   6.101  15.773 -1.0275 -0.3967 -0.3647
 7233TIP3    H243115   5.948   5.988  15.673  1.8662 -0.3963 -0.6788
 7234TIP3   OH243116   2.724   1.627  13.673  0.1085  0.1629 -0.1292
 7234TIP3    H143117   2.660   1.693  13.698 -0.0895  0.2357 -0.8054
 7234TIP3    H243118   2.718   1.560  13.742  1.3666  1.5358  1.3857
 7235TIP3   OH243119   6.509   6.658  16.179  0.1358 -0.0251 -0.0851
 7235TIP3    H143120   6.435   6.717  16.169  0.9170  1.1162  0.6309
 7235TIP3    H243121   6.507   6.633  16.271  1.6716  1.5040  0.4308
 7236TIP3   OH243122   2.968   6.282  11.187  0.6112 -0.2447  0.4665
 7236TIP3    H143123   2.946   6.189  11.177  2.0381 -0.9048  2.8625
 7236TIP3    H243124   3.043   6.295  11.129  1.1504 -0.9111  0.9943
 7237TIP3   OH243125   0.210   3.816  13.829  0.1983 -0.2598  0.1683
 7237TIP3    H143126   0.170   3.768  13.756 -0.7885 -0.6392  0.9204
 7237TIP3    H243127   0.172   3.775  13.907 -0.4450  1.5460  0.8511
 7238TIP3   OH243128   0.571   0.583  17.494 -0.4834  0.3883 -0.1559
 7238TIP3    H143129   0.562   0.679  17.494 -0.8906  0.3599 -0.9716
 7238TIP3    H243130   0.664   0.568  17.511 -0.9557  0.8127  3.6656
 7239TIP3   OH243131   0.918   5.723  16.575 -0.1198  0.2931 -0.2579
 7239TIP3    H143132   0.984   5.674  16.526 -1.2372 -1.2244 -0.2945
 7239TIP3    H243133   0.924   5.812  16.541  0.8043 -0.1843 -1.3960
 7240TIP3   OH243134   3.846   0.663  14.786 -0.0243  0.7426  0.4736
 7240TIP3    H143135   3.783   0.654  14.858  1.2237  0.3704  1.5548
 7240TIP3    H243136   3.880   0.752  14.795  0.3204  0.6094  0.5077
 7241TIP3   OH243137   5.433   6.147  11.852 -0.2179 -0.1896 -0.3646
 7241TIP3    H143138   5.519   6.172  11.886 -0.5911  0.8693 -0.1438
 7241TIP3    H243139   5.388   6.110  11.928 -0.8744  1.7161  0.2251
 7242TIP3   OH243140   3.613   0.677  15.792  0.1521 -0.1552  0.6434
 7242TIP3    H143141   3.569   0.601  15.828  1.3134 -0.7344  0.8967
 7242TIP3    H243142   3.543   0.732  15.758 -0.8129 -0.6481  1.7679
 7243TIP3   OH243143   2.616   3.592  16.889  0.3473 -0.5516  0.3335
 7243TIP3    H143144   2.655   3.679  16.879  0.0324 -0.1593  2.1478
 7243TIP3    H243145   2.604   3.582  16.983 -0.1963 -2.3263  0.1100
 7244TIP3   OH243146   4.180   6.307  17.493 -0.0973  0.5621 -0.1134
 7244TIP3    H143147   4.263   6.347  17.520 -0.6513  1.5319  0.1842
 7244TIP3    H243148   4.128   6.302  17.573 -1.3670  2.5243 -0.7610
 7245TIP3   OH243149   3.851   2.618   3.093 -0.6733  0.0198  0.0734
 7245TIP3    H143150   3.787   2.683   3.064 -0.6624 -0.2716 -0.6159
 7245TIP3    H243151   3.934   2.647   3.055 -0.4655  0.1715  0.6282
 7246TIP3   OH243152   2.083   6.173  11.274 -0.9230 -0.4023 -0.1988
 7246TIP3    H143153   2.079   6.115  11.198  0.9954  0.8442 -1.3367
 7246TIP3    H243154   2.067   6.260  11.239  2.2959  0.5141  0.3136
 7247TIP3   OH243155   5.777   3.667   1.702  0.1142 -0.1995  0.6087
 7247TIP3    H143156   5.764   3.612   1.780  1.9647 -2.0880 -0.3065
 7247TIP3    H243157   5.866   3.648   1.674 -0.0063  1.5324 -1.1709
 7248TIP3   OH243158   3.567   4.987   2.134  0.0160 -0.4460 -0.0368
 7248TIP3    H143159   3.630   5.049   2.099 -0.5403  0.5661  0.6791
 7248TIP3    H243160   3.482   5.022   2.107 -0.3289 -0.6477  0.7622
 7249TIP3   OH243161   5.811   4.824   3.792  0.0089  0.3226 -0.1144
 7249TIP3    H143162   5.807   4.879   3.713  0.1967 -0.6176 -0.8012
 7249TIP3    H243163   5.724   4.833   3.831 -0.2952  0.3241 -0.7728
 7250TIP3   OH243164   5.794   5.675   2.580 -0.0565 -0.9034  0.2044
 7250TIP3    H143165   5.827   5.683   2.491 -0.5375 -0.7985  0.0308
 7250TIP3    H243166   5.762   5.763   2.602  0.1265 -0.9091  0.5078
 7251TIP3   OH243167   6.686   4.052  11.646 -0.1068 -0.1361  0.0785
 7251TIP3    H143168   6.767   4.013  11.680 -0.4629 -1.4821 -0.5275
 7251TIP3    H243169   6.616   4.002  11.687 -0.5870 -0.2157 -0.8109
 7252TIP3   OH243170   2.239   0.580  11.305 -0.0535  0.1742  0.4569
 7252TIP3    H143171   2.262   0.489  11.284  0.1907  0.3835 -0.2056
 7252TIP3    H243172   2.322   0.621  11.330 -0.0478  0.3856  0.1025
 7253TIP3   OH243173   4.085   6.263  12.361  0.5494  0.0868  0.3886
 7253TIP3    H143174   4.019   6.255  12.430 -1.4165 -2.0416 -1.5698
 7253TIP3    H243175   4.050   6.331  12.303  0.6447 -0.2477 -0.0642
 7254TIP3   OH243176   5.954   4.487   0.175  0.4993  0.2270  0.2069
 7254TIP3    H143177   6.007   4.508   0.099 -1.0882  0.4154 -0.9108
 7254TIP3    H243178   5.955   4.392   0.181  2.0884  0.2701  1.0789
 7255TIP3   OH243179   4.154   0.432   5.105  0.1963  0.1860 -0.2733
 7255TIP3    H143180   4.068   0.434   5.148  0.3248  0.6603 -0.0391
 7255TIP3    H243181   4.188   0.521   5.114  0.9013 -0.1073  0.0109
 7256TIP3   OH243182   6.472   3.926  11.749  0.0805  0.0461 -0.5564
 7256TIP3    H143183   6.389   3.965  11.720 -1.9054 -2.2731  1.5364
 7256TIP3    H243184   6.476   3.843  11.702  0.4256 -0.5239  0.4538
 7257TIP3   OH243185   3.623   2.637   5.802 -0.1524  0.1116  0.1907
 7257TIP3    H143186   3.630   2.637   5.897  2.1147 -2.0453  0.1176
 7257TIP3    H243187   3.562   2.566   5.782  0.0145  0.0211  0.0066
 7258TIP3   OH243188   3.347   5.365   0.303  0.2017 -0.0116  0.6205
 7258TIP3    H143189   3.281   5.300   0.277 -1.1269  1.2086  0.8099
 7258TIP3    H243190   3.296   5.436   0.342  1.8644 -0.2735  3.4628
 7259TIP3   OH243191   2.610   3.696   1.606  0.1060  0.0326  0.1030
 7259TIP3    H143192   2.610   3.631   1.536  0.2427  1.0044 -0.8310
 7259TIP3    H243193   2.664   3.657   1.676  3.5186  0.6658 -1.9399
 7260TIP3   OH243194   0.619   1.328  16.112 -0.3812 -0.5770  0.4215
 7260TIP3    H143195   0.702   1.281  16.118 -0.7884 -1.1711  2.0792
 7260TIP3    H243196   0.608   1.347  16.019  1.0203 -1.5483  0.0312
 7261TIP3   OH243197   1.648   6.506  11.746  0.7331 -0.0288  1.0019
 7261TIP3    H143198   1.618   6.424  11.784  0.8983 -1.3368 -1.5203
 7261TIP3    H243199   1.568   6.554  11.725  0.6368  0.6789  2.7582
 7262TIP3   OH243200   4.809   6.662  14.971 -0.0917  0.2686  0.4109
 7262TIP3    H143201   4.770   6.631  15.053  0.8266 -0.3314  0.6433
 7262TIP3    H243202   4.742   6.649  14.905  0.1881 -2.0911  0.5310
 7263TIP3   OH243203   0.515   1.195  14.014  0.1293  0.2882  0.0463
 7263TIP3    H143204   0.604   1.185  14.049 -0.2123 -1.3083  0.5571
 7263TIP3    H243205   0.493   1.108  13.981 -1.5054  0.4611  0.6089
 7264TIP3   OH243206   4.893   2.736   3.622 -0.1849  0.3423 -0.2223
 7264TIP3    H143207   4.963   2.725   3.686 -0.5411  2.2328  0.5680
 7264TIP3    H243208   4.910   2.670   3.555  0.0544 -1.8953  1.9227
 7265TIP3   OH243209   1.549   0.744   5.302  0.3389  0.2163 -0.4528
 7265TIP3    H143210   1.636   0.707   5.289 -0.5081 -1.2352 -2.3049
 7265TIP3    H243211   1.492   0.668   5.314 -0.9257  1.0573 -0.9385
 7266TIP3   OH243212   0.998   2.180  12.898  0.2241  0.8733  0.1076
 7266TIP3    H143213   0.911   2.160  12.935  0.3131 -0.2831 -0.2431
 7266TIP3    H243214   1.059   2.141  12.961  0.3579 -4.3676 -2.6671
 7267TIP3   OH243215   3.596   0.701  15.356 -0.1226 -0.3400 -0.0877
 7267TIP3    H143216   3.623   0.695  15.264  1.4378 -0.8412  0.3751
 7267TIP3    H243217   3.589   0.610  15.385 -0.0374 -0.1827  0.4395
 7268TIP3   OH243218   5.305   0.189  16.288 -0.2747  0.5516  0.3049
 7268TIP3    H143219   5.331   0.099  16.304 -1.5143  0.1700  0.3282
 7268TIP3    H243220   5.322   0.203  16.195  0.1584  0.3748  0.3577
 7269TIP3   OH243221   5.327   3.805   6.282 -0.3654  0.5767 -0.1566
 7269TIP3    H143222   5.419   3.831   6.286  0.1246  0.3942 -5.0384
 7269TIP3    H243223   5.279   3.887   6.288  0.3379  1.0459 -0.7906
 7270TIP3   OH243224   4.355   0.711   5.971 -0.3780 -0.1834  0.6615
 7270TIP3    H143225   4.359   0.623   6.008 -1.5215 -0.8102 -0.6037
 7270TIP3    H243226   4.304   0.762   6.033  0.1186 -0.4629  1.3040
 7271TIP3   OH243227   0.339   6.667  16.887  0.0357  0.0582  0.2190
 7271TIP3    H143228   0.433   6.684  16.892  0.2201 -0.9147  0.2361
 7271TIP3    H243229   0.299   6.744  16.927  0.9435 -0.7967  3.0332
 7272TIP3   OH243230   3.157   1.292   2.692 -0.0989  0.0643  0.6052
 7272TIP3    H143231   3.123   1.335   2.771 -1.2941  0.9148 -0.3359
 7272TIP3    H243232   3.113   1.337   2.620  0.7438 -0.9018 -0.5402
 7273TIP3   OH243233   3.416   0.284  12.851 -0.8110  0.4777 -0.0569
 7273TIP3    H143234   3.362   0.237  12.788 -0.0975 -0.1828 -0.1902
 7273TIP3    H243235   3.360   0.356  12.881 -1.4684  0.2888 -0.7850
 7274TIP3   OH243236   2.396   0.522  17.470 -0.0399 -0.4574 -0.1607
 7274TIP3    H143237   2.492   0.527  17.475  0.0396 -1.1631 -0.7651
 7274TIP3    H243238   2.374   0.567  17.388 -0.3504  0.8857  0.6339
 7275TIP3   OH243239   5.026   2.091   1.846 -0.5572  0.6080 -0.0438
 7275TIP3    H143240   4.963   2.157   1.874 -0.5489  0.2886  0.7579
 7275TIP3    H243241   4.972   2.018   1.814 -0.6073  0.2618  0.8107
 7276TIP3   OH243242   5.817   6.467   5.511 -0.0185 -0.1225  0.0014
 7276TIP3    H143243   5.724   6.477   5.490 -0.3147 -1.0617  0.7644
 7276TIP3    H243244   5.857   6.432   5.431 -0.8553 -2.3219  0.4627
 7277TIP3   OH243245   3.299   3.418   3.548 -0.1756 -0.3830 -0.2875
 7277TIP3    H143246   3.205   3.416   3.568 -0.3949 -0.8824 -1.3081
 7277TIP3    H243247   3.341   3.427   3.633 -1.1833  1.0762  0.0957
 7278TIP3   OH243248   1.420   2.123  15.819  0.2492  0.2044  0.1676
 7278TIP3    H143249   1.408   2.179  15.742  1.9735  0.3566 -0.0344
 7278TIP3    H243250   1.436   2.036  15.783 -2.2899 -0.4497  0.4817
 7279TIP3   OH243251   6.627   6.455   2.041 -0.6521  0.2188 -0.0549
 7279TIP3    H143252   6.673   6.379   2.075 -2.6497 -0.0861  2.2276
 7279TIP3    H243253   6.682   6.530   2.066  0.1585 -0.3053 -0.2414
 7280TIP3   OH243254   2.316   1.984   1.188  0.3317  0.1277  0.1193
 7280TIP3    H143255   2.240   1.938   1.152 -0.7644  0.6277  1.7201
 7280TIP3    H243256   2.390   1.950   1.138 -0.6992 -1.7732 -0.1957
 7281TIP3   OH243257   0.469   5.783  16.406 -1.0703  0.1897  0.0590
 7281TIP3    H143258   0.452   5.844  16.334  2.2284 -0.7254 -1.7241
 7281TIP3    H243259   0.535   5.828  16.459  0.0859 -1.0414 -0.2873
 7282TIP3   OH243260   4.417   3.314  12.079  0.5528 -0.8480  0.6003
 7282TIP3    H143261   4.429   3.360  12.162  1.4335 -0.6563  0.3777
 7282TIP3    H243262   4.475   3.238  12.084  0.7670 -0.7267  0.0875
 7283TIP3   OH243263   6.537   4.843   1.236  0.6872 -0.0641  0.4357
 7283TIP3    H143264   6.575   4.924   1.269 -0.3487 -0.2504  2.2481
 7283TIP3    H243265   6.595   4.774   1.267 -0.1600 -0.2235  1.7272
 7284TIP3   OH243266   4.080   5.093  13.971  0.1368  0.2049 -0.0037
 7284TIP3    H143267   4.095   5.187  13.958  0.6538  0.2636  0.9234
 7284TIP3    H243268   4.126   5.073  14.052 -0.0520 -0.8378 -0.1467
 7285TIP3   OH243269   1.225   6.389  17.187 -0.0121  0.4415 -0.4119
 7285TIP3    H143270   1.295   6.349  17.239 -0.8517  0.2452  0.5958
 7285TIP3    H243271   1.225   6.340  17.105  0.8305  0.2478 -0.3075
 7286TIP3   OH243272   3.048   6.406  11.790 -0.2425 -0.2758 -0.2722
 7286TIP3    H143273   3.023   6.437  11.877  2.2190 -0.8347  0.7284
 7286TIP3    H243274   3.108   6.333  11.807  0.1460 -0.5322 -2.4523
 7287TIP3   OH243275   2.994   4.717   2.856  0.5361  0.5983  0.1628
 7287TIP3    H143276   3.029   4.649   2.799 -0.5778 -0.2383  0.4685
 7287TIP3    H243277   2.948   4.777   2.797 -0.1524  0.0272  0.1206
 7288TIP3   OH243278   2.986   6.067   0.242  0.3670  0.1498 -0.1368
 7288TIP3    H143279   2.931   6.069   0.320 -1.2311 -0.1470 -1.1878
 7288TIP3    H243280   3.013   6.157   0.228  0.5255  0.2283  0.6588
 7289TIP3   OH243281   5.140   1.615   0.716 -0.8286  0.0322  0.4662
 7289TIP3    H143282   5.062   1.571   0.683  1.3679 -1.9250 -2.8277
 7289TIP3    H243283   5.209   1.548   0.711  2.1385  2.8677 -2.0118
 7290TIP3   OH243284   3.477   1.502   1.517  0.2403 -0.1259  0.2807
 7290TIP3    H143285   3.545   1.482   1.453  0.2018 -0.9897  0.4994
 7290TIP3    H243286   3.477   1.427   1.576 -0.1233  0.3962  0.9534
 7291TIP3   OH243287   2.678   0.538  11.504  0.7062  0.0960  0.6588
 7291TIP3    H143288   2.639   0.454  11.480  0.9204 -0.0274  0.7345
 7291TIP3    H243289   2.666   0.593  11.427 -0.3297  0.3197  0.9704
 7292TIP3   OH243290   1.709   3.402   0.251  0.0805  0.0965 -0.0043
 7292TIP3    H143291   1.765   3.433   0.322 -0.2022  0.0883  0.2243
 7292TIP3    H243292   1.720   3.467   0.182 -0.3782  0.6235  0.4062
 7293TIP3   OH243293   2.381   2.633  12.851  0.1736  0.4059  0.1303
 7293TIP3    H143294   2.475   2.640  12.836  0.2642  1.2638  1.0200
 7293TIP3    H243295   2.353   2.561  12.794  1.3514  0.1822 -0.1903
 7294TIP3   OH243296   5.183   0.802  17.462 -0.1971 -0.0593 -0.8348
 7294TIP3    H143297   5.229   0.850  17.393 -1.4321  2.7847  0.1298
 7294TIP3    H243298   5.124   0.744  17.416 -0.2874  1.0511 -2.1917
 7295TIP3   OH243299   6.181   3.396   3.027 -0.3045 -0.5832 -0.4421
 7295TIP3    H143300   6.153   3.467   3.085  0.1839  0.0551 -0.9712
 7295TIP3    H243301   6.275   3.412   3.014  0.0362 -1.9059  0.2291
 7296TIP3   OH243302   1.778   1.483  16.191 -0.0055 -0.4622 -0.7161
 7296TIP3    H143303   1.850   1.422  16.206 -0.0841 -0.2662  0.5036
 7296TIP3    H243304   1.699   1.429  16.195 -0.1873 -0.1140  1.8153
 7297TIP3   OH243305   2.296   5.941  13.327  0.0131 -0.0871  0.2896
 7297TIP3    H143306   2.379   5.941  13.279  0.1301 -0.4285  0.4925
 7297TIP3    H243307   2.288   6.030  13.361  0.4367 -0.1344  0.5156
 7298TIP3   OH243308   5.827   2.414  13.438 -0.3284  0.7889  0.6607
 7298TIP3    H143309   5.753   2.402  13.378 -0.1079 -0.7437  0.6390
 7298TIP3    H243310   5.904   2.403  13.383 -0.1244 -1.0309  1.2249
 7299TIP3   OH243311   2.942   2.815   5.465  0.8838 -0.8852  0.2627
 7299TIP3    H143312   2.898   2.846   5.386 -1.4003 -0.5030  1.5956
 7299TIP3    H243313   3.033   2.802   5.438 -0.1429 -2.5361 -2.8658
 7300TIP3   OH243314   1.167   0.751   4.209  0.5230 -0.3056  0.6447
 7300TIP3    H143315   1.231   0.737   4.139  2.2855 -0.1914  2.1401
 7300TIP3    H243316   1.143   0.844   4.201  0.3917 -0.3967 -0.0512
 7301TIP3   OH243317   2.557   2.523  17.058 -0.0148  0.4354 -0.4238
 7301TIP3    H143318   2.482   2.548  17.004 -1.7402 -2.8544  0.1877
 7301TIP3    H243319   2.571   2.431  17.038  2.2343  0.2699  1.4535
 7302TIP3   OH243320   6.167   5.795   4.365 -0.5446 -0.6213 -0.2844
 7302TIP3    H143321   6.206   5.871   4.409 -0.0832 -0.7984 -0.3829
 7302TIP3    H243322   6.112   5.755   4.432 -0.3395 -0.5267 -0.0574
 7303TIP3   OH243323   5.656   5.854  15.687 -1.0394 -0.2025 -0.2949
 7303TIP3    H143324   5.669   5.920  15.756 -0.0474  0.0103 -0.6641
 7303TIP3    H243325   5.713   5.883  15.616 -0.9840 -1.1959 -0.6627
 7304TIP3   OH243326   1.672   2.249   1.611  0.0156 -0.2576  0.2943
 7304TIP3    H143327   1.741   2.184   1.617  0.4877  0.2240  0.1786
 7304TIP3    H243328   1.665   2.268   1.517  0.2684  0.2679  0.3799
 7305TIP3   OH243329   2.945   3.498  11.798  0.0062  0.3140 -0.0035
 7305TIP3    H143330   2.886   3.427  11.773  1.1942 -0.0911 -1.8258
 7305TIP3    H243331   2.980   3.530  11.715  1.7182  1.0821  0.9676
 7306TIP3   OH243332   2.343   5.644   4.440 -0.1917 -0.3202  0.3396
 7306TIP3    H143333   2.366   5.555   4.411  0.8692  0.6369 -1.9941
 7306TIP3    H243334   2.420   5.675   4.486  1.2761  0.8795 -2.6655
 7307TIP3   OH243335   4.810   4.283  10.238  0.5318 -0.4441 -0.0188
 7307TIP3    H143336   4.740   4.319  10.293  0.3980 -1.5200  0.5532
 7307TIP3    H243337   4.852   4.217  10.294  1.5687 -0.2849 -0.5936
 7308TIP3   OH243338   0.470   2.704   0.415  0.9414 -0.4350  0.0380
 7308TIP3    H143339   0.423   2.621   0.426  0.0954  0.1520  0.9424
 7308TIP3    H243340   0.405   2.771   0.435  0.8497  0.5902 -3.1456
 7309TIP3   OH243341   3.233   6.355   3.679 -0.5655  0.2852  0.1070
 7309TIP3    H143342   3.321   6.350   3.643 -0.7593 -0.6345 -0.2719
 7309TIP3    H243343   3.237   6.427   3.742  0.6783 -0.2816  0.7155
 7310TIP3   OH243344   5.716   3.266   6.017  0.4270 -0.1313 -0.2054
 7310TIP3    H143345   5.781   3.274   6.087 -1.5476 -1.3663  1.9186
 7310TIP3    H243346   5.650   3.333   6.038  0.4932  0.4619 -1.7619
 7311TIP3   OH243347   2.765   4.312  17.265  0.0757 -0.4448  0.0695
 7311TIP3    H143348   2.683   4.317  17.216  0.8500 -0.0647 -1.2579
 7311TIP3    H243349   2.751   4.242  17.328 -1.8601  0.7446  1.0703
 7312TIP3   OH243350   5.274   6.441  11.950 -0.2946 -0.1727 -0.6532
 7312TIP3    H143351   5.240   6.352  11.944 -0.5889 -0.2912  1.7864
 7312TIP3    H243352   5.259   6.467  12.041  1.6293  1.6188 -0.7635
 7313TIP3   OH243353   2.693   0.903  16.077  0.2703 -0.1753  0.5450
 7313TIP3    H143354   2.670   0.816  16.046 -1.0858  0.5505 -0.5698
 7313TIP3    H243355   2.680   0.960  16.001 -1.1891  1.3460  1.8577
 7314TIP3   OH243356   6.480   4.098  17.296  0.6461 -0.0110 -0.0128
 7314TIP3    H143357   6.455   4.183  17.261 -2.4641 -1.3979 -1.6039
 7314TIP3    H243358   6.545   4.117  17.363 -1.5120  3.8298  1.2806
 7315TIP3   OH243359   2.340   6.265  10.747 -0.1217  0.2672 -0.3054
 7315TIP3    H143360   2.432   6.256  10.770 -0.3466  0.3022  0.6421
 7315TIP3    H243361   2.318   6.355  10.771 -0.4944  0.1447 -0.1748
 7316TIP3   OH243362   1.925   4.938   0.142  0.7689 -0.5191 -0.0589
 7316TIP3    H143363   1.933   4.953   0.048  0.0057  0.0477 -0.0438
 7316TIP3    H243364   1.831   4.942   0.159  0.9236 -0.2804  0.7830
 7317TIP3   OH243365   0.720   4.348   3.491 -0.2580  0.0073 -0.1653
 7317TIP3    H143366   0.748   4.365   3.400 -1.7857  1.8103 -0.3600
 7317TIP3    H243367   0.768   4.270   3.516  1.0654  0.0949 -2.1574
 7318TIP3   OH243368   6.469   5.774   3.644  0.0191  0.5781 -0.4208
 7318TIP3    H143369   6.523   5.736   3.574  0.4872 -0.3923  0.4492
 7318TIP3    H243370   6.380   5.772   3.610  0.1983 -0.1929 -0.8714
 7319TIP3   OH243371   5.986   0.814   6.084  0.0911 -0.2248  0.1960
 7319TIP3    H143372   6.019   0.755   6.017 -2.1194  0.9055 -2.0504
 7319TIP3    H243373   5.965   0.756   6.158  1.0517 -1.7486 -0.6639
 7320TIP3   OH243374   5.907   4.231   0.314  0.0591 -0.2679  1.0946
 7320TIP3    H143375   5.938   4.158   0.261 -1.0153 -0.0144  0.0504
 7320TIP3    H243376   5.830   4.197   0.359 -2.0220  0.7877 -1.3375
 7321TIP3   OH243377   6.320   1.510  16.207  0.0025 -0.1171  0.7639
 7321TIP3    H143378   6.373   1.521  16.128  3.8950  0.0266  3.0971
 7321TIP3    H243379   6.291   1.419  16.204 -0.1429 -0.0428 -0.9231
 7322TIP3   OH243380   0.273   3.893  12.690 -0.2245  0.4112 -0.3081
 7322TIP3    H143381   0.326   3.915  12.767 -1.6410 -0.2307  0.9065
 7322TIP3    H243382   0.244   3.804  12.706  1.4951 -0.7326 -2.8452
 7323TIP3   OH243383   3.253   4.955  14.501  0.7856  0.0953  0.4650
 7323TIP3    H143384   3.176   4.936  14.448 -0.1171  0.4658  1.5969
 7323TIP3    H243385   3.226   4.938  14.591  1.8760  0.6844  0.9405
 7324TIP3   OH243386   0.903   2.942   2.167 -0.2834 -0.6125  0.6512
 7324TIP3    H143387   0.960   2.984   2.102  1.3372 -2.1202  1.0353
 7324TIP3    H243388   0.906   3.002   2.242 -0.2547 -0.0335  0.1994
 7325TIP3   OH243389   4.255   1.212   4.935 -0.0403  0.1571  0.0567
 7325TIP3    H143390   4.278   1.224   4.842 -1.4628 -0.2749 -0.3770
 7325TIP3    H243391   4.189   1.143   4.934 -0.7468  0.7839  1.3148
 7326TIP3   OH243392   5.850   3.201   3.856  0.0701 -0.7667  0.2550
 7326TIP3    H143393   5.939   3.187   3.889  0.9182  0.7346 -1.2471
 7326TIP3    H243394   5.796   3.211   3.934  1.1383 -2.0448  1.2009
 7327TIP3   OH243395   6.667   4.251  17.440  0.7757 -0.2245  0.2852
 7327TIP3    H143396   6.591   4.295  17.479  0.9562  0.4593 -0.1225
 7327TIP3    H243397   6.690   4.183  17.503 -2.1896 -2.6927 -1.0421
 7328TIP3   OH243398   6.496   2.259  15.345  0.0614  0.7408  0.4549
 7328TIP3    H143399   6.558   2.259  15.272 -0.3327  0.6027  0.1215
 7328TIP3    H243400   6.425   2.317  15.317 -0.7466 -0.3679  0.1604
 7329TIP3   OH243401   6.037   3.840   1.205  0.0087 -0.5871  0.1742
 7329TIP3    H143402   6.105   3.786   1.166  0.5543  0.1758  0.0427
 7329TIP3    H243403   6.033   3.918   1.150 -0.5096 -0.3259  0.5656
 7330TIP3   OH243404   5.533   2.129   4.805  0.5976  0.4389  0.2163
 7330TIP3    H143405   5.511   2.040   4.777 -1.1018  1.4821 -2.0937
 7330TIP3    H243406   5.629   2.128   4.813  0.8271 -1.0818 -1.7979
 7331TIP3   OH243407   3.757   1.039   0.812 -0.3383  0.1408 -0.3870
 7331TIP3    H143408   3.785   1.001   0.895  0.6370  1.2109 -0.2110
 7331TIP3    H243409   3.690   1.103   0.836  1.1579  1.7183 -0.1927
 7332TIP3   OH243410   2.446   4.477  12.256  0.3269 -0.1247 -0.2129
 7332TIP3    H143411   2.361   4.434  12.245  0.4925 -0.3838 -0.4702
 7332TIP3    H243412   2.426   4.554  12.311 -0.4026  0.8527 -1.7570
 7333TIP3   OH243413   0.491   1.620   0.826  0.1782  0.6599  0.2698
 7333TIP3    H143414   0.489   1.533   0.864  0.2205 -0.3254 -1.8095
 7333TIP3    H243415   0.584   1.643   0.822  0.1818  0.7068  0.6093
 7334TIP3   OH243416   2.367   3.667   5.786  0.3794  0.0050  0.4837
 7334TIP3    H143417   2.401   3.675   5.875 -0.1335  2.5709  0.5186
 7334TIP3    H243418   2.440   3.690   5.730 -0.2560  2.1300  0.4391
 7335TIP3   OH243419   2.118   1.639   2.539 -0.0307  0.0546 -0.5193
 7335TIP3    H143420   2.051   1.573   2.520  0.8357 -1.4932  1.3820
 7335TIP3    H243421   2.172   1.643   2.461 -0.7814 -0.6302 -1.0879
 7336TIP3   OH243422   4.761   3.101  13.827 -0.2568 -0.5211  0.0867
 7336TIP3    H143423   4.694   3.059  13.773 -0.3391 -0.9301  0.4952
 7336TIP3    H243424   4.711   3.146  13.895 -0.1041 -1.1676  0.6313
 7337TIP3   OH243425   4.552   1.626  16.100 -0.0985 -0.8163 -0.4160
 7337TIP3    H143426   4.569   1.718  16.077  0.7354 -0.4694  1.4048
 7337TIP3    H243427   4.572   1.621  16.194 -1.9055 -2.4379 -0.0538
 7338TIP3   OH243428   0.079   4.652  12.472 -0.7341 -0.1395  0.1507
 7338TIP3    H143429   0.164   4.613  12.490 -0.8806  0.1357  1.5321
 7338TIP3    H243430   0.081   4.736  12.519 -0.9349  0.9220 -1.6422
 7339TIP3   OH243431   4.852   0.362   3.148 -0.5068  0.2430 -0.1084
 7339TIP3    H143432   4.766   0.321   3.153 -1.0858  1.4550  0.1799
 7339TIP3    H243433   4.857   0.418   3.226  1.0357 -0.7126  0.5218
 7340TIP3   OH243434   2.551   6.255  12.191 -0.0259 -0.4740  0.0885
 7340TIP3    H143435   2.563   6.331  12.135  0.9796 -2.1672 -2.1961
 7340TIP3    H243436   2.604   6.273  12.269  1.0573  0.7189 -0.8846
 7341TIP3   OH243437   3.400   4.938   5.224 -0.1459  0.2376  0.0503
 7341TIP3    H143438   3.407   4.901   5.312 -0.2262 -2.8593 -1.1234
 7341TIP3    H243439   3.319   4.989   5.226 -0.2098  0.1501  1.7151
 7342TIP3   OH243440   4.755   0.600  10.828  0.2329  0.3230  0.4399
 7342TIP3    H143441   4.828   0.563  10.877  0.2706 -0.7256 -0.3785
 7342TIP3    H243442   4.757   0.554  10.744 -1.2177  0.4575  0.3152
 7343TIP3   OH243443   4.173   0.720  13.140  0.5497 -0.7070 -0.5370
 7343TIP3    H143444   4.142   0.630  13.124  0.1288 -1.0020  1.7186
 7343TIP3    H243445   4.102   0.776  13.109 -0.5260 -1.2727  0.8241
 7344TIP3   OH243446   1.870   0.914  14.854 -0.0434 -0.3252  0.6260
 7344TIP3    H143447   1.777   0.925  14.834  0.2720 -0.4066 -1.0302
 7344TIP3    H243448   1.914   0.923  14.769  1.3044 -2.0160  1.0892
 7345TIP3   OH243449   2.820   0.510  13.768  0.5819  0.5984 -0.2480
 7345TIP3    H143450   2.809   0.460  13.687  1.7764  1.2842 -0.8592
 7345TIP3    H243451   2.880   0.581  13.745  0.9710  0.7941  1.2438
 7346TIP3   OH243452   5.132   6.312   0.938 -0.1220 -0.3512 -0.3025
 7346TIP3    H143453   5.062   6.375   0.921  0.9760  1.4887  1.5289
 7346TIP3    H243454   5.161   6.332   1.027  1.5339 -2.2523 -0.3461
 7347TIP3   OH243455   2.448   5.291  12.974  0.1208  0.4674 -0.1218
 7347TIP3    H143456   2.437   5.239  12.895  0.5023 -0.6314  0.5326
 7347TIP3    H243457   2.366   5.341  12.981 -0.5768 -0.6123 -0.3581
 7348TIP3   OH243458   2.151   4.054   5.331  0.0716  0.6365 -0.3514
 7348TIP3    H143459   2.203   4.120   5.286  0.3820  1.0308  0.5512
 7348TIP3    H243460   2.216   4.002   5.380 -0.2947  0.5597  0.0608
 7349TIP3   OH243461   6.101   4.496   5.619 -0.0644 -0.1317  0.0964
 7349TIP3    H143462   6.174   4.435   5.624 -0.0297 -0.1881 -0.8901
 7349TIP3    H243463   6.135   4.571   5.570 -0.7614 -0.3162 -0.7076
 7350TIP3   OH243464   1.200   4.502  17.220 -0.0733  0.2374  0.0398
 7350TIP3    H143465   1.152   4.580  17.193  0.9144  1.3952  1.4959
 7350TIP3    H243466   1.135   4.448  17.265 -1.0066 -0.3156 -1.8490
 7351TIP3   OH243467   0.880   0.793   1.752 -0.3839  0.2257  0.2182
 7351TIP3    H143468   0.853   0.867   1.698 -0.4268 -0.5010 -0.7736
 7351TIP3    H243469   0.972   0.778   1.730  0.0105  0.7983  1.3865
 7352TIP3   OH243470   0.605   2.364  12.827 -0.1626  0.0121  0.1298
 7352TIP3    H143471   0.648   2.403  12.751  1.0608  0.5036  1.0322
 7352TIP3    H243472   0.619   2.427  12.898 -0.4112 -0.8753  1.0021
 7353TIP3   OH243473   4.462   0.242   2.498 -0.0035  0.1163  0.1871
 7353TIP3    H143474   4.520   0.318   2.508  0.7842 -0.4361 -0.1007
 7353TIP3    H243475   4.476   0.190   2.577  0.9537 -0.7050 -0.4843
 7354TIP3   OH243476   3.408   5.604   4.159  0.3874 -0.7881  0.0359
 7354TIP3    H143477   3.503   5.612   4.156  0.4776 -1.6377  0.3459
 7354TIP3    H243478   3.392   5.516   4.194 -0.5103 -0.4666  0.4743
 7355TIP3   OH243479   4.377   0.892   1.860  0.1505  0.0742 -0.0486
 7355TIP3    H143480   4.299   0.841   1.884 -0.5218  0.7074 -0.8267
 7355TIP3    H243481   4.428   0.897   1.941 -1.1415  0.5481  0.7736
 7356TIP3   OH243482   5.185   5.007  17.371 -0.2680 -0.4139  0.3837
 7356TIP3    H143483   5.160   4.928  17.323  0.1079 -0.0515 -0.4195
 7356TIP3    H243484   5.149   5.079  17.320  0.2639 -0.0151  0.5607
 7357TIP3   OH243485   6.109   6.615   5.321  0.7346 -0.5464 -0.4244
 7357TIP3    H143486   6.185   6.638   5.267  0.1675  0.3764 -0.8676
 7357TIP3    H243487   6.045   6.583   5.258  1.3421 -3.0346  0.1375
 7358TIP3   OH243488   1.038   3.877   0.623  0.3150 -0.4508 -0.6256
 7358TIP3    H143489   1.132   3.870   0.608  0.3668  0.7319 -0.9322
 7358TIP3    H243490   1.023   3.970   0.641 -0.5673 -0.8717  1.0344
 7359TIP3   OH243491   4.323   1.851   2.670 -0.0716 -0.4883  0.0515
 7359TIP3    H143492   4.394   1.811   2.721  0.1144  1.2894  1.2892
 7359TIP3    H243493   4.249   1.854   2.731 -0.1940  0.6355 -0.1279
 7360TIP3   OH243494   5.682   6.352   0.207 -0.0679  0.0612 -0.6000
 7360TIP3    H143495   5.614   6.382   0.146 -0.1186 -0.5412 -0.8511
 7360TIP3    H243496   5.712   6.269   0.170  2.3425  1.3094 -1.7181
 7361TIP3   OH243497   0.248   4.478  11.634  0.1081 -0.5330  0.3403
 7361TIP3    H143498   0.188   4.403  11.640 -0.1131 -0.4475 -0.5927
 7361TIP3    H243499   0.288   4.484  11.721  0.1378 -1.7386  0.4276
 7362TIP3   OH243500   6.697   6.288  17.097 -0.2428 -0.2730 -0.1001
 7362TIP3    H143501   6.755   6.359  17.069 -0.2883 -0.5576 -0.9348
 7362TIP3    H243502   6.614   6.305  17.052  0.5305 -2.3001 -2.4816
 7363TIP3   OH243503   2.525   1.985   2.791 -0.1833  0.5973  0.2939
 7363TIP3    H143504   2.532   2.071   2.832 -0.5673  1.0498 -0.5495
 7363TIP3    H243505   2.431   1.974   2.774 -0.0175  0.5541 -0.6878
 7364TIP3   OH243506   0.839   1.477   3.829  0.0466 -0.2385 -0.3109
 7364TIP3    H143507   0.891   1.519   3.897  0.6001  1.1547 -1.5604
 7364TIP3    H243508   0.850   1.383   3.845 -0.4614  0.0410  1.9605
 7365TIP3   OH243509   2.085   0.435   3.979  0.1573 -0.2225 -0.1339
 7365TIP3    H143510   2.104   0.504   4.043 -0.2005 -0.2326 -0.0115
 7365TIP3    H243511   2.000   0.459   3.943 -0.8620 -1.5652  1.2431
 7366TIP3   OH243512   5.553   2.082   2.021  0.1882  0.2087  0.2381
 7366TIP3    H143513   5.465   2.082   2.060  0.5250  0.8507  1.0377
 7366TIP3    H243514   5.583   2.173   2.031  1.1490 -0.1263  0.4492
 7367TIP3   OH243515   6.225   1.388  14.614 -0.1083 -0.1774  0.2722
 7367TIP3    H143516   6.221   1.451  14.543 -1.5164 -0.9988 -0.4115
 7367TIP3    H243517   6.144   1.337  14.607 -0.3139 -0.2752  2.4669
 7368TIP3   OH243518   1.647   1.202   5.506 -0.7620 -0.5506  0.2367
 7368TIP3    H143519   1.636   1.155   5.424  0.1671 -1.7941  0.7857
 7368TIP3    H243520   1.682   1.287   5.481 -0.1187 -1.0609 -0.6436
 7369TIP3   OH243521   6.238   0.748  11.908  0.2506  0.7771 -0.0181
 7369TIP3    H143522   6.213   0.681  11.844 -0.4789 -0.1780  1.2366
 7369TIP3    H243523   6.201   0.829  11.872 -0.3140  0.2324 -0.7203
 7370TIP3   OH243524   5.167   3.745   5.137 -0.2584 -0.3492  0.0146
 7370TIP3    H143525   5.116   3.811   5.092  0.3144 -0.4824 -0.8561
 7370TIP3    H243526   5.156   3.765   5.230 -0.9272  0.3240 -0.2017
 7371TIP3   OH243527   0.524   0.524  12.086 -0.0060  0.2041 -0.3423
 7371TIP3    H143528   0.503   0.568  12.168  0.4379 -1.2918  0.5938
 7371TIP3    H243529   0.451   0.548  12.027 -0.9426  0.3276  0.8313
 7372TIP3   OH243530   2.144   4.411   6.172 -0.6899  0.2047  0.0770
 7372TIP3    H143531   2.109   4.498   6.153  1.7044  1.5289  1.2923
 7372TIP3    H243532   2.234   4.427   6.200  0.1049 -2.7627 -0.4597
 7373TIP3   OH243533   3.814   6.711   4.709 -0.1176  0.0503 -0.4974
 7373TIP3    H143534   3.826   6.662   4.627  1.4139 -1.0628  0.3381
 7373TIP3    H243535   3.724   6.742   4.705 -0.2049 -0.3221 -2.4203
 7374TIP3   OH243536   3.080   1.147  11.623 -0.0278 -0.1490 -0.6407
 7374TIP3    H143537   3.067   1.055  11.646 -0.6723 -0.2196 -1.2231
 7374TIP3    H243538   3.032   1.196  11.690  0.3362 -0.2335 -0.3163
 7375TIP3   OH243539   1.218   5.627   1.815 -0.2761 -0.6490  0.0335
 7375TIP3    H143540   1.209   5.575   1.735  0.6629 -2.2803  0.9454
 7375TIP3    H243541   1.289   5.689   1.795  1.2603 -2.2745  0.1646
 7376TIP3   OH243542   2.658   3.674   5.289  0.1200 -0.0431 -0.1029
 7376TIP3    H143543   2.752   3.667   5.304  0.0739  0.6370  0.5265
 7376TIP3    H243544   2.643   3.768   5.276 -0.5617 -0.0765  0.4167
 7377TIP3   OH243545   1.619   2.664  12.617  0.0151  0.1009 -0.4439
 7377TIP3    H143546   1.696   2.670  12.673  0.1364 -0.9536 -0.4714
 7377TIP3    H243547   1.653   2.665  12.527  0.1727 -1.9672 -0.4502
 7378TIP3   OH243548   4.135   4.558   1.940 -0.3010  0.1916  0.2381
 7378TIP3    H143549   4.125   4.593   2.029 -0.4032  1.2322 -0.1790
 7378TIP3    H243550   4.109   4.466   1.948 -2.8229  0.8801  0.7752
 7379TIP3   OH243551   6.329   1.362  11.573 -0.2876  0.5607 -0.3456
 7379TIP3    H143552   6.253   1.397  11.527  0.5528  1.0014 -1.4386
 7379TIP3    H243553   6.308   1.269  11.586 -1.1972  0.7743 -0.2309
 7380TIP3   OH243554   0.106   3.600  14.548 -0.2068  0.3751  0.0356
 7380TIP3    H143555   0.169   3.557  14.606  0.7217 -0.1525 -1.3079
 7380TIP3    H243556   0.022   3.587  14.591  0.0976 -2.3027  0.0343
 7381TIP3   OH243557   1.682   2.181  12.220  0.4275  0.0426 -0.3620
 7381TIP3    H143558   1.737   2.145  12.150  1.8382  0.0602  0.6882
 7381TIP3    H243559   1.707   2.130  12.298 -0.1802  0.8599  0.3847
 7382TIP3   OH243560   3.859   0.871   1.014  0.2217  0.2444  0.3978
 7382TIP3    H143561   3.923   0.922   1.064  1.2345  1.4838 -2.0041
 7382TIP3    H243562   3.906   0.793   0.985 -0.4451 -0.6159  1.5526
 7383TIP3   OH243563   5.602   6.647   0.842  0.8925  0.1018  0.4563
 7383TIP3    H143564   5.628   6.575   0.783  3.2049 -0.9498  2.5565
 7383TIP3    H243565   5.632   6.726   0.798 -3.2647  0.2638 -2.7816
 7384TIP3   OH243566   4.634   3.284   2.389  0.0502  0.3113 -0.1843
 7384TIP3    H143567   4.636   3.338   2.468 -0.1715  0.1658 -0.0792
 7384TIP3    H243568   4.632   3.194   2.421  2.9195  0.0919 -0.3333
 7385TIP3   OH243569   5.604   0.256  14.343 -0.1179 -0.2652  0.2828
 7385TIP3    H143570   5.548   0.182  14.367 -0.1668 -0.0039  0.9957
 7385TIP3    H243571   5.543   0.330  14.339  0.1428 -0.0157  0.8744
 7386TIP3   OH243572   2.043   1.139   0.696  0.5000 -0.5038  0.1407
 7386TIP3    H143573   2.119   1.146   0.754  0.2037  1.1780  0.3583
 7386TIP3    H243574   2.076   1.090   0.620  0.7464 -3.3227  1.8953
 7387TIP3   OH243575   3.620   6.074  13.248 -0.1422 -0.2692  0.4272
 7387TIP3    H143576   3.566   6.123  13.185  1.4869 -0.4587 -1.1690
 7387TIP3    H243577   3.679   6.139  13.284 -0.3616 -0.3791  0.9992
 7388TIP3   OH243578   2.903   2.732   0.746 -0.3021 -0.0746 -0.0914
 7388TIP3    H143579   2.923   2.643   0.775  2.4478  0.2261 -0.7390
 7388TIP3    H243580   2.815   2.726   0.709 -0.8585 -2.1165  1.3754
 7389TIP3   OH243581   0.636   3.818   2.452 -0.0540  0.5212 -0.0115
 7389TIP3    H143582   0.677   3.732   2.467 -1.9374 -0.1416  1.9186
 7389TIP3    H243583   0.582   3.805   2.374  0.0429  0.0968 -0.0143
 7390TIP3   OH243584   4.273   1.380  14.207  0.3696  0.0079 -0.0462
 7390TIP3    H143585   4.320   1.464  14.206 -0.4418  0.4719 -0.7405
 7390TIP3    H243586   4.250   1.365  14.115  0.2994 -0.8667  0.1039
 7391TIP3   OH243587   0.145   3.734   1.578 -0.0564 -0.3498  0.4941
 7391TIP3    H143588   0.088   3.659   1.593  0.1607 -1.0923 -1.9395
 7391TIP3    H243589   0.168   3.728   1.485  2.2376  1.1617  0.8958
 7392TIP3   OH243590   3.906   2.334   1.886  1.2132  0.1494 -0.8265
 7392TIP3    H143591   3.869   2.321   1.973  2.7992 -3.0442 -0.4868
 7392TIP3    H243592   3.834   2.315   1.826  0.4462  1.1537 -0.2620
 7393TIP3   OH243593   5.250   1.833   3.267  0.1112 -0.5014  0.2733
 7393TIP3    H143594   5.221   1.749   3.302  0.4765 -0.7679 -0.0555
 7393TIP3    H243595   5.201   1.844   3.186  0.0930 -0.4139  0.2953
 7394TIP3   OH243596   4.158   4.820   2.964 -0.2578  0.1233 -0.3172
 7394TIP3    H143597   4.115   4.848   2.884 -0.2942  1.4712  0.1562
 7394TIP3    H243598   4.140   4.726   2.969 -2.4913  0.4907 -0.5241
 7395TIP3   OH243599   1.314   1.441  10.872 -0.2255  0.4304 -0.0123
 7395TIP3    H143600   1.372   1.515  10.854  0.5836 -0.3418 -0.6673
 7395TIP3    H243601   1.363   1.385  10.932  0.2853 -0.8643 -1.5559
 7396TIP3   OH243602   5.870   0.144  15.535  0.4075 -0.5206  0.4536
 7396TIP3    H143603   5.825   0.226  15.552  0.4012 -0.7638  1.6760
 7396TIP3    H243604   5.810   0.094  15.479 -0.7144 -0.7098  1.7943
 7397TIP3   OH243605   1.464   4.792   2.987  0.1208 -0.0543 -0.0379
 7397TIP3    H143606   1.517   4.757   2.916  1.8820  1.3126  0.5508
 7397TIP3    H243607   1.454   4.719   3.047  1.0561 -0.4349 -0.3260
 7398TIP3   OH243608   6.699   5.388   0.883  0.2682  0.4664 -0.3904
 7398TIP3    H143609   6.675   5.297   0.868  0.0701  0.0647  1.9591
 7398TIP3    H243610   6.764   5.384   0.954 -0.4157  2.1968  0.3907
 7399TIP3   OH243611   2.843   3.705   4.369  0.2273 -0.2083 -0.0028
 7399TIP3    H143612   2.879   3.778   4.320 -1.0997  0.1327 -0.5228
 7399TIP3    H243613   2.766   3.678   4.319 -0.0110 -1.1618  0.8340
 7400TIP3   OH243614   5.642   5.796   4.925 -0.3476  0.2064 -0.4020
 7400TIP3    H143615   5.638   5.763   4.835  0.8338 -2.1287  0.3257
 7400TIP3    H243616   5.701   5.872   4.921  0.2108 -0.2695 -1.4869
 7401TIP3   OH243617   0.598   0.273  14.052  0.3762  0.0563 -0.5207
 7401TIP3    H143618   0.510   0.254  14.084  0.5038  1.6206  0.9611
 7401TIP3    H243619   0.646   0.191  14.062  0.4975  0.4027  3.9361
 7402TIP3   OH243620   2.127   4.806  16.942 -0.0139  0.0313 -0.1318
 7402TIP3    H143621   2.198   4.804  17.006 -0.0796 -0.2816 -0.0690
 7402TIP3    H243622   2.139   4.727  16.889  1.2075  1.2452 -1.7995
 7403TIP3   OH243623   4.818   1.125   1.571  0.2088 -0.7438 -0.3751
 7403TIP3    H143624   4.871   1.148   1.647  1.1328  1.8626 -1.6847
 7403TIP3    H243625   4.765   1.051   1.600  1.3509 -0.5899  2.4016
 7404TIP3   OH243626   5.776   6.121  13.325  0.3810 -0.2858 -0.0912
 7404TIP3    H143627   5.805   6.184  13.259 -0.4687 -0.9110 -1.0846
 7404TIP3    H243628   5.788   6.167  13.408  1.9515  0.3317 -0.6201
 7405TIP3   OH243629   0.461   5.130   3.109  0.4191 -0.7431  0.1890
 7405TIP3    H143630   0.484   5.087   3.192  0.6780 -1.0674 -0.0483
 7405TIP3    H243631   0.545   5.158   3.073  0.3228 -0.7469 -0.0413
 7406TIP3   OH243632   3.141   4.665  11.496  0.5816 -0.1171 -0.2841
 7406TIP3    H143633   3.192   4.612  11.558 -0.1084 -1.0771 -0.5202
 7406TIP3    H243634   3.156   4.755  11.524 -0.5682 -0.5529  1.9791
 7407TIP3   OH243635   4.799   2.413   2.299 -0.2263  0.7409  0.2476
 7407TIP3    H143636   4.894   2.421   2.307  0.1158 -2.6277  1.1767
 7407TIP3    H243637   4.784   2.387   2.208  0.2380 -2.4235  0.9695
 7408TIP3   OH243638   2.687   1.353  15.851 -0.2058 -0.0749 -0.3159
 7408TIP3    H143639   2.733   1.380  15.772  0.3028 -1.4529 -0.5271
 7408TIP3    H243640   2.757   1.325  15.911 -0.6657 -0.4039  0.0803
 7409TIP3   OH243641   3.668   2.948   3.992  0.4152 -0.1873  0.1038
 7409TIP3    H143642   3.737   3.013   3.993  0.3280 -0.0896 -0.1401
 7409TIP3    H243643   3.629   2.953   4.080 -0.9848  1.5947 -0.5593
 7410TIP3   OH243644   6.188   6.504  13.040  0.2254  0.2239  0.8069
 7410TIP3    H143645   6.094   6.519  13.028  0.1956  0.3818  1.2227
 7410TIP3    H243646   6.199   6.495  13.135  0.5851 -0.1091  0.7348
 7411TIP3   OH243647   6.321   1.934   3.464  0.2853  0.1121  0.1140
 7411TIP3    H143648   6.283   1.846   3.463 -1.0236  0.6363  1.5224
 7411TIP3    H243649   6.416   1.918   3.463  0.0760 -1.3087  0.3283
 7412TIP3   OH243650   5.637   2.755   2.289  0.1191  0.2643 -0.0882
 7412TIP3    H143651   5.731   2.747   2.302 -0.0504 -2.3988 -0.0354
 7412TIP3    H243652   5.615   2.685   2.227 -2.4173 -2.3601  3.3991
 7413TIP3   OH243653   6.467   4.636  16.395  0.3055  0.3283  0.6296
 7413TIP3    H143654   6.551   4.634  16.349 -0.6177  0.3706 -1.1402
 7413TIP3    H243655   6.403   4.607  16.330 -1.1641  1.0353  1.6969
 7414TIP3   OH243656   4.472   1.266  14.386  0.0972  0.7277  0.4891
 7414TIP3    H143657   4.400   1.273  14.324 -1.1603 -1.8001  1.4906
 7414TIP3    H243658   4.534   1.205  14.345  0.7462  1.4079  0.4426
 7415TIP3   OH243659   1.413   1.597   0.402 -0.1841 -0.6996 -0.3035
 7415TIP3    H143660   1.409   1.576   0.496 -0.8018  0.6985  0.0087
 7415TIP3    H243661   1.504   1.622   0.388  0.0811 -1.5950 -0.2456
 7416TIP3   OH243662   4.266   6.296   4.166 -0.5293 -0.0628 -0.2531
 7416TIP3    H143663   4.221   6.212   4.165  0.3975 -0.5606 -0.4618
 7416TIP3    H243664   4.223   6.345   4.236 -2.9618  0.3485 -1.8787
 7417TIP3   OH243665   2.769   4.502  17.021 -0.0107 -0.2891  0.1589
 7417TIP3    H143666   2.787   4.439  16.951  2.6316 -0.5853  0.9872
 7417TIP3    H243667   2.798   4.458  17.101  0.5354  1.4031  0.9435
 7418TIP3   OH243668   3.086   5.468  11.914 -0.3483  0.4095 -0.0852
 7418TIP3    H143669   3.133   5.393  11.877 -1.0710 -0.1129  0.0379
 7418TIP3    H243670   3.000   5.466  11.872 -0.2047  1.4743 -0.4545
 7419TIP3   OH243671   0.627   2.140  11.355 -0.5614 -0.6306  0.7751
 7419TIP3    H143672   0.714   2.157  11.317 -0.5174  0.3386  1.2714
 7419TIP3    H243673   0.567   2.149  11.281 -0.4195  0.6700  0.7891
 7420TIP3   OH243674   2.926   5.154  15.881 -0.4548  0.2025  0.0313
 7420TIP3    H143675   2.907   5.238  15.840  2.0410  0.2359 -1.2179
 7420TIP3    H243676   2.964   5.101  15.812  2.2378 -0.3702  1.7939
 7421TIP3   OH243677   1.994   5.016   5.914 -0.0023 -0.4085  0.6572
 7421TIP3    H143678   2.049   4.938   5.900  0.4927 -0.1185  0.9645
 7421TIP3    H243679   1.923   5.006   5.852  0.0789 -1.0951  0.6646
 7422TIP3   OH243680   1.399   1.686  12.259  0.2471  0.0417  0.0838
 7422TIP3    H143681   1.346   1.613  12.227  0.4389  0.7185 -1.8917
 7422TIP3    H243682   1.488   1.650  12.266  0.3614  0.1056 -0.9881
 7423TIP3   OH243683   6.321   1.984   1.822  0.0390  0.0200  0.2454
 7423TIP3    H143684   6.289   2.074   1.828  0.8942  0.3187  0.4436
 7423TIP3    H243685   6.275   1.947   1.746 -0.5419  0.5207  0.3425
 7424TIP3   OH243686   5.893   5.244   0.808  0.2590  0.2667  0.2375
 7424TIP3    H143687   5.891   5.178   0.877  5.6187  0.2250  0.7644
 7424TIP3    H243688   5.938   5.319   0.847  1.5727  1.0646 -2.5562
 7425TIP3   OH243689   3.851   6.133  12.669 -0.1117 -0.2684 -0.3669
 7425TIP3    H143690   3.914   6.205  12.659 -0.0288 -0.2195  0.4227
 7425TIP3    H243691   3.766   6.176  12.670 -0.1060 -0.2514 -0.5988
 7426TIP3   OH243692   2.424   2.029  11.250  0.0958  0.0963 -0.3572
 7426TIP3    H143693   2.508   2.018  11.295  0.0595 -1.4214 -0.6188
 7426TIP3    H243694   2.447   2.066  11.165  0.4736 -0.0809 -0.3324
 7427TIP3   OH243695   2.014   4.828  13.248 -0.9055 -0.1508  0.1383
 7427TIP3    H143696   2.072   4.819  13.324  0.5152  1.3717 -0.7023
 7427TIP3    H243697   1.980   4.917  13.253 -2.4087 -0.6859  0.0405
 7428TIP3   OH243698   1.332   6.205   5.570  0.1479 -0.1486 -0.5089
 7428TIP3    H143699   1.243   6.223   5.540 -0.3896 -2.3237 -0.4031
 7428TIP3    H243700   1.332   6.228   5.663 -0.0415  0.6408 -0.6983
 7429TIP3   OH243701   3.404   2.602  17.168 -0.1143  0.4659  0.6449
 7429TIP3    H143702   3.312   2.583  17.151 -0.7634  2.4431  1.6498
 7429TIP3    H243703   3.440   2.627  17.082  0.1442 -2.4749 -0.2074
 7430TIP3   OH243704   6.681   1.573   1.146  0.3226  0.4577 -0.2255
 7430TIP3    H143705   6.683   1.664   1.115  1.7925  0.2219 -0.9327
 7430TIP3    H243706   6.644   1.524   1.073  1.1353  0.2743 -0.5229
 7431TIP3   OH243707   5.203   1.562   3.344  0.2923  0.1000 -0.1986
 7431TIP3    H143708   5.178   1.474   3.373  0.4785 -0.4773 -1.7251
 7431TIP3    H243709   5.290   1.551   3.305  0.8255  1.1903  0.6267
 7432TIP3   OH243710   2.685   3.602  17.184  0.0201  0.2979 -0.2374
 7432TIP3    H143711   2.759   3.583  17.241  2.3570  0.5200 -2.9420
 7432TIP3    H243712   2.644   3.517  17.168  0.9191 -0.1369 -0.2572
 7433TIP3   OH243713   3.916   4.522  14.779  0.3732 -0.5921  0.5033
 7433TIP3    H143714   3.848   4.550  14.840  0.6676 -2.8235  1.9710
 7433TIP3    H243715   3.872   4.464  14.717  0.2425  1.0172 -0.9952
 7434TIP3   OH243716   0.551   6.581   0.255 -0.2517 -0.3604 -0.3801
 7434TIP3    H143717   0.477   6.635   0.228 -1.0135 -0.3983  1.4561
 7434TIP3    H243718   0.530   6.555   0.345  1.8865 -0.5638  0.1200
 7435TIP3   OH243719   6.134   6.646  13.302 -0.3466 -0.0562  0.3443
 7435TIP3    H143720   6.042   6.632  13.324  0.2525 -2.7187  1.6644
 7435TIP3    H243721   6.176   6.563  13.324  2.0279  0.2751 -2.3132
 7436TIP3   OH243722   1.937   5.480  12.504 -0.1376 -0.0578  0.1284
 7436TIP3    H143723   1.867   5.422  12.533 -0.6416 -0.4624 -1.7932
 7436TIP3    H243724   1.896   5.566  12.497  0.2350  0.2510  1.5199
 7437TIP3   OH243725   2.728   0.870   3.170  0.4826  0.2337 -0.0574
 7437TIP3    H143726   2.705   0.780   3.192 -2.2720  0.4106 -1.8569
 7437TIP3    H243727   2.725   0.874   3.075 -0.1890  2.3745 -0.0030
 7438TIP3   OH243728   4.467   6.340  16.613 -0.2330  0.5149 -0.1674
 7438TIP3    H143729   4.556   6.358  16.646  0.1759 -2.3841  0.6080
 7438TIP3    H243730   4.425   6.292  16.685 -1.4608 -0.5579 -1.5545
 7439TIP3   OH243731   3.947   5.115  11.234 -0.4603 -0.4904  0.0912
 7439TIP3    H143732   4.028   5.099  11.186 -0.9962  0.4232 -1.1765
 7439TIP3    H243733   3.962   5.197  11.282  0.3871 -1.8421  2.2823
 7440TIP3   OH243734   3.108   3.283  11.923  0.3097  0.0251 -0.0346
 7440TIP3    H143735   3.067   3.365  11.898  0.1003  0.5631  1.9126
 7440TIP3    H243736   3.037   3.230  11.957  0.7658 -0.1548  0.6570
 7441TIP3   OH243737   5.491   4.029   1.954  0.2918  0.4636  0.4839
 7441TIP3    H143738   5.483   3.940   1.921  1.0004  0.9928 -1.2741
 7441TIP3    H243739   5.415   4.075   1.918  0.2505  0.7086  0.8817
 7442TIP3   OH243740   3.148   2.508   0.146 -0.7103  0.3886  0.2272
 7442TIP3    H143741   3.104   2.571   0.202  0.4045  1.3064  0.1218
 7442TIP3    H243742   3.178   2.439   0.206 -2.9591 -0.6934  0.1822
 7443TIP3   OH243743   0.560   0.513   5.729 -0.4379  0.6722 -0.0889
 7443TIP3    H143744   0.634   0.575   5.723 -0.4835  0.7549  0.1633
 7443TIP3    H243745   0.601   0.428   5.739 -0.3747  0.6784 -0.2902
 7444TIP3   OH243746   5.675   1.582  15.630  0.2301  0.6726 -0.0701
 7444TIP3    H143747   5.733   1.522  15.677 -0.6514  0.7635  1.1957
 7444TIP3    H243748   5.722   1.666  15.630  1.7341 -0.0822 -2.3660
 7445TIP3   OH243749   5.069   5.560  15.226 -0.1064  0.0071  0.4885
 7445TIP3    H143750   5.123   5.490  15.262 -0.1153  0.2244  0.9276
 7445TIP3    H243751   4.986   5.554  15.274 -0.3369 -0.0796  0.0876
 7446TIP3   OH243752   4.250   6.230  14.967 -0.2824 -0.2913 -0.5958
 7446TIP3    H143753   4.334   6.261  14.933  0.0206 -1.5943 -1.1092
 7446TIP3    H243754   4.214   6.305  15.014  0.2043  0.9474 -2.1210
 7447TIP3   OH243755   5.135   6.589   1.089 -0.2617  0.2763  0.0079
 7447TIP3    H143756   5.122   6.521   1.156  1.1214  1.8210  1.9639
 7447TIP3    H243757   5.223   6.572   1.055 -0.1467  0.7190  0.0824
 7448TIP3   OH243758   3.445   3.057   2.527  0.5232 -0.5778  0.7983
 7448TIP3    H143759   3.524   3.104   2.499  0.8785 -1.3062  0.5601
 7448TIP3    H243760   3.430   3.088   2.616 -0.9405  2.1848 -0.3074
 7449TIP3   OH243761   1.878   0.259   4.147  0.2053 -0.3693  0.3908
 7449TIP3    H143762   1.886   0.166   4.124 -3.5166 -0.9127  0.7354
 7449TIP3    H243763   1.928   0.304   4.079  1.0040 -2.5484 -0.5805
 7450TIP3   OH243764   2.161   4.411  15.245  0.2910  0.8179  0.5523
 7450TIP3    H143765   2.099   4.408  15.172  1.1816  1.5001 -0.2527
 7450TIP3    H243766   2.175   4.319  15.269  0.3469  0.5662 -0.4295
 7451TIP3   OH243767   4.350   5.269  16.678  0.1559  0.0284 -0.1746
 7451TIP3    H143768   4.347   5.205  16.607  0.1007 -0.6253  0.4042
 7451TIP3    H243769   4.271   5.322  16.666  0.7705  0.7201 -1.3152
 7452TIP3   OH243770   3.414   4.990  17.421 -0.1052  0.0090  0.1674
 7452TIP3    H143771   3.499   5.011  17.382 -0.3483 -0.5018 -0.6487
 7452TIP3    H243772   3.421   4.898  17.446  0.0732  0.3465  1.4222
 7453TIP3   OH243773   4.673   5.243   3.288 -0.3617 -0.5936 -0.0481
 7453TIP3    H143774   4.619   5.281   3.218  0.2360 -1.5096 -1.0473
 7453TIP3    H243775   4.751   5.210   3.242  0.2673 -0.7995  1.1271
 7454TIP3   OH243776   5.168   2.677  11.057 -0.2946 -0.3650  0.4061
 7454TIP3    H143777   5.181   2.748  10.994 -2.0579  1.4755  1.9654
 7454TIP3    H243778   5.136   2.604  11.004  0.5758  0.3222 -1.1303
 7455TIP3   OH243779   4.900   3.053   1.574  0.4483  0.1633  0.6648
 7455TIP3    H143780   4.852   3.133   1.594  0.4693  0.4526 -0.3997
 7455TIP3    H243781   4.968   3.081   1.512 -1.8626 -1.2662 -2.7874
 7456TIP3   OH243782   6.191   3.009   2.357 -0.4589 -0.0637  0.2128
 7456TIP3    H143783   6.098   3.028   2.370 -0.8526 -1.1958 -0.7357
 7456TIP3    H243784   6.227   3.088   2.317 -0.8491  0.6319  1.2095
 7457TIP3   OH243785   5.667   1.753   4.618  0.1083 -0.0120 -0.5237
 7457TIP3    H143786   5.677   1.669   4.664 -2.1229 -0.9461 -1.6252
 7457TIP3    H243787   5.638   1.729   4.530  3.3774  1.7785 -2.2957
 7458TIP3   OH243788   3.524   4.099  12.542 -0.1588 -0.0122  0.0864
 7458TIP3    H143789   3.572   4.131  12.466  0.6860 -0.6930  0.3277
 7458TIP3    H243790   3.590   4.089  12.611 -0.5893 -1.1901  0.3540
 7459TIP3   OH243791   3.774   2.789  14.650  0.3871  0.0009 -0.2013
 7459TIP3    H143792   3.858   2.803  14.607  0.7685 -0.6704  0.2898
 7459TIP3    H243793   3.782   2.835  14.734  0.8667 -1.3127  0.5124
 7460TIP3   OH243794   2.916   3.221  10.624  1.0764 -0.0677 -0.1212
 7460TIP3    H143795   2.883   3.192  10.709  0.4367  0.5110 -0.1677
 7460TIP3    H243796   2.866   3.171  10.560 -0.2116  1.2786 -0.2088
 7461TIP3   OH243797   4.175   2.576  16.293 -0.2385 -0.2038 -0.2810
 7461TIP3    H143798   4.089   2.537  16.309 -0.7044  0.9304  0.0837
 7461TIP3    H243799   4.167   2.614  16.205  0.2927 -1.1291 -0.7379
 7462TIP3   OH243800   5.630   6.211  14.597  0.1287  0.0893  0.8605
 7462TIP3    H143801   5.693   6.236  14.529 -0.5411  0.2864  0.3000
 7462TIP3    H243802   5.679   6.217  14.679  0.6667  0.8210  0.4914
 7463TIP3   OH243803   1.416   3.868  13.187  0.0569 -0.2676 -0.1460
 7463TIP3    H143804   1.495   3.919  13.168  1.1590 -1.0601  1.8858
 7463TIP3    H243805   1.449   3.782  13.211 -1.3255 -0.3247  1.7763
 7464TIP3   OH243806   3.923   1.896   4.546  0.2513 -0.4109  0.3308
 7464TIP3    H143807   4.014   1.878   4.569  0.3241 -0.1727  0.2326
 7464TIP3    H243808   3.885   1.933   4.626  1.5734  4.3841 -0.9335
 7465TIP3   OH243809   5.039   0.300   0.833 -0.6190  0.3618  0.4186
 7465TIP3    H143810   5.040   0.381   0.884  2.3361  1.2742 -0.8617
 7465TIP3    H243811   5.066   0.232   0.894 -1.8023  0.5654  1.1825
 7466TIP3   OH243812   3.141   4.418   3.070 -0.1298  0.5476 -0.7388
 7466TIP3    H143813   3.124   4.369   2.990  1.4288 -1.7219  0.2231
 7466TIP3    H243814   3.216   4.473   3.048  0.1145  0.1453 -0.9224
 7467TIP3   OH243815   3.236   5.724   3.419  0.5349  0.2530 -0.1566
 7467TIP3    H143816   3.185   5.702   3.497 -1.9055  1.0557 -1.4078
 7467TIP3    H243817   3.250   5.640   3.375 -1.8585  0.1805 -0.9500
 7468TIP3   OH243818   3.096   4.928  17.560 -0.5441 -0.1863  0.0192
 7468TIP3    H143819   3.152   4.852  17.546 -2.6254 -1.5409 -1.6150
 7468TIP3    H243820   3.040   4.902  17.633 -0.9427 -0.0420 -0.2336
 7469TIP3   OH243821   1.112   0.235   0.290  0.5026  0.0680 -0.1532
 7469TIP3    H143822   1.144   0.155   0.333  2.5704 -0.1647 -1.9902
 7469TIP3    H243823   1.147   0.306   0.343 -1.5056 -0.1492  1.6087
 7470TIP3   OH243824   2.400   4.033  17.388 -0.1521  0.0630  0.2530
 7470TIP3    H143825   2.355   3.954  17.356  1.4195 -0.3097 -1.1668
 7470TIP3    H243826   2.369   4.043  17.478 -1.1976 -1.5619  0.1215
 7471TIP3   OH243827   3.459   4.907  15.364  0.0096  0.1283  0.2914
 7471TIP3    H143828   3.507   4.867  15.437  1.9214  0.2824 -0.8084
 7471TIP3    H243829   3.527   4.949  15.312 -1.6053  2.1650 -0.2664
 7472TIP3   OH243830   1.515   1.110  13.624  0.5780 -1.1865 -0.3049
 7472TIP3    H143831   1.451   1.155  13.570  1.7493  1.0492  0.0608
 7472TIP3    H243832   1.581   1.078  13.562  1.3047  0.3253 -0.3448
 7473TIP3   OH243833   2.350   0.871  10.855 -0.6301  0.4583  0.3699
 7473TIP3    H143834   2.393   0.852  10.771 -1.2343  0.4929  0.0495
 7473TIP3    H243835   2.281   0.806  10.862 -0.9315  0.7987  0.5845
 7474TIP3   OH243836   4.881   3.370   4.161 -0.5175  0.2089  0.2152
 7474TIP3    H143837   4.903   3.283   4.126 -0.6188  0.9681 -1.8709
 7474TIP3    H243838   4.790   3.383   4.135 -1.1108  0.2351  2.1317
 7475TIP3   OH243839   1.024   2.482  12.871 -0.7718 -0.5964  0.2623
 7475TIP3    H143840   1.026   2.387  12.888 -1.7877 -0.7682 -0.5228
 7475TIP3    H243841   1.090   2.495  12.803 -1.2998 -0.8962 -0.3182
 7476TIP3   OH243842   1.094   2.547  11.169  0.1624  0.1071 -0.3687
 7476TIP3    H143843   1.112   2.491  11.244  1.8862 -0.4636 -1.1396
 7476TIP3    H243844   1.037   2.616  11.203  2.5392  1.0706  2.0025
 7477TIP3   OH243845   3.407   6.261   4.431  0.2512 -0.1026 -0.5492
 7477TIP3    H143846   3.415   6.352   4.403  0.2061  0.3213  0.7666
 7477TIP3    H243847   3.496   6.235   4.455  0.5524 -0.9231 -2.3563
 7478TIP3   OH243848   5.240   2.785   4.895  0.3991  0.1622  0.3499
 7478TIP3    H143849   5.146   2.794   4.914  0.1220 -0.2726 -0.7298
 7478TIP3    H243850   5.246   2.707   4.841  1.1137  1.2762 -1.2790
 7479TIP3   OH243851   1.379   2.478  15.944  0.4260 -0.4162 -0.0370
 7479TIP3    H143852   1.361   2.533  16.020 -1.0267  1.4165 -1.5991
 7479TIP3    H243853   1.315   2.407  15.950  0.0470 -0.0570  0.2572
 7480TIP3   OH243854   1.885   2.135  13.476  0.1535 -0.1884 -0.9186
 7480TIP3    H143855   1.852   2.137  13.566  0.4597  0.8496 -0.8132
 7480TIP3    H243856   1.828   2.194  13.428  0.1576 -0.5339 -1.3468
 7481TIP3   OH243857   0.767   5.220  11.877  0.2333  0.6630 -0.1530
 7481TIP3    H143858   0.850   5.235  11.923 -0.1718  0.0929  0.8053
 7481TIP3    H243859   0.736   5.136  11.911 -2.0890  2.1266  1.6465
 7482TIP3   OH243860   1.100   3.734   6.638  0.2561  0.3230  0.0767
 7482TIP3    H143861   1.190   3.759   6.616  0.2022 -0.6919 -1.5031
 7482TIP3    H243862   1.104   3.640   6.654 -0.4193  0.3741  0.5962
 7483TIP3   OH243863   0.927   3.616   0.608  0.3200 -0.2036 -0.4330
 7483TIP3    H143864   0.970   3.701   0.616 -0.6511  0.1799  1.1245
 7483TIP3    H243865   0.996   3.552   0.626  0.6133  0.3400  0.4186
 7484TIP3   OH243866   3.208   5.519   0.814 -0.3039 -0.5121  0.6834
 7484TIP3    H143867   3.253   5.585   0.761  0.0450 -1.4974 -0.2788
 7484TIP3    H243868   3.177   5.567   0.891  0.5084  0.6301  0.3207
 7485TIP3   OH243869   6.167   4.426  16.804  0.8551  0.5807 -0.4139
 7485TIP3    H143870   6.235   4.406  16.868 -1.0343  0.2359  1.5955
 7485TIP3    H243871   6.155   4.345  16.755  1.8454  0.6453 -0.7829
 7486TIP3   OH243872   3.889   5.731   0.742 -0.2509 -0.3451  0.2079
 7486TIP3    H143873   3.941   5.683   0.677  0.3181 -1.0751  1.1663
 7486TIP3    H243874   3.866   5.665   0.807  0.1117  0.5791  1.3095
 7487TIP3   OH243875   6.011   4.313   2.378 -0.1024  0.2452 -0.2227
 7487TIP3    H143876   6.007   4.336   2.285  0.5318  1.7454  0.1007
 7487TIP3    H243877   5.955   4.235   2.385  0.1341 -0.1185 -1.9115
 7488TIP3   OH243878   6.539   3.122   2.406  0.1905 -0.1335 -0.1582
 7488TIP3    H143879   6.504   3.208   2.429  0.4035 -0.0849 -0.0144
 7488TIP3    H243880   6.518   3.112   2.314  0.0635  0.0250 -0.1481
 7489TIP3   OH243881   1.558   4.343  10.530  0.5766  0.1159  0.0494
 7489TIP3    H143882   1.647   4.377  10.530  0.1293  1.4211  1.5633
 7489TIP3    H243883   1.547   4.303  10.616 -1.0650  2.3103  0.9574
 7490TIP3   OH243884   3.794   5.608  13.029  0.1218 -0.1329  0.4191
 7490TIP3    H143885   3.792   5.603  12.933  0.1017  1.0891  0.3500
 7490TIP3    H243886   3.887   5.606  13.050  0.1488  0.2947  0.3370
 7491TIP3   OH243887   5.074   3.531  12.742  0.3125  0.0122  0.6549
 7491TIP3    H143888   5.032   3.562  12.662  1.3717  0.8065  0.3860
 7491TIP3    H243889   5.002   3.507  12.799 -0.5266  1.8568  0.4134
 7492TIP3   OH243890   0.341   5.846  14.753  0.9384  0.1792 -0.6030
 7492TIP3    H143891   0.305   5.848  14.842  0.2770 -0.3554 -0.8478
 7492TIP3    H243892   0.265   5.855  14.696  1.4153  1.0749 -1.1189
 7493TIP3   OH243893   2.764   3.201  14.895 -0.2816  0.3787  0.5519
 7493TIP3    H143894   2.732   3.138  14.831  0.5145 -0.0818  0.5948
 7493TIP3    H243895   2.857   3.183  14.902  0.1935  2.2808 -0.2450
 7494TIP3   OH243896   0.682   3.394  15.918  0.2296 -0.1667  0.6405
 7494TIP3    H143897   0.694   3.475  15.868  0.7669 -1.2032 -1.0134
 7494TIP3    H243898   0.613   3.347  15.871 -0.8742 -0.2296  2.2283
 7495TIP3   OH243899   4.851   4.453  10.471 -0.8996 -0.1519  0.5124
 7495TIP3    H143900   4.763   4.414  10.468 -1.0815  0.3076 -0.6631
 7495TIP3    H243901   4.898   4.400  10.536 -2.1184 -0.2251  1.3767
 7496TIP3   OH243902   2.370   4.979  12.081 -0.3780  0.1042 -0.3584
 7496TIP3    H143903   2.313   4.910  12.114 -0.7760 -1.2608 -3.4770
 7496TIP3    H243904   2.459   4.942  12.087 -0.3035  0.4025  0.3911
 7497TIP3   OH243905   1.696   3.748   1.882 -0.2349  0.2759 -0.3804
 7497TIP3    H143906   1.717   3.667   1.836  0.0491  0.6217 -0.8702
 7497TIP3    H243907   1.769   3.760   1.943 -0.3016  0.1381 -0.2734
 7498TIP3   OH243908   0.393   2.454   0.515  0.5274  0.0646 -0.5618
 7498TIP3    H143909   0.445   2.390   0.563  0.3838  1.1298  1.0980
 7498TIP3    H243910   0.305   2.444   0.550  0.5660  1.3598 -0.0270
 7499TIP3   OH243911   5.897   1.913   2.656 -0.0379 -0.9943  0.0862
 7499TIP3    H143912   5.845   1.888   2.579 -0.8549 -0.2449  0.3681
 7499TIP3    H243913   5.921   1.831   2.697 -0.6945 -1.3787 -0.2737
 7500TIP3   OH243914   3.755   2.457  13.838 -0.1242 -0.4229  0.7916
 7500TIP3    H143915   3.782   2.496  13.755  1.6664 -0.0817  1.4855
 7500TIP3    H243916   3.727   2.531  13.891  0.0219 -0.4872  0.9562
 7501TIP3   OH243917   0.297   2.989  16.989  0.6232 -0.1318  0.6837
 7501TIP3    H143918   0.356   3.044  17.041 -1.5613  0.8484  2.2894
 7501TIP3    H243919   0.236   3.051  16.950  2.5188 -0.7178 -3.8750
 7502TIP3   OH243920   6.674   6.463  13.602  0.0913 -0.3869  0.2163
 7502TIP3    H143921   6.609   6.402  13.566 -0.9512  2.0895 -2.5466
 7502TIP3    H243922   6.622   6.536  13.635  1.3915  0.9636 -0.6190
 7503TIP3   OH243923   5.856   4.265   3.131  0.1226  0.3113 -0.4996
 7503TIP3    H143924   5.818   4.188   3.088 -0.9447 -1.8646  3.6669
 7503TIP3    H243925   5.944   4.273   3.094 -0.0097 -2.4667 -1.6981
 7504TIP3   OH243926   4.545   2.531   3.110  0.0196 -0.2532 -0.6030
 7504TIP3    H143927   4.563   2.506   3.200 -1.9602 -0.1992 -0.1529
 7504TIP3    H243928   4.450   2.526   3.102  0.0223  1.2270 -2.2455
 7505TIP3   OH243929   3.165   3.227   2.104  0.5192  0.5209  0.1751
 7505TIP3    H143930   3.236   3.189   2.052 -0.0746 -0.5400  0.1044
 7505TIP3    H243931   3.166   3.175   2.185  0.5651  1.2669  0.6568
 7506TIP3   OH243932   3.637   3.836   6.116  0.1664  0.5126 -0.0605
 7506TIP3    H143933   3.640   3.740   6.111 -0.7266  0.5172 -1.2565
 7506TIP3    H243934   3.714   3.860   6.167  1.8516 -0.7257 -1.8783
 7507TIP3   OH243935   5.909   1.814   6.875 -0.6629 -0.0692 -0.9783
 7507TIP3    H143936   5.823   1.820   6.917  0.0473  0.9688  0.4009
 7507TIP3    H243937   5.916   1.723   6.848 -1.0323 -0.9017  1.4874
 7508TIP3   OH243938   5.861   6.239  15.835 -0.2235  0.2036  0.0630
 7508TIP3    H143939   5.868   6.284  15.919 -0.7521 -0.1353  0.2912
 7508TIP3    H243940   5.851   6.310  15.771  1.3096  0.5361  0.1332
 7509TIP3   OH243941   0.059   4.713  11.650  0.3619  0.6057  0.2884
 7509TIP3    H143942   0.022   4.730  11.737 -1.2217 -1.3965  0.0811
 7509TIP3    H243943   0.127   4.646  11.666 -1.5197 -1.5484 -0.1820
 7510TIP3   OH243944   1.245   3.888  14.057  0.3955  0.0752  0.7998
 7510TIP3    H143945   1.338   3.909  14.069  0.5743  0.4609 -0.9338
 7510TIP3    H243946   1.199   3.969  14.079  0.5546  0.1827  0.7405
 7511TIP3   OH243947   1.507   2.122  14.571 -0.0134  0.3054  0.2461
 7511TIP3    H143948   1.486   2.086  14.657 -0.8355 -1.0163 -0.4826
 7511TIP3    H243949   1.603   2.120  14.567  0.0176 -3.1590 -0.2334
 7512TIP3   OH243950   5.862   0.552  11.266 -0.2895 -0.1884 -0.0100
 7512TIP3    H143951   5.800   0.564  11.194  0.6138 -0.4800 -0.8502
 7512TIP3    H243952   5.910   0.635  11.270 -0.3115 -0.1874  0.2406
 7513TIP3   OH243953   3.773   6.657   0.451  0.1477  0.1816 -0.1031
 7513TIP3    H143954   3.712   6.590   0.482  2.3144 -1.0042  1.9112
 7513TIP3    H243955   3.740   6.739   0.487  0.1505 -0.5592  1.6435
 7514TIP3   OH243956   5.345   1.208  14.108  0.0189 -0.0309  0.5063
 7514TIP3    H143957   5.427   1.160  14.095  0.2500 -0.1570  2.1363
 7514TIP3    H243958   5.364   1.267  14.181 -1.0624  0.6434  0.2606
 7515TIP3   OH243959   5.759   1.532   4.888  0.4377  0.4045  0.1180
 7515TIP3    H143960   5.726   1.547   4.977 -0.4206 -0.7928  0.0154
 7515TIP3    H243961   5.818   1.457   4.896 -1.5086 -1.2855 -0.6952
 7516TIP3   OH243962   5.007   3.388  15.835  0.0449  0.3159 -0.2073
 7516TIP3    H143963   5.023   3.422  15.923 -1.1439  1.5798 -0.4541
 7516TIP3    H243964   5.043   3.454  15.776 -1.2830  0.6437 -0.6806
 7517TIP3   OH243965   1.656   1.288  12.155  0.2210  0.3215  0.2568
 7517TIP3    H143966   1.590   1.306  12.221 -1.5150 -0.7765 -1.0946
 7517TIP3    H243967   1.664   1.370  12.106 -0.7678  0.2312 -0.0788
 7518TIP3   OH243968   5.339   3.915  14.901 -0.2856 -0.1037 -0.2350
 7518TIP3    H143969   5.419   3.887  14.855  0.6017  2.5076 -0.4439
 7518TIP3    H243970   5.321   4.002  14.866 -3.3245 -0.6170 -0.2396
 7519TIP3   OH243971   1.919   2.069   5.022 -0.7631  0.3984 -0.5577
 7519TIP3    H143972   1.845   2.025   4.980 -1.2373  0.4621  0.1869
 7519TIP3    H243973   1.942   2.011   5.095 -1.2540  1.2494  0.3028
 7520TIP3   OH243974   3.544   3.587   1.142  0.3857 -0.1259  0.0407
 7520TIP3    H143975   3.558   3.529   1.067  0.3284 -0.7529  0.5065
 7520TIP3    H243976   3.623   3.642   1.145 -0.2561  0.9708 -1.3855
 7521TIP3   OH243977   2.372   2.604  13.389 -0.1806  0.5113 -0.3370
 7521TIP3    H143978   2.351   2.655  13.311 -0.2594  0.5204 -0.3103
 7521TIP3    H243979   2.288   2.570  13.419 -0.1357  0.4098 -0.3242
 7522TIP3   OH243980   5.373   5.224  13.764  0.6957 -0.1730 -0.0101
 7522TIP3    H143981   5.458   5.260  13.735  0.0661  0.5731 -1.0102
 7522TIP3    H243982   5.309   5.266  13.706 -0.5360  0.5613  1.8007
 7523TIP3   OH243983   5.138   3.384   3.230  1.2173  1.1366  0.1900
 7523TIP3    H143984   5.113   3.297   3.262  0.0338  1.8425  1.3172
 7523TIP3    H243985   5.174   3.369   3.143 -1.4127 -0.2348 -0.7772
 7524TIP3   OH243986   2.381   4.586   2.300 -0.3732 -0.0214 -0.6290
 7524TIP3    H143987   2.420   4.594   2.387 -0.6076 -1.6202 -0.3319
 7524TIP3    H243988   2.455   4.586   2.240 -0.0420 -0.8586 -0.2431
 7525TIP3   OH243989   5.132   1.784   0.452  0.1397 -0.0085 -0.0120
 7525TIP3    H143990   5.159   1.874   0.467 -0.7556  0.6659 -2.0765
 7525TIP3    H243991   5.111   1.750   0.539  4.7422  0.2614  1.4680
 7526TIP3   OH243992   3.399   0.643  12.499  0.8940 -0.0979 -0.5968
 7526TIP3    H143993   3.400   0.708  12.429  2.4454  0.3948 -0.1468
 7526TIP3    H243994   3.485   0.650  12.540  0.2662 -0.8522  0.9306
 7527TIP3   OH243995   2.644   4.966  17.232  0.3748  0.3463  0.0482
 7527TIP3    H143996   2.732   4.928  17.224  0.3844  0.5966 -1.3640
 7527TIP3    H243997   2.604   4.919  17.304  0.9466 -1.2391 -0.6224
 7528TIP3   OH243998   4.821   3.515  17.127  0.0585 -0.4353 -0.2484
 7528TIP3    H143999   4.889   3.532  17.193 -0.7214 -0.7323  0.6558
 7528TIP3    H244000   4.834   3.583  17.061  1.2992 -0.5472 -0.1539
 7529TIP3   OH244001   2.507   0.995  15.521 -0.1970 -0.2022  0.0063
 7529TIP3    H144002   2.586   1.039  15.553 -0.2968 -0.9458  1.3467
 7529TIP3    H244003   2.538   0.940  15.448  0.2435  0.6415 -0.4604
 7530TIP3   OH244004   1.260   1.232  12.308  0.6613 -0.3653  0.8394
 7530TIP3    H144005   1.327   1.300  12.306 -0.3348  0.6443  0.5676
 7530TIP3    H244006   1.295   1.162  12.253  0.8180  0.8152 -0.6313
 7531TIP3   OH244007   2.892   4.624   6.204  0.1255  0.8086 -0.3533
 7531TIP3    H144008   2.890   4.548   6.146  0.1800  0.0146  0.6718
 7531TIP3    H244009   2.897   4.588   6.292  0.1785  2.0022  0.1557
 7532TIP3   OH244010   4.074   4.215  14.824  0.0897  0.2574 -0.3603
 7532TIP3    H144011   4.165   4.244  14.831 -0.0154  0.4237  0.3875
 7532TIP3    H244012   4.080   4.119  14.822  0.2429  0.2383  0.4779
 7533TIP3   OH244013   0.382   0.203  11.511 -0.0819 -0.0642 -0.2135
 7533TIP3    H144014   0.385   0.282  11.565 -1.3631 -1.0600  1.4641
 7533TIP3    H244015   0.346   0.231  11.427  0.8483  1.3523 -0.1581
 7534TIP3   OH244016   5.888   4.206   4.409  0.5756 -0.1344 -0.1058
 7534TIP3    H144017   5.801   4.235   4.437  1.2256 -1.2624  3.5221
 7534TIP3    H244018   5.931   4.286   4.379 -0.9587  0.8306  0.1395
 7535TIP3   OH244019   0.805   0.783  15.992 -0.2255 -0.2916 -0.3515
 7535TIP3    H144020   0.757   0.845  16.047 -0.4885  0.3378 -1.2682
 7535TIP3    H244021   0.748   0.707  15.987  0.0613 -0.6048  0.7105
 7536TIP3   OH244022   0.258   3.362   4.486 -0.0170  0.6599 -0.0878
 7536TIP3    H144023   0.185   3.406   4.442 -0.2396 -0.3741 -0.8214
 7536TIP3    H244024   0.216   3.305   4.551  0.2692  1.5686  0.9201
 7537TIP3   OH244025   2.106   2.001   5.698 -0.4124  0.7332 -0.2061
 7537TIP3    H144026   2.095   2.090   5.732  0.3986  0.1644  1.7349
 7537TIP3    H244027   2.093   1.945   5.775 -1.9253 -0.9134 -1.5908
 7538TIP3   OH244028   0.624   2.067   2.631 -0.0869  0.2804 -0.0176
 7538TIP3    H144029   0.648   2.155   2.661  0.1129  0.5503 -0.9316
 7538TIP3    H244030   0.654   2.064   2.540  1.9410 -1.5241  0.6310
 7539TIP3   OH244031   6.327   3.714  14.822 -0.1681 -0.3040 -0.7519
 7539TIP3    H144032   6.251   3.711  14.763 -0.6092 -0.2057 -0.2005
 7539TIP3    H244033   6.359   3.804  14.816  0.2676 -0.4938 -1.4240
 7540TIP3   OH244034   5.146   0.459  12.436 -0.4380  0.3165  0.2823
 7540TIP3    H144035   5.104   0.513  12.503  0.3679  0.6133  0.5486
 7540TIP3    H244036   5.117   0.498  12.353  0.5667  1.4997  0.4750
 7541TIP3   OH244037   4.600   3.384   0.707 -0.0792  0.2338 -0.1112
 7541TIP3    H144038   4.517   3.428   0.690 -1.0996 -2.7087 -4.1638
 7541TIP3    H244039   4.586   3.336   0.788 -1.1957  2.0897  0.8552
 7542TIP3   OH244040   0.963   1.837  15.797  0.9699 -0.1983 -0.0080
 7542TIP3    H144041   0.946   1.784  15.875  3.7305 -0.0851  0.7704
 7542TIP3    H244042   0.900   1.908  15.802  0.0133 -1.0927  1.2099
 7543TIP3   OH244043   1.246   0.075   1.289 -1.0046 -0.1341 -0.0627
 7543TIP3    H144044   1.189   0.024   1.232 -0.1669 -2.3758  0.9825
 7543TIP3    H244045   1.328   0.083   1.240 -0.4111 -1.7346  0.6146
 7544TIP3   OH244046   5.919   6.259  16.689 -0.3779 -0.1183  0.6158
 7544TIP3    H144047   5.898   6.349  16.664 -0.6464  0.8807  3.9104
 7544TIP3    H244048   5.993   6.236  16.633  0.7159  2.7662  0.6707
 7545TIP3   OH244049   6.457   3.130   2.153 -0.2286 -0.6819  0.2086
 7545TIP3    H144050   6.497   3.103   2.070 -0.0089 -1.2154  0.4886
 7545TIP3    H244051   6.411   3.211   2.131  2.6576  1.1535  0.2775
 7546TIP3   OH244052   3.875   5.431   3.170  0.1368  0.1120 -0.6270
 7546TIP3    H144053   3.879   5.420   3.265  0.8566  0.2473 -0.6418
 7546TIP3    H244054   3.878   5.526   3.157  1.0604  0.0618 -0.8262
 7547TIP3   OH244055   1.723   2.617   5.174  0.3377 -0.6910  0.4540
 7547TIP3    H144056   1.630   2.599   5.158  0.1007  0.6541  0.1986
 7547TIP3    H244057   1.765   2.531   5.171 -0.9084 -1.3291  0.6584
 7548TIP3   OH244058   2.161   2.873   5.269  0.0236  0.1853  0.0484
 7548TIP3    H144059   2.166   2.778   5.274 -1.2926  0.1329  0.9492
 7548TIP3    H244060   2.100   2.890   5.198 -1.1669  0.2843  1.0632
 7549TIP3   OH244061   6.156   1.129   0.690  0.0580  0.4799  0.2971
 7549TIP3    H144062   6.158   1.213   0.644 -1.4043  0.7462  0.6626
 7549TIP3    H244063   6.097   1.075   0.638  0.8448 -0.2809  0.1684
 7550TIP3   OH244064   0.636   5.438  17.270  0.1229  0.1441 -0.0361
 7550TIP3    H144065   0.667   5.518  17.313 -1.3614  0.3346  0.7318
 7550TIP3    H244066   0.623   5.375  17.341 -0.2832 -0.2427 -0.4450
 7551TIP3   OH244067   0.329   0.620   3.205 -0.3736  0.0926  0.1755
 7551TIP3    H144068   0.391   0.676   3.158  0.4677 -0.9786 -0.0404
 7551TIP3    H244069   0.320   0.661   3.291  0.5777  0.3351  0.1735
 7552TIP3   OH244070   2.813   6.391   0.758  0.0598  0.5636 -0.1429
 7552TIP3    H144071   2.880   6.336   0.720 -1.0712 -1.3653  0.5138
 7552TIP3    H244072   2.828   6.386   0.853 -0.6706  0.5328 -0.0196
 7553TIP3   OH244073   4.635   6.362   0.072 -0.2141 -0.1254  0.2687
 7553TIP3    H144074   4.644   6.271   0.097  1.0223 -0.5977 -1.7072
 7553TIP3    H244075   4.723   6.398   0.077 -0.7279  1.0701  1.3135
 7554TIP3   OH244076   6.259   2.508   4.567 -0.3894 -0.2595  0.5098
 7554TIP3    H144077   6.235   2.536   4.479 -1.3242 -1.7243  0.2643
 7554TIP3    H244078   6.179   2.516   4.618 -0.6919 -2.3329  0.4401
 7555TIP3   OH244079   4.768   6.127  16.532  0.0312 -0.6164  0.4646
 7555TIP3    H144080   4.811   6.063  16.587  1.2319 -0.6706 -0.4876
 7555TIP3    H244081   4.680   6.092  16.517 -0.0087 -1.0200  1.6008
 7556TIP3   OH244082   2.093   0.528   2.675 -0.4349 -0.2736  0.4006
 7556TIP3    H144083   2.104   0.474   2.597  0.3829 -0.9269  0.9586
 7556TIP3    H244084   2.090   0.466   2.748 -0.5589  0.3665  0.9500
 7557TIP3   OH244085   6.429   1.350   3.260 -0.0923  0.3554 -0.3858
 7557TIP3    H144086   6.371   1.302   3.200 -0.8910  1.9509 -0.9338
 7557TIP3    H244087   6.514   1.349   3.217  0.8650 -3.4239  1.1644
 7558TIP3   OH244088   0.746   2.880  16.358 -0.5978  0.5563 -0.3993
 7558TIP3    H144089   0.815   2.944  16.340  1.5297 -0.7396  2.4246
 7558TIP3    H244090   0.674   2.933  16.393  0.6868  1.5550  0.8392
 7559TIP3   OH244091   4.255   6.043   0.393 -0.1932  0.2137 -0.3117
 7559TIP3    H144092   4.267   6.107   0.464  0.6358 -0.2527 -0.0128
 7559TIP3    H244093   4.239   6.096   0.315  0.5947  0.8021 -0.0909
 7560TIP3   OH244094   4.585   0.646  13.967 -0.4284  0.1166  0.1946
 7560TIP3    H144095   4.673   0.609  13.973 -0.3590  0.4275  1.5063
 7560TIP3    H244096   4.527   0.570  13.975 -0.2806  0.1551  2.3747
 7561TIP3   OH244097   6.172   5.518   4.946  0.2529 -0.1667  0.4170
 7561TIP3    H144098   6.132   5.442   4.904  0.7543 -0.3451  0.2543
 7561TIP3    H244099   6.240   5.547   4.885  1.3649 -0.7643  1.3394
 7562TIP3   OH244100   4.168   3.413   5.473  0.3694  0.2502  0.3646
 7562TIP3    H144101   4.149   3.368   5.390  3.2803  1.0969 -0.9197
 7562TIP3    H244102   4.257   3.385   5.494  1.7429  4.0261  0.3541
 7563TIP3   OH244103   1.968   2.499   0.696  0.0418  0.1702 -0.0953
 7563TIP3    H144104   1.956   2.504   0.601 -0.8895 -0.9624 -0.0652
 7563TIP3    H244105   1.886   2.535   0.732  0.0772 -0.0986  0.2614
 7564TIP3   OH244106   0.400   3.346   3.182 -0.5765  0.4599  0.0954
 7564TIP3    H144107   0.363   3.419   3.232  1.5358  1.2135  0.6725
 7564TIP3    H244108   0.480   3.324   3.229  1.1985  0.7777 -2.5914
 7565TIP3   OH244109   2.483   6.126  14.699  0.2355  0.0521 -0.0783
 7565TIP3    H144110   2.398   6.130  14.655  0.1736  1.0899  0.1071
 7565TIP3    H244111   2.519   6.214  14.689  0.2662  0.2966  1.8421
 7566TIP3   OH244112   5.324   1.314  17.305 -0.1037 -0.1997  0.2852
 7566TIP3    H144113   5.293   1.252  17.239  0.7565 -0.4102  0.0642
 7566TIP3    H244114   5.250   1.324  17.365 -0.1365 -1.7812  0.5661
 7567TIP3   OH244115   6.239   0.078  14.817 -0.0716 -0.2859 -0.1689
 7567TIP3    H144116   6.255   0.173  14.817  1.4493 -0.4736  1.9224
 7567TIP3    H244117   6.326   0.040  14.829 -0.8037 -1.9038  0.1479
 7568TIP3   OH244118   0.607   4.716   1.741 -0.6477 -0.0004  0.0705
 7568TIP3    H144119   0.616   4.795   1.687 -1.3066  0.2468  0.3220
 7568TIP3    H244120   0.513   4.707   1.757 -0.4733 -0.1106  1.1192
 7569TIP3   OH244121   3.061   0.671   2.459  0.2057  0.3748 -0.7589
 7569TIP3    H144122   3.056   0.682   2.554 -0.0810  1.7042 -0.9095
 7569TIP3    H244123   3.118   0.743   2.430  0.0657  0.1418 -1.6199
 7570TIP3   OH244124   4.719   0.266   0.376 -0.0006 -0.3366 -0.2064
 7570TIP3    H144125   4.811   0.248   0.398  0.4718 -1.5903 -2.7504
 7570TIP3    H244126   4.713   0.362   0.379  1.4222 -0.2219 -0.0325
 7571TIP3   OH244127   5.987   1.923  13.373  0.1737 -1.0610  0.7640
 7571TIP3    H144128   5.929   1.977  13.319 -1.4854 -1.8888  1.6425
 7571TIP3    H244129   5.949   1.927  13.460  0.1458 -3.3586  0.9342
 7572TIP3   OH244130   6.094   5.989   1.355  0.0638 -0.3945  0.1811
 7572TIP3    H144131   6.164   6.055   1.357 -0.7025  0.4172  0.7891
 7572TIP3    H244132   6.141   5.905   1.358  1.0774  0.0927 -1.1144
 7573TIP3   OH244133   5.800   3.405   6.615 -0.3029 -0.0891 -0.1277
 7573TIP3    H144134   5.735   3.347   6.655 -2.8732  1.1464 -2.2046
 7573TIP3    H244135   5.854   3.346   6.560 -2.5765 -0.6941 -1.8626
 7574TIP3   OH244136   6.089   6.631   1.366 -0.1517  0.1397  0.2955
 7574TIP3    H144137   6.120   6.706   1.417  1.7090 -0.3494 -0.0270
 7574TIP3    H244138   6.019   6.667   1.311  1.7528  2.0859 -1.0250
 7575TIP3   OH244139   0.134   1.710  17.248 -0.2133 -0.5741 -0.0935
 7575TIP3    H144140   0.060   1.768  17.267  1.2593  1.3062  0.1577
 7575TIP3    H244141   0.120   1.634  17.305 -1.2048  0.4001  0.9988
 7576TIP3   OH244142   0.365   0.899  13.339 -0.2531  0.0709 -0.7089
 7576TIP3    H144143   0.329   0.940  13.418  1.3681 -0.5305  0.3807
 7576TIP3    H244144   0.340   0.959  13.268 -1.8702  0.5445  0.2133
 7577TIP3   OH244145   5.203   3.836   3.344 -0.2136 -0.3053 -0.6582
 7577TIP3    H144146   5.270   3.901   3.362 -1.4135  1.0543 -0.9240
 7577TIP3    H244147   5.242   3.779   3.278  1.0744 -0.2398  0.0150
 7578TIP3   OH244148   5.458   4.430  14.417  0.1044 -0.1904 -0.3604
 7578TIP3    H144149   5.538   4.377  14.421 -0.3939 -0.9331 -0.1698
 7578TIP3    H244150   5.390   4.369  14.389 -0.0646  0.8110 -2.3367
 7579TIP3   OH244151   4.153   0.199   1.032  0.1544  0.6012 -0.3716
 7579TIP3    H144152   4.190   0.182   1.118 -1.1653 -1.0861 -0.0701
 7579TIP3    H244153   4.205   0.145   0.973  0.0332  0.4729 -0.3646
 7580TIP3   OH244154   3.768   1.656  16.556 -0.7404  0.0991 -0.6156
 7580TIP3    H144155   3.682   1.614  16.557 -0.0446 -1.4779  1.6075
 7580TIP3    H244156   3.820   1.603  16.495 -0.7045 -0.4484 -0.1193
 7581TIP3   OH244157   2.389   3.235  12.586 -0.0798 -0.3388 -0.6010
 7581TIP3    H144158   2.340   3.253  12.506 -0.4501  0.3031 -0.2420
 7581TIP3    H244159   2.469   3.287  12.577  0.1223 -0.6795 -0.7850
 7582TIP3   OH244160   0.571   0.305   0.380  0.3041 -0.2835 -0.1232
 7582TIP3    H144161   0.540   0.364   0.312 -1.1969 -2.3367 -1.3592
 7582TIP3    H244162   0.667   0.310   0.375  0.2185  0.3283 -1.7499
 7583TIP3   OH244163   4.683   3.594  11.769 -0.3372 -0.3385 -0.0144
 7583TIP3    H144164   4.689   3.681  11.808  0.7323  0.4484 -1.8131
 7583TIP3    H244165   4.619   3.602  11.699  0.6273 -0.6717 -0.9552
 7584TIP3   OH244166   1.226   0.760  15.100  0.1786 -0.6352  0.1029
 7584TIP3    H144167   1.167   0.795  15.167 -0.8806 -0.4180 -0.9090
 7584TIP3    H244168   1.249   0.835  15.046 -0.0205 -1.0225 -0.5355
 7585TIP3   OH244169   1.924   3.028  14.568 -0.0226 -0.2566 -0.0898
 7585TIP3    H144170   1.855   3.045  14.503  1.1309  1.0516 -1.0382
 7585TIP3    H244171   1.951   2.938  14.551  0.6890  0.2479 -1.9124
 7586TIP3   OH244172   6.384   0.200  17.392 -0.0043 -0.0290  0.2020
 7586TIP3    H144173   6.436   0.216  17.471  0.7917  1.1486 -0.5343
 7586TIP3    H244174   6.436   0.237  17.321 -1.4613  0.4143 -0.6777
 7587TIP3   OH244175   1.831   2.540  11.955 -0.2612 -0.3053  0.5261
 7587TIP3    H144176   1.828   2.562  11.862  0.1888 -1.4035  0.2376
 7587TIP3    H244177   1.746   2.500  11.973  0.0014 -0.9506  0.3549
 7588TIP3   OH244178   1.119   4.192   5.817 -0.1797 -0.7973 -0.0835
 7588TIP3    H144179   1.068   4.177   5.737  0.2646 -1.4672 -0.2451
 7588TIP3    H244180   1.060   4.166   5.888 -1.3126  1.6514 -0.0376
 7589TIP3   OH244181   6.136   0.739  12.751  0.3337  0.4597 -0.4044
 7589TIP3    H144182   6.180   0.732  12.667 -2.7593 -1.6824 -2.0771
 7589TIP3    H244183   6.187   0.683  12.810  0.4954 -1.1390 -1.9607
 7590TIP3   OH244184   0.493   5.973   1.955 -0.0996 -0.8934 -0.4681
 7590TIP3    H144185   0.411   5.976   1.907 -0.1266  1.2779 -0.3662
 7590TIP3    H244186   0.480   5.903   2.020 -1.7311 -0.7889 -0.6440
 7591TIP3   OH244187   1.059   4.471  14.273  0.0055 -0.2525 -0.3950
 7591TIP3    H144188   0.981   4.525  14.279 -0.9041 -1.6751  1.7553
 7591TIP3    H244189   1.029   4.383  14.296  2.7745 -0.2313  4.8019
 7592TIP3   OH244190   0.699   0.524  14.093  0.3699 -0.4406 -0.2504
 7592TIP3    H144191   0.793   0.513  14.078  0.1990 -1.7731 -0.4341
 7592TIP3    H244192   0.663   0.436  14.085 -1.1561  0.2772 -1.9034
 7593TIP3   OH244193   3.416   4.795   3.995  0.2875  0.0798 -0.8048
 7593TIP3    H144194   3.355   4.830   3.930 -0.9119 -1.7910 -0.7834
 7593TIP3    H244195   3.390   4.703   4.004  1.5651 -0.1482  1.0345
 7594TIP3   OH244196   1.596   0.133   3.037  0.4945 -0.3208 -0.0479
 7594TIP3    H144197   1.548   0.059   2.999 -0.1929 -0.2376  0.6403
 7594TIP3    H244198   1.684   0.125   3.000  0.0466 -0.6534 -1.0967
 7595TIP3   OH244199   5.305   3.480  13.464  0.0346 -0.2509  0.4237
 7595TIP3    H144200   5.220   3.442  13.444 -0.4148  1.2530 -0.7135
 7595TIP3    H244201   5.294   3.523  13.549  0.1788 -1.5045  1.0936
 7596TIP3   OH244202   6.123   0.356  11.353 -0.2441 -0.2297 -0.2008
 7596TIP3    H144203   6.149   0.264  11.361 -0.3703 -0.3969 -1.5499
 7596TIP3    H244204   6.049   0.365  11.413 -0.0672 -0.9380  0.1360
 7597TIP3   OH244205   4.869   4.544   0.143 -0.5230  0.3437 -1.1289
 7597TIP3    H144206   4.915   4.477   0.092  2.2476  0.7703  0.5845
 7597TIP3    H244207   4.913   4.543   0.228 -2.4751  2.2272 -0.0053
 7598TIP3   OH244208   2.478   2.564   2.916 -0.0958  0.2745  0.0480
 7598TIP3    H144209   2.509   2.537   2.830 -1.5962  1.2005 -0.8287
 7598TIP3    H244210   2.537   2.635   2.942 -1.7545  2.5523 -1.9473
 7599TIP3   OH244211   5.330   4.767   1.665  0.2189  0.5853  0.0878
 7599TIP3    H144212   5.335   4.673   1.677 -2.2253  0.2310 -1.0439
 7599TIP3    H244213   5.404   4.788   1.608 -0.4750 -1.0686 -1.5427
 7600TIP3   OH244214   1.372   5.016   5.728 -0.5106 -0.2638  0.3488
 7600TIP3    H144215   1.416   4.969   5.799 -2.0591 -1.8651  0.3198
 7600TIP3    H244216   1.323   4.948   5.681 -0.3468  0.9135 -1.6499
 7601TIP3   OH244217   1.961   1.814  12.567 -0.5835 -0.4813 -0.4891
 7601TIP3    H144218   1.887   1.763  12.536 -0.2639 -0.8863 -0.6040
 7601TIP3    H244219   1.955   1.810  12.663 -0.7880 -0.3908 -0.4974
 7602TIP3   OH244220   6.189   4.963  17.035  0.5955 -0.0553 -0.0722
 7602TIP3    H144221   6.263   4.920  16.990 -0.9652 -1.5627 -1.3364
 7602TIP3    H244222   6.130   4.989  16.965  0.2300  1.8539  0.8693
 7603TIP3   OH244223   3.290   2.510  12.582  0.3815 -0.2926 -0.6478
 7603TIP3    H144224   3.251   2.582  12.531  1.3165  0.8869  0.2548
 7603TIP3    H244225   3.377   2.500  12.544  0.4000 -0.6851 -0.4967
 7604TIP3   OH244226   3.236   0.250   4.071  0.2103  0.3089 -0.0666
 7604TIP3    H144227   3.308   0.312   4.064 -0.0994  0.6849  0.0623
 7604TIP3    H244228   3.207   0.237   3.981  3.4507 -3.4815 -0.8599
 7605TIP3   OH244229   0.427   2.469  10.887  0.1712  0.3062 -0.6445
 7605TIP3    H144230   0.416   2.525  10.810  0.3532  0.5433 -0.4992
 7605TIP3    H244231   0.484   2.398  10.857 -0.3469 -0.0029 -0.9275
 7606TIP3   OH244232   6.251   4.324  15.976  0.3531 -0.3966  0.3336
 7606TIP3    H144233   6.174   4.372  15.948  0.9436 -0.4633 -1.5918
 7606TIP3    H244234   6.242   4.238  15.935 -0.6179 -1.9996  3.5891
 7607TIP3   OH244235   5.987   0.268  13.543 -0.3761 -0.7964 -0.0789
 7607TIP3    H144236   5.982   0.339  13.479 -1.4139 -1.8277 -1.2168
 7607TIP3    H244237   5.949   0.303  13.623 -0.8627 -0.0619 -0.6218
 7608TIP3   OH244238   2.895   4.949  11.120  0.6274 -0.5332  0.3046
 7608TIP3    H144239   2.900   5.036  11.161 -2.7424 -0.1088  0.1623
 7608TIP3    H244240   2.841   4.963  11.042  0.1643 -2.7231  0.1646
 7609TIP3   OH244241   4.286   1.111  15.734  0.2291 -0.4408 -0.0020
 7609TIP3    H144242   4.218   1.048  15.713  0.1359 -0.2354 -0.3189
 7609TIP3    H244243   4.266   1.188  15.681  0.1213  0.0035  0.6637
 7610TIP3   OH244244   4.005   5.760   2.717 -0.2702  0.8106 -0.3553
 7610TIP3    H144245   3.920   5.759   2.675 -0.3706  2.0386 -0.2168
 7610TIP3    H244246   4.050   5.836   2.679 -0.5613  2.2831  2.0856
 7611TIP3   OH244247   6.075   2.045   5.816  0.2340  0.0314  0.4380
 7611TIP3    H144248   6.142   2.053   5.884 -0.0509 -0.8969  0.8398
 7611TIP3    H244249   6.123   2.050   5.733  0.5111  1.8199  0.6717
 7612TIP3   OH244250   2.165   2.482  15.353  0.0490  0.3111 -0.0012
 7612TIP3    H144251   2.204   2.533  15.424 -0.5674 -2.4767  2.5637
 7612TIP3    H244252   2.238   2.430  15.318 -0.1458 -0.4677  0.6903
 7613TIP3   OH244253   1.209   1.288  16.008  0.4208  0.2057 -0.0497
 7613TIP3    H144254   1.223   1.316  15.918 -1.3694 -2.4756 -1.3112
 7613TIP3    H244255   1.124   1.326  16.032 -0.8037 -1.8570 -0.8640
 7614TIP3   OH244256   2.692   0.334   3.267  0.5911  0.2320 -0.2870
 7614TIP3    H144257   2.678   0.289   3.184 -0.2012 -1.5296  0.7427
 7614TIP3    H244258   2.651   0.277   3.333  1.2536  1.5260  1.3311
 7615TIP3   OH244259   1.546   2.284  13.564 -0.1783  0.3278  0.4367
 7615TIP3    H144260   1.579   2.359  13.613  0.9351  0.8207 -1.0073
 7615TIP3    H244261   1.564   2.305  13.473  1.2433 -2.1843  0.0517
 7616TIP3   OH244262   3.196   4.906  13.181  0.1085 -0.0815 -0.3047
 7616TIP3    H144263   3.147   4.837  13.136 -0.7455  0.1062  0.3110
 7616TIP3    H244264   3.129   4.957  13.227  0.9319 -0.3080  1.2183
 7617TIP3   OH244265   4.587   2.511  15.415  0.1498  0.1448 -0.1221
 7617TIP3    H144266   4.495   2.486  15.424  0.1352  0.8282  1.9465
 7617TIP3    H244267   4.636   2.430  15.431 -0.0459 -0.0112 -0.2981
 7618TIP3   OH244268   6.187   1.776  11.578  0.3440  0.1445 -0.2641
 7618TIP3    H144269   6.276   1.742  11.584  0.5686  0.7668 -0.0636
 7618TIP3    H244270   6.132   1.700  11.600  0.8666  0.0852  0.9106
 7619TIP3   OH244271   4.647   4.214   3.425 -0.6248 -0.2611  0.3607
 7619TIP3    H144272   4.632   4.278   3.495 -0.4427  0.0237  0.1440
 7619TIP3    H244273   4.645   4.129   3.469  2.7382 -0.0088  1.3536
 7620TIP3   OH244274   3.291   4.787  14.979  0.5422 -0.3097  0.5050
 7620TIP3    H144275   3.242   4.737  15.045  1.0963 -1.2457  0.2325
 7620TIP3    H244276   3.335   4.720  14.927  1.0892  0.4692 -0.0542
 7621TIP3   OH244277   4.147   4.479  11.557  0.0927 -0.5860 -0.0842
 7621TIP3    H144278   4.105   4.457  11.639 -1.7433  3.8652  0.4376
 7621TIP3    H244279   4.216   4.541  11.581  0.2387 -0.0323 -1.7745
 7622TIP3   OH244280   1.361   0.364   3.921  0.5322  0.2053  0.1442
 7622TIP3    H144281   1.310   0.365   4.002 -0.6778 -2.0774 -0.5152
 7622TIP3    H244282   1.451   0.348   3.950  0.3450  0.7715  1.1022
 7623TIP3   OH244283   2.140   0.137   2.951  0.3497  0.0156 -0.0622
 7623TIP3    H144284   2.210   0.126   3.016 -0.0364  0.2279  0.3984
 7623TIP3    H244285   2.113   0.048   2.929  1.2724 -0.0869 -0.8062
 7624TIP3   OH244286   1.565   0.081  13.941 -0.0543 -0.7538 -0.0802
 7624TIP3    H144287   1.518   0.154  13.902 -0.5832 -1.2933 -0.4804
 7624TIP3    H244288   1.653   0.085  13.903  0.5718  0.8517  1.4281
 7625TIP3   OH244289   5.200   5.794  16.705 -0.0397  0.0532 -0.1086
 7625TIP3    H144290   5.234   5.749  16.628 -0.0376  1.4578 -0.9576
 7625TIP3    H244291   5.256   5.870  16.716 -1.6334  1.3105 -0.3139
 7626TIP3   OH244292   4.591   5.961   4.347  0.5264 -0.1887  0.2445
 7626TIP3    H144293   4.538   5.913   4.282  0.5079 -0.1155  0.2061
 7626TIP3    H244294   4.670   5.908   4.357  1.2249  0.5717 -0.9672
 7627TIP3   OH244295   5.363   0.228  17.591 -0.2112 -0.2502 -0.1204
 7627TIP3    H144296   5.396   0.147  17.552 -0.2307 -0.7406  0.8308
 7627TIP3    H244297   5.392   0.223  17.683  1.0755  1.5195 -0.3770
 7628TIP3   OH244298   0.673   1.902   4.023 -0.0311  0.1095  0.3232
 7628TIP3    H144299   0.767   1.894   4.006 -0.1843  0.0589 -0.5627
 7628TIP3    H244300   0.665   1.894   4.118  0.9273  0.7936  0.4738
 7629TIP3   OH244301   3.447   4.579  16.977  0.1345  0.0386 -0.2991
 7629TIP3    H144302   3.496   4.608  16.900  3.0110  0.4058  1.4822
 7629TIP3    H244303   3.494   4.500  17.006 -0.9648 -0.1701  1.0028
 7630TIP3   OH244304   5.962   5.753  12.315 -0.6065 -0.4318 -0.2777
 7630TIP3    H144305   5.944   5.669  12.357 -0.0571 -1.5959 -2.2492
 7630TIP3    H244306   5.987   5.731  12.226 -2.8631  1.9435 -1.6589
 7631TIP3   OH244307   4.885   2.068   2.117 -0.4825 -0.9333  0.2211
 7631TIP3    H144308   4.846   2.033   2.198 -0.2950 -0.3010  0.5964
 7631TIP3    H244309   4.875   2.163   2.126 -2.1818 -0.9144 -1.3826
 7632TIP3   OH244310   1.389   2.563  13.930 -0.2139  0.3165  0.6148
 7632TIP3    H144311   1.303   2.528  13.908 -0.8852  1.9432  0.4690
 7632TIP3    H244312   1.421   2.507  14.001 -1.3335 -0.4054  0.5657
 7633TIP3   OH244313   3.185   2.777  13.803 -0.2816  0.6074 -0.7940
 7633TIP3    H144314   3.240   2.724  13.861 -1.9049 -0.4590 -0.1914
 7633TIP3    H244315   3.178   2.725  13.723 -2.7279 -0.6740  0.1682
 7634TIP3   OH244316   6.549   3.811   6.441 -0.2652 -0.7443 -0.1192
 7634TIP3    H144317   6.463   3.853   6.443  0.5947  1.0993  0.7061
 7634TIP3    H244318   6.592   3.849   6.365  0.7290  0.3547  0.9515
 7635TIP3   OH244319   4.202   0.702  13.818  0.1915  0.1807 -0.0629
 7635TIP3    H144320   4.118   0.748  13.818  0.3863  0.5791  0.9213
 7635TIP3    H244321   4.263   0.763  13.858  0.6007 -0.6858  0.6911
 7636TIP3   OH244322   2.726   6.263   3.516  0.1191 -0.5514 -0.0105
 7636TIP3    H144323   2.734   6.168   3.516 -0.8396 -0.6439 -0.6971
 7636TIP3    H244324   2.637   6.279   3.547 -0.0737  0.0821 -0.8789
 7637TIP3   OH244325   5.046   0.612  16.364 -0.2697  0.3360 -0.3837
 7637TIP3    H144326   4.966   0.587  16.316 -1.5740 -0.7619  2.1782
 7637TIP3    H244327   5.017   0.680  16.424  1.5868  2.5133 -1.8034
 7638TIP3   OH244328   4.911   5.403  16.004 -0.2452 -0.3253  0.2115
 7638TIP3    H144329   4.881   5.346  15.933  1.8508  0.1945 -1.1651
 7638TIP3    H244330   4.956   5.343  16.064  1.8075 -0.2521 -1.1503
 7639TIP3   OH244331   1.847   5.361  15.760  0.4603 -0.0836  0.4642
 7639TIP3    H144332   1.871   5.269  15.757 -1.2793 -0.5540  0.0180
 7639TIP3    H244333   1.926   5.407  15.730  0.2295 -1.6524 -3.0965
 7640TIP3   OH244334   0.041   3.815   0.141 -0.7122  0.2967  0.0280
 7640TIP3    H144335  -0.037   3.782   0.187 -0.6549  0.2745  0.1098
 7640TIP3    H244336   0.089   3.737   0.115 -0.9832  0.2973 -0.4873
 7641TIP3   OH244337   5.385   0.035  16.765  0.4402  0.6560 -0.1972
 7641TIP3    H144338   5.328  -0.026  16.718 -0.2335 -0.1436  1.5364
 7641TIP3    H244339   5.354   0.122  16.740  2.1864  0.4404 -3.6570
 7642TIP3   OH244340   5.822   4.416  14.682 -0.5273 -0.1937 -0.0169
 7642TIP3    H144341   5.825   4.488  14.619  1.1401  0.3327  0.5939
 7642TIP3    H244342   5.744   4.367  14.660 -0.7533  0.8134 -1.5651
 7643TIP3   OH244343   5.647   2.699  13.750 -0.2875 -0.3712 -0.1920
 7643TIP3    H144344   5.656   2.675  13.657 -0.1153 -0.6244 -0.1092
 7643TIP3    H244345   5.568   2.754  13.753 -1.2879 -1.7511 -0.2226
 7644TIP3   OH244346   4.021   0.190  14.161 -0.4137  0.6267  0.1507
 7644TIP3    H144347   4.021   0.285  14.161 -0.5817  0.6451 -1.2656
 7644TIP3    H244348   4.113   0.166  14.174 -0.4183  0.9677  0.8410
 7645TIP3   OH244349   0.033   4.799  15.274 -0.0811 -0.1206  0.0308
 7645TIP3    H144350   0.068   4.854  15.345 -1.4507 -1.0894  1.5152
 7645TIP3    H244351   0.088   4.820  15.199  1.8288  0.5301  1.5157
 7646TIP3   OH244352   0.236   3.082  16.104  0.2377  0.7977 -0.2500
 7646TIP3    H144353   0.321   3.119  16.079 -0.2279  2.0543 -0.0660
 7646TIP3    H244354   0.173   3.143  16.066 -0.5401  0.9770  1.2952
 7647TIP3   OH244355   1.411   4.066   3.342 -0.1380  0.3092  0.2553
 7647TIP3    H144356   1.397   4.063   3.437  0.0920  2.2919  0.3900
 7647TIP3    H244357   1.494   4.113   3.332  0.2070 -0.5228 -0.9277
 7648TIP3   OH244358   3.116   3.928   5.289  0.2483  0.1450  0.1361
 7648TIP3    H144359   3.042   3.870   5.310  1.3023 -1.7840 -1.0895
 7648TIP3    H244360   3.193   3.880   5.320  1.0183  2.6688  2.5617
 7649TIP3   OH244361   5.500   0.639  14.787 -0.1655 -0.0939 -0.5677
 7649TIP3    H144362   5.417   0.625  14.740 -0.2818 -0.7643 -0.1804
 7649TIP3    H244363   5.486   0.719  14.837 -0.0197  0.6639 -1.7038
 7650TIP3   OH244364   3.113   0.779  12.916  0.0444 -0.0344  0.3974
 7650TIP3    H144365   3.169   0.817  12.984 -2.3593  1.9258  1.4372
 7650TIP3    H244366   3.126   0.836  12.840  0.6759 -0.5824  0.0871
 7651TIP3   OH244367   3.086   0.175  14.149  0.3325 -0.6605  0.0948
 7651TIP3    H144368   3.031   0.097  14.147 -0.7994  0.1081  0.0421
 7651TIP3    H244369   3.044   0.235  14.087 -1.3491  1.5704  3.1384
 7652TIP3   OH244370   1.717   4.312   0.837  0.2675  0.2657 -0.0288
 7652TIP3    H144371   1.663   4.325   0.915 -0.9065  0.0245 -0.7711
 7652TIP3    H244372   1.766   4.393   0.827  0.8850  0.0761  1.2906
 7653TIP3   OH244373   4.141   3.039   5.635  0.2644 -0.0571  0.2570
 7653TIP3    H144374   4.212   3.045   5.698  2.0941  1.0771 -1.7523
 7653TIP3    H244375   4.114   2.947   5.638  1.9060 -0.5570  1.0090
 7654TIP3   OH244376   2.764   2.402  17.301 -0.8050  0.0124  0.1550
 7654TIP3    H144377   2.770   2.453  17.382 -0.8087 -0.3322  0.3776
 7654TIP3    H244378   2.808   2.456  17.235  1.0578 -0.5898  0.8377
 7655TIP3   OH244379   3.870   1.626   3.663 -0.0696 -0.5716  0.7953
 7655TIP3    H144380   3.962   1.616   3.639  0.3344 -0.1706  2.0921
 7655TIP3    H244381   3.858   1.568   3.738 -0.2544  1.0580  2.0911
 7656TIP3   OH244382   6.439   0.434   6.350 -0.1901  0.1634  0.1368
 7656TIP3    H144383   6.465   0.504   6.290 -1.2815  3.5256  3.1867
 7656TIP3    H244384   6.521   0.403   6.388  0.2546  0.4103 -0.6003
 7657TIP3   OH244385   0.985   2.767  12.632  0.1132 -0.4746  0.1772
 7657TIP3    H144386   0.974   2.682  12.590  0.1021  0.8265 -2.6303
 7657TIP3    H244387   0.988   2.830  12.560 -1.4630  2.1122  2.1791
 7658TIP3   OH244388   2.187   5.065   3.594  0.0171 -0.2185  0.5313
 7658TIP3    H144389   2.217   5.065   3.503 -0.4894 -0.6597  0.3612
 7658TIP3    H244390   2.183   4.972   3.619  0.6806 -0.0820  1.1833
 7659TIP3   OH244391   3.371   1.003  17.043  0.2654 -0.7135 -0.2707
 7659TIP3    H144392   3.452   0.956  17.020  0.6053  0.0595 -0.6812
 7659TIP3    H244393   3.340   1.040  16.960  0.0493 -0.1504  0.0553
 7660TIP3   OH244394   5.356   2.989  11.193 -0.0886  0.5615  0.4208
 7660TIP3    H144395   5.290   2.982  11.124  0.5736 -2.2789 -0.0415
 7660TIP3    H244396   5.431   3.030  11.150  0.3645 -1.2937 -0.6445
 7661TIP3   OH244397   4.639   0.631   5.078  0.2820 -0.1162  0.7074
 7661TIP3    H144398   4.578   0.624   5.151 -1.1667  0.8910 -0.3315
 7661TIP3    H244399   4.630   0.549   5.030  1.0749 -0.6874  1.5113
 7662TIP3   OH244400   2.873   5.672   3.482  0.6795 -0.4752  0.6289
 7662TIP3    H144401   2.856   5.599   3.541 -1.1142 -1.5688 -1.1198
 7662TIP3    H244402   2.786   5.706   3.460  1.4570  2.2006  1.3264
 7663TIP3   OH244403   1.883   5.200   3.363 -0.0353  0.1565  0.3645
 7663TIP3    H144404   1.903   5.256   3.439  1.2125 -0.7723  0.7554
 7663TIP3    H244405   1.885   5.111   3.398 -0.6991 -0.2130 -0.5167
 7664TIP3   OH244406   1.036   2.347  14.194  1.2129  0.2243  0.1685
 7664TIP3    H144407   0.986   2.268  14.175  1.3184 -0.5544  2.7684
 7664TIP3    H244408   1.124   2.315  14.216  1.3537  1.0834  0.9298
 7665TIP3   OH244409   2.649   4.150   0.149 -0.4268 -0.0434  0.8731
 7665TIP3    H144410   2.676   4.236   0.180  0.0201 -0.3905  1.4677
 7665TIP3    H244411   2.690   4.088   0.209  0.0309 -0.7234 -0.0980
 7666TIP3   OH244412   4.287   3.415   0.539 -0.3155 -0.5905 -0.2500
 7666TIP3    H144413   4.340   3.415   0.459 -0.5126 -1.4980 -0.3857
 7666TIP3    H244414   4.225   3.344   0.526 -1.0541 -0.0468  0.2528
 7667TIP3   OH244415   6.682   0.546  16.542  0.4206 -0.0279  0.0379
 7667TIP3    H144416   6.752   0.482  16.557 -0.0024 -0.1187  1.9684
 7667TIP3    H244417   6.667   0.584  16.629 -0.7930  1.1754 -0.6737
 7668TIP3   OH244418   4.816   1.129  15.003  0.5370 -0.2688  0.0602
 7668TIP3    H144419   4.886   1.116  14.939 -2.0245 -3.2186 -2.4572
 7668TIP3    H244420   4.758   1.193  14.963 -0.6434 -1.4890 -0.2422
 7669TIP3   OH244421   2.747   1.821   1.216  0.0506  0.7814 -0.5145
 7669TIP3    H144422   2.673   1.778   1.258  0.1700  2.7276  1.9285
 7669TIP3    H244423   2.768   1.766   1.141 -0.2215 -3.0261  1.9326
 7670TIP3   OH244424   4.508   6.560   4.106 -0.1228  0.1917  0.4928
 7670TIP3    H144425   4.513   6.484   4.048  0.8278  0.1377  0.6354
 7670TIP3    H244426   4.488   6.633   4.048 -3.1857 -0.4287  0.5852
 7671TIP3   OH244427   0.257   5.590  11.449 -0.0343  0.6333  0.0210
 7671TIP3    H144428   0.224   5.658  11.391  0.4200  0.2596 -0.6848
 7671TIP3    H244429   0.338   5.560  11.408 -0.7651 -1.0790 -0.2787
 7672TIP3   OH244430   5.153   3.422   0.625 -0.2411 -0.1369 -0.0397
 7672TIP3    H144431   5.101   3.358   0.576 -1.2030  0.3170  0.3487
 7672TIP3    H244432   5.098   3.501   0.626  0.5029  0.3803  0.3165
 7673TIP3   OH244433   0.828   3.087  16.909  0.3127  0.4806  0.0164
 7673TIP3    H144434   0.753   3.147  16.910 -0.0183  0.0955  1.4070
 7673TIP3    H244435   0.901   3.139  16.941  0.2254  0.4080  0.3491
 7674TIP3   OH244436   1.372   1.062   2.231  0.1095  0.9232 -0.7709
 7674TIP3    H144437   1.428   1.137   2.252 -0.8408  0.8247  2.8091
 7674TIP3    H244438   1.415   0.987   2.271 -2.2852  0.8098  1.9130
 7675TIP3   OH244439   3.104   3.218  14.458  0.5967  0.3958  0.4744
 7675TIP3    H144440   3.099   3.314  14.458 -1.7860  0.3509  1.6772
 7675TIP3    H244441   3.031   3.190  14.403 -0.1805 -0.6876  1.9773
 7676TIP3   OH244442   3.158   1.455   4.268  0.1242 -0.7470  0.3820
 7676TIP3    H144443   3.090   1.489   4.326 -0.0510 -1.2872  0.4975
 7676TIP3    H244444   3.192   1.532   4.223 -1.0221 -0.5429 -0.1626
 7677TIP3   OH244445   1.061   2.866  16.845  0.1163  0.0587 -0.3514
 7677TIP3    H144446   0.999   2.934  16.820  2.2031  1.4710 -2.1295
 7677TIP3    H244447   1.016   2.784  16.826 -2.1420  0.8904  0.9853
 7678TIP3   OH244448   0.948   5.496  14.072  0.3834  0.6219  0.6734
 7678TIP3    H144449   0.915   5.555  14.140  0.2136  0.6023  0.6075
 7678TIP3    H244450   0.881   5.429  14.063  0.9967 -0.1145  1.4155
 7679TIP3   OH244451   2.495   1.481  16.280  0.2741 -0.0794 -0.2278
 7679TIP3    H144452   2.441   1.560  16.283  0.2790 -0.0806 -0.0712
 7679TIP3    H244453   2.537   1.483  16.194  0.6151  0.3158 -0.0513
 7680TIP3   OH244454   2.035   6.505   0.045 -0.0403  0.1577  0.1574
 7680TIP3    H144455   2.008   6.522   0.136 -0.2123  0.4820  0.0456
 7680TIP3    H244456   1.982   6.565  -0.007  0.3931  0.3009 -0.1212
 7681TIP3   OH244457   5.906   4.989   0.684 -0.6812  0.0174  0.3560
 7681TIP3    H144458   5.960   4.911   0.701 -0.2387 -0.0490 -1.2310
 7681TIP3    H244459   5.919   5.044   0.762 -1.5354 -1.7541  1.8306
 7682TIP3   OH244460   0.849   0.648  12.773  0.6003 -0.2566  0.1245
 7682TIP3    H144461   0.938   0.684  12.770  2.2119 -3.8881 -1.7817
 7682TIP3    H244462   0.793   0.722  12.747  3.3529  1.4515 -1.4504
 7683TIP3   OH244463   3.571   6.148  16.994 -0.3320 -0.1314  0.0887
 7683TIP3    H144464   3.505   6.100  17.044  0.6988 -0.2933  1.3434
 7683TIP3    H244465   3.650   6.094  17.000 -0.4200 -0.6750 -2.6177
 7684TIP3   OH244466   6.229   0.664   0.460  0.2669 -0.0287  0.6778
 7684TIP3    H144467   6.268   0.659   0.547 -0.2766  0.4465  0.9512
 7684TIP3    H244468   6.135   0.651   0.475  0.2855 -0.9809  0.0463
 7685TIP3   OH244469   0.188   6.349   6.223 -0.1922 -0.1506 -0.5886
 7685TIP3    H144470   0.234   6.271   6.190 -0.0903  0.7831 -2.8892
 7685TIP3    H244471   0.259   6.409   6.249 -0.1692  0.1497 -1.3136
 7686TIP3   OH244472   3.175   2.086   6.372 -0.0057  0.2787  0.0779
 7686TIP3    H144473   3.110   2.153   6.395 -0.5970 -0.5006  0.7118
 7686TIP3    H244474   3.258   2.123   6.402 -0.5253  0.0702  1.8718
 7687TIP3   OH244475   4.716   0.946  16.694  0.1171 -0.0366 -0.0725
 7687TIP3    H144476   4.680   0.858  16.700 -0.5522  0.3295  1.6687
 7687TIP3    H244477   4.744   0.967  16.783  0.5130  1.4162 -0.5134
 7688TIP3   OH244478   1.183   2.693   0.511 -0.2271  0.2995  0.1980
 7688TIP3    H144479   1.127   2.750   0.563  0.1455  0.5268  0.3522
 7688TIP3    H244480   1.128   2.618   0.489 -0.4827  0.3578  0.6424
 7689TIP3   OH244481   2.703   5.412  14.658 -0.1693  0.4856  0.0051
 7689TIP3    H144482   2.644   5.415  14.733  1.7351 -0.9304  1.6889
 7689TIP3    H244483   2.697   5.322  14.626  1.5589  0.0736  0.7132
 7690TIP3   OH244484   1.764   3.404   2.657 -0.0851 -0.2067  0.0629
 7690TIP3    H144485   1.822   3.481   2.656 -0.0646 -0.1925  1.0196
 7690TIP3    H244486   1.818   3.335   2.696 -0.1365 -0.6878 -0.7072
 7691TIP3   OH244487   0.333   4.335   3.061 -0.2259  0.1339 -0.4887
 7691TIP3    H144488   0.402   4.271   3.078 -0.5552 -0.5186 -1.5127
 7691TIP3    H244489   0.345   4.360   2.969 -0.6203  0.9141 -0.3380
 7692TIP3   OH244490   4.511   6.233   4.064  0.5488 -0.2078 -0.6810
 7692TIP3    H144491   4.438   6.284   4.098  0.6131 -0.7960  0.3806
 7692TIP3    H244492   4.581   6.246   4.128  0.1038 -2.7504  0.4484
 7693TIP3   OH244493   6.233   2.558  17.509 -0.1424 -0.3962 -0.0979
 7693TIP3    H144494   6.211   2.581  17.418  1.3414 -1.3887 -0.7426
 7693TIP3    H244495   6.288   2.480  17.501 -0.0579 -0.5460  1.6783
 7694TIP3   OH244496   1.542   5.016  13.885  0.2526  0.2116  0.7697
 7694TIP3    H144497   1.459   5.020  13.931 -0.0018 -0.6695  0.4179
 7694TIP3    H244498   1.552   4.923  13.860  0.7386  0.5152 -0.2571
 7695TIP3   OH244499   6.495   1.974  15.316  0.6135  0.0079  0.4683
 7695TIP3    H144500   6.463   2.063  15.320 -0.2479 -0.3340  2.7272
 7695TIP3    H244501   6.417   1.919  15.311  0.9436 -0.6781  1.9542
 7696TIP3   OH244502   1.271   3.447  11.990  0.2186 -0.3495 -0.1220
 7696TIP3    H144503   1.350   3.406  11.956  1.0698  0.5355  0.7278
 7696TIP3    H244504   1.250   3.397  12.069 -0.5196 -1.0590 -0.7567
 7697TIP3   OH244505   5.600   4.856   1.462  0.3036 -0.4678 -0.3167
 7697TIP3    H144506   5.658   4.817   1.397  1.6830  1.2157 -0.1642
 7697TIP3    H244507   5.579   4.942   1.427 -0.8646 -0.4514  0.3725
 7698TIP3   OH244508   2.083   3.773   5.615  0.3078 -0.4759 -0.5631
 7698TIP3    H144509   2.111   3.715   5.685  0.6657  0.5825  0.1965
 7698TIP3    H244510   1.993   3.747   5.596  0.6676 -1.6689 -0.6652
 7699TIP3   OH244511   1.566   5.431   5.932  0.1298 -0.1757  0.5923
 7699TIP3    H144512   1.633   5.469   5.989 -0.8403  1.4682  0.6933
 7699TIP3    H244513   1.590   5.339   5.925  0.8109 -0.2235  2.8955
 7700TIP3   OH244514   1.867   0.016  11.530 -0.3561 -0.2194  0.1018
 7700TIP3    H144515   1.829   0.064  11.603  0.1511  0.8004 -0.2876
 7700TIP3    H244516   1.950   0.060  11.512 -0.1343 -0.9016 -0.6211
 7701TIP3   OH244517   0.915   6.601   5.375 -0.2611  0.2096 -0.0617
 7701TIP3    H144518   1.010   6.592   5.367 -0.2982 -0.1835 -0.0611
 7701TIP3    H244519   0.903   6.682   5.425  0.1009 -0.2686  0.8314
 7702TIP3   OH244520   0.351   2.073   0.979 -0.9070 -0.9171 -0.7777
 7702TIP3    H144521   0.388   2.093   0.893  0.2709 -2.6547 -0.7280
 7702TIP3    H244522   0.380   1.983   0.998 -0.2363 -0.2375  1.8788
 7703TIP3   OH244523   3.596   2.225   4.059  0.1846 -0.1070 -0.0320
 7703TIP3    H144524   3.528   2.244   3.995 -0.4022  0.3131  0.7107
 7703TIP3    H244525   3.576   2.281   4.134  0.2325 -1.3515  0.9519
 7704TIP3   OH244526   1.199   5.215   3.221  0.5477 -0.0193  0.0183
 7704TIP3    H144527   1.190   5.177   3.309  0.4021  0.7617  0.3519
 7704TIP3    H244528   1.245   5.298   3.236  0.7309  0.0079 -0.6753
 7705TIP3   OH244529   4.094   4.599  11.296 -0.2151 -0.0847 -0.0206
 7705TIP3    H144530   4.130   4.578  11.382 -0.8306 -0.3029  0.1928
 7705TIP3    H244531   4.012   4.549  11.292 -1.3372  1.6662  0.1757
 7706TIP3   OH244532   4.604   5.651   4.582 -0.5481  0.1265  0.5905
 7706TIP3    H144533   4.612   5.687   4.493  0.9252 -0.1474  0.6029
 7706TIP3    H244534   4.693   5.627   4.607 -0.5751  2.0831  2.9525
 7707TIP3   OH244535   1.187   4.314  10.443  0.0280  0.4601 -0.1402
 7707TIP3    H144536   1.201   4.337  10.535 -2.5404 -0.8485  0.6846
 7707TIP3    H244537   1.100   4.350  10.423  0.1047 -0.1700 -1.7480
 7708TIP3   OH244538   3.059   2.505   2.880 -0.4361  0.1924 -0.2646
 7708TIP3    H144539   3.020   2.515   2.967  1.1384 -0.4370  0.5633
 7708TIP3    H244540   3.052   2.592   2.840 -2.9397  0.0192 -0.3151
 7709TIP3   OH244541   6.382   3.135   3.177 -0.1488  0.6129  0.2588
 7709TIP3    H144542   6.302   3.135   3.230  0.4384 -0.7133  1.1822
 7709TIP3    H244543   6.351   3.114   3.088 -0.8211  0.0860  0.6065
 7710TIP3   OH244544   3.331   4.969   2.560 -0.3023 -0.1260 -0.5608
 7710TIP3    H144545   3.317   5.041   2.623  1.2778 -0.3040  0.0257
 7710TIP3    H244546   3.395   4.912   2.602 -0.0416 -0.8437 -1.8842
 7711TIP3   OH244547   1.622   2.707   1.541 -0.2798  0.5616  0.0285
 7711TIP3    H144548   1.684   2.722   1.470  1.5574 -0.7553  1.2598
 7711TIP3    H244549   1.588   2.619   1.524  1.1107 -0.2787  1.3837
 7712TIP3   OH244550   3.079   6.245  15.267 -0.4713 -0.1139 -0.0289
 7712TIP3    H144551   3.076   6.195  15.186 -2.2450 -0.3003  0.1085
 7712TIP3    H244552   3.130   6.190  15.327 -0.1831 -0.5328 -0.6370
 7713TIP3   OH244553   2.120   5.396  11.854  0.2635  0.0558  0.6038
 7713TIP3    H144554   2.028   5.419  11.843  0.6613  1.0110 -1.2032
 7713TIP3    H244555   2.156   5.398  11.765  1.6881 -1.9076  1.0635
 7714TIP3   OH244556   4.624   4.464   4.481  0.1139  0.2756  0.1926
 7714TIP3    H144557   4.547   4.496   4.435  0.5481 -0.6445 -1.2325
 7714TIP3    H244558   4.650   4.536   4.539 -1.7295  0.6369  0.6276
 7715TIP3   OH244559   5.555   5.147   3.778 -0.0323 -0.3576  0.5307
 7715TIP3    H144560   5.576   5.069   3.829  1.1115  0.0038  0.6282
 7715TIP3    H244561   5.465   5.169   3.804  0.5111 -0.1747  2.4221
 7716TIP3   OH244562   0.872   5.691   4.880 -0.4412 -0.5830 -0.7025
 7716TIP3    H144563   0.924   5.612   4.869  1.2260  0.4161 -0.3940
 7716TIP3    H244564   0.922   5.759   4.835 -2.6388  0.0301 -2.4136
 7717TIP3   OH244565   5.190   1.272  17.539 -0.3902 -0.1827  0.7762
 7717TIP3    H144566   5.143   1.193  17.566 -1.3000  0.3460  0.7746
 7717TIP3    H244567   5.283   1.249  17.550 -0.6579 -0.9566  1.5858
 7718TIP3   OH244568   3.604   3.409  13.928 -0.3386  0.3103  0.4283
 7718TIP3    H144569   3.649   3.492  13.947 -0.9921  0.8991 -0.4944
 7718TIP3    H244570   3.511   3.433  13.925 -0.5107 -0.4089 -0.0873
 7719TIP3   OH244571   3.534   0.613  13.966 -0.4291  0.2549 -0.0086
 7719TIP3    H144572   3.497   0.525  13.962  0.3850 -0.0737 -0.7182
 7719TIP3    H244573   3.623   0.600  14.000 -0.2417  0.7799 -0.2765
 7720TIP3   OH244574   6.475   4.090  16.023  0.0833  0.0892  0.1729
 7720TIP3    H144575   6.492   4.024  16.091 -1.3965  1.0420  1.5396
 7720TIP3    H244576   6.467   4.172  16.072  1.7632  1.3270 -1.4626
 7721TIP3   OH244577   1.677   1.781  16.111  0.4897 -0.0948 -0.4056
 7721TIP3    H144578   1.589   1.744  16.113 -0.2172  1.4012 -1.4603
 7721TIP3    H244579   1.709   1.760  16.023  0.6036  0.5678 -0.5310
 7722TIP3   OH244580   5.472   3.127  16.006  0.2890  0.5590  0.1479
 7722TIP3    H144581   5.377   3.136  16.006  0.4287  2.6480 -0.4551
 7722TIP3    H244582   5.498   3.150  15.917  1.3130 -1.1500 -0.0503
 7723TIP3   OH244583   2.492   1.172  17.534 -0.1928  0.0425 -0.5593
 7723TIP3    H144584   2.534   1.166  17.448  1.1625  0.1254  0.0767
 7723TIP3    H244585   2.450   1.258  17.534  0.1907  0.2352 -0.9591
 7724TIP3   OH244586   5.300   3.940  10.926 -0.4895  0.3686 -0.2193
 7724TIP3    H144587   5.274   3.855  10.964 -0.6404 -0.8031 -2.7518
 7724TIP3    H244588   5.221   3.971  10.882 -0.0261  1.1273 -0.5222
 7725TIP3   OH244589   2.982   6.426   2.685 -0.0538  0.5231 -0.0850
 7725TIP3    H144590   3.069   6.417   2.724  0.6049  0.8077 -1.4425
 7725TIP3    H244591   2.934   6.349   2.717  1.0122 -0.1813 -0.1276
 7726TIP3   OH244592   6.648   2.440   5.290  0.7849  0.0730  0.7178
 7726TIP3    H144593   6.674   2.450   5.382  2.5980 -1.0369  0.3793
 7726TIP3    H244594   6.556   2.418   5.293  0.6459  0.7179  2.2324
 7727TIP3   OH244595   2.685   1.324   3.310 -0.0383  0.2676 -0.5457
 7727TIP3    H144596   2.725   1.244   3.277  0.7764  1.3373 -2.2865
 7727TIP3    H244597   2.746   1.355   3.377 -1.0805 -1.2719  1.1908
 7728TIP3   OH244598   1.284   0.884   0.071  0.2117  0.0865  0.2886
 7728TIP3    H144599   1.227   0.933   0.012  0.2634  1.4896  1.3650
 7728TIP3    H244600   1.371   0.894   0.033  0.1363  0.3082  0.1707
 7729TIP3   OH244601   1.160   2.925  15.905 -0.1641  0.2466  0.6322
 7729TIP3    H144602   1.238   2.938  15.959  0.5640  0.3013 -0.3949
 7729TIP3    H244603   1.191   2.940  15.816 -0.9237 -1.5845  0.0231
 7730TIP3   OH244604   0.067   3.250   4.663  0.0321 -0.4813  0.0384
 7730TIP3    H144605   0.067   3.210   4.750  1.2795 -0.6443 -0.0261
 7730TIP3    H244606  -0.026   3.259   4.641 -0.2996 -0.3531  1.4187
 7731TIP3   OH244607   3.205   0.914  11.412  0.3364 -0.5932 -0.2908
 7731TIP3    H144608   3.185   0.839  11.356  1.5345 -1.5785  0.5345
 7731TIP3    H244609   3.199   0.879  11.501  1.5704  0.1027  0.0865
 7732TIP3   OH244610   0.076   1.455  16.224 -0.4988 -0.2095  0.2180
 7732TIP3    H144611   0.017   1.415  16.288 -0.3728  2.7809  2.4514
 7732TIP3    H244612   0.153   1.481  16.275  0.8885 -0.2168 -1.7688
 7733TIP3   OH244613   5.425   0.815  12.355 -0.3823 -0.3791 -0.5062
 7733TIP3    H144614   5.395   0.766  12.431 -0.6721 -2.3908 -1.8374
 7733TIP3    H244615   5.351   0.870  12.331 -0.1358  0.6099  0.8841
 7734TIP3   OH244616   1.627   5.732  11.127  0.1804  0.0535  0.0086
 7734TIP3    H144617   1.542   5.711  11.167  0.7264 -1.5931  0.3866
 7734TIP3    H244618   1.631   5.677  11.048  0.7358  0.3894 -0.2017
 7735TIP3   OH244619   4.743   1.193  14.131  0.3393 -0.1133  0.3605
 7735TIP3    H144620   4.672   1.182  14.068  0.1206  1.0575  0.3963
 7735TIP3    H244621   4.719   1.135  14.204 -1.2354  1.1549  0.9181
 7736TIP3   OH244622   6.174   5.647   2.508 -0.6073 -0.3196 -0.1213
 7736TIP3    H144623   6.244   5.636   2.573  1.4329 -0.9342 -2.2594
 7736TIP3    H244624   6.140   5.559   2.493 -0.7686 -0.2489 -0.1667
 7737TIP3   OH244625   3.635   0.139   0.717 -0.0207  0.2441  0.6992
 7737TIP3    H144626   3.616   0.163   0.808 -0.3158 -1.6075  1.1648
 7737TIP3    H244627   3.689   0.060   0.723 -1.5496 -0.9887 -0.6993
 7738TIP3   OH244628   1.237   3.928  17.224  0.2583 -0.9752  0.1886
 7738TIP3    H144629   1.305   3.970  17.172 -0.8786  0.9626  0.1710
 7738TIP3    H244630   1.221   3.844  17.180  0.8123 -0.3250 -1.3179
 7739TIP3   OH244631   3.253   4.067  16.440  0.6818 -0.3937  0.3095
 7739TIP3    H144632   3.251   4.145  16.384  1.0415 -1.1256 -0.7499
 7739TIP3    H244633   3.343   4.063  16.472  1.0375 -1.1103 -0.7320
 7740TIP3   OH244634   5.756   0.754  12.591 -0.0366  0.2007 -1.0929
 7740TIP3    H144635   5.823   0.705  12.543  0.9117  0.7127 -0.3268
 7740TIP3    H244636   5.709   0.687  12.642 -0.7551 -0.2825 -2.3539
 7741TIP3   OH244637   4.975   0.444   3.803  0.0709  0.5321 -0.5854
 7741TIP3    H144638   4.926   0.362   3.808 -0.0661  0.6456  0.1479
 7741TIP3    H244639   5.022   0.439   3.720  0.1913 -0.3682 -0.4841
 7742TIP3   OH244640   1.547   1.976  11.494 -0.2207 -0.5490 -0.6074
 7742TIP3    H144641   1.462   1.984  11.538 -0.1516  0.1337 -0.5903
 7742TIP3    H244642   1.611   1.980  11.565 -0.1231  0.2432 -0.7363
 7743TIP3   OH244643   0.283   3.923   4.249  0.2597 -0.1673 -0.2880
 7743TIP3    H144644   0.270   3.889   4.338  2.9408 -0.6048 -0.0021
 7743TIP3    H244645   0.373   3.900   4.227  0.0705  1.0620 -2.6565
 7744TIP3   OH244646   0.062   1.457   3.183 -0.3335  0.8145  0.1444
 7744TIP3    H144647  -0.024   1.474   3.144 -1.2289 -1.1071  1.1466
 7744TIP3    H244648   0.122   1.510   3.131 -1.8075  0.4041 -2.1505
 7745TIP3   OH244649   5.681   2.945  11.847 -0.5974 -0.2166  0.3519
 7745TIP3    H144650   5.776   2.952  11.861 -0.6598 -1.3070  1.4928
 7745TIP3    H244651   5.670   2.954  11.753  0.6447 -0.1182  0.1971
 7746TIP3   OH244652   2.031   1.117   3.455 -0.0052  0.5135 -0.3042
 7746TIP3    H144653   1.970   1.106   3.382 -0.2813  2.0149 -0.3308
 7746TIP3    H244654   1.975   1.133   3.531  0.3042  2.0926 -0.3620
 7747TIP3   OH244655   1.909   3.730  12.396 -0.2324 -0.2928 -0.0371
 7747TIP3    H144656   1.826   3.769  12.424 -0.4442 -1.5757  1.2269
 7747TIP3    H244657   1.957   3.802  12.356 -1.0217  1.0446  1.3167
 7748TIP3   OH244658   0.764   6.373   1.049  0.1158 -0.0861  0.3212
 7748TIP3    H144659   0.808   6.292   1.023  0.6532  0.9126 -2.1782
 7748TIP3    H244660   0.835   6.435   1.063 -0.3426  0.4268  0.4174
 7749TIP3   OH244661   4.360   2.630   2.110  0.2640 -0.3806 -0.1412
 7749TIP3    H144662   4.414   2.674   2.044 -0.1583  0.3995  0.0247
 7749TIP3    H244663   4.387   2.538   2.105  2.2329  0.1220  0.5588
 7750TIP3   OH244664   5.055   4.108   5.679 -0.6298 -0.2682  0.1076
 7750TIP3    H144665   4.972   4.117   5.727 -0.8204  1.0498 -0.4191
 7750TIP3    H244666   5.043   4.161   5.600  0.6792 -0.1300 -0.0264
 7751TIP3   OH244667   0.106   0.403  10.502  0.0616  0.1316 -0.6175
 7751TIP3    H144668   0.166   0.355  10.444  1.0294  0.1144  0.3745
 7751TIP3    H244669   0.111   0.494  10.472 -1.7121 -0.2922 -2.4517
 7752TIP3   OH244670   1.081   1.115   1.606  0.2731 -0.2020  0.3702
 7752TIP3    H144671   1.111   1.201   1.634 -2.7925  0.8469  0.7778
 7752TIP3    H244672   0.995   1.105   1.646 -0.9725 -1.9755 -2.4378
 7753TIP3   OH244673   6.400   3.946  11.441 -0.2700 -0.6207 -0.2934
 7753TIP3    H144674   6.464   4.015  11.423 -1.7049  1.2432  1.2022
 7753TIP3    H244675   6.341   3.949  11.366  0.3866 -1.1375 -0.8424
 7754TIP3   OH244676   4.097   4.048   3.755 -0.1502  0.1001  0.4160
 7754TIP3    H144677   4.171   3.998   3.723  0.0998  1.1646 -0.7432
 7754TIP3    H244678   4.115   4.062   3.848  0.5838 -0.5216  0.3709
 7755TIP3   OH244679   3.824   5.356   6.066  0.4578  0.7388 -0.3415
 7755TIP3    H144680   3.802   5.449   6.062  1.2794  1.0410  1.3095
 7755TIP3    H244681   3.910   5.353   6.109  0.0396 -0.8302  0.4789
 7756TIP3   OH244682   3.070   6.258   2.018  0.0908 -0.4587  0.2235
 7756TIP3    H144683   3.127   6.304   2.079 -0.6917 -0.6027  1.0722
 7756TIP3    H244684   3.122   6.182   1.990  0.2446 -0.7159  1.1692
 7757TIP3   OH244685   3.159   0.810   2.723 -0.3152 -0.2187  0.2550
 7757TIP3    H144686   3.101   0.793   2.798  0.7092 -0.9072  0.9158
 7757TIP3    H244687   3.177   0.904   2.729  0.2125 -0.3591  1.2455
 7758TIP3   OH244688   2.312   4.348  12.467  0.0748 -1.0614  0.1102
 7758TIP3    H144689   2.254   4.345  12.543 -1.2230 -0.6257 -0.8246
 7758TIP3    H244690   2.295   4.434  12.428 -0.7648 -2.0172 -1.7586
 7759TIP3   OH244691   0.277   3.743  13.398  0.0701 -0.2894 -0.2181
 7759TIP3    H144692   0.300   3.817  13.455 -0.6971 -0.7670  0.7465
 7759TIP3    H244693   0.210   3.695  13.447  0.6243 -1.6944 -0.7833
 7760TIP3   OH244694   3.436   6.212  11.894  0.2938 -0.0917  0.4412
 7760TIP3    H144695   3.515   6.193  11.843  1.1025  0.5800  1.3934
 7760TIP3    H244696   3.426   6.137  11.952 -0.0626 -0.4078 -0.0262
 7761TIP3   OH244697   0.807   6.677   0.318  0.3148 -0.4901 -0.1417
 7761TIP3    H144698   0.819   6.772   0.317  1.9684 -0.6702 -0.4820
 7761TIP3    H244699   0.717   6.664   0.347 -0.2532  1.2058 -1.0520
 7762TIP3   OH244700   6.539   5.646   1.573 -0.0383  0.3035 -0.3041
 7762TIP3    H144701   6.591   5.658   1.651 -0.0293 -0.4042 -0.1958
 7762TIP3    H244702   6.511   5.555   1.576  2.4886 -0.6895 -2.6543
 7763TIP3   OH244703   2.285   4.511   0.501 -0.0774 -0.3962 -0.0440
 7763TIP3    H144704   2.360   4.456   0.523 -0.1140 -0.9133 -1.1461
 7763TIP3    H244705   2.281   4.576   0.571 -0.1545 -1.9168  1.4076
 7764TIP3   OH244706   0.469   5.810  14.119 -0.6598 -0.3109  0.0586
 7764TIP3    H144707   0.399   5.805  14.054  0.3492 -0.1707 -1.0876
 7764TIP3    H244708   0.501   5.721  14.127 -0.7824 -0.3272  0.3690
 7765TIP3   OH244709   3.716   1.599   2.309 -0.0453 -0.3819 -0.6815
 7765TIP3    H144710   3.686   1.620   2.221  2.0934  0.3505 -1.2806
 7765TIP3    H244711   3.755   1.512   2.302 -2.5550 -1.6996  0.2773
 7766TIP3   OH244712   6.110   4.906   1.572  0.4494 -0.9270 -0.7079
 7766TIP3    H144713   6.190   4.927   1.524  0.6775  1.0105  0.4256
 7766TIP3    H244714   6.128   4.821   1.612  2.2943 -0.1766  0.1576
 7767TIP3   OH244715   2.354   2.063   3.553 -0.4971 -0.9118 -0.1222
 7767TIP3    H144716   2.277   2.026   3.509 -0.5851 -0.9745  0.0816
 7767TIP3    H244717   2.403   2.107   3.484 -0.1195 -1.8540 -0.4760
 7768TIP3   OH244718   2.666   5.508  15.817  0.1591 -0.1818  0.1938
 7768TIP3    H144719   2.746   5.552  15.787 -0.1717 -0.1023 -0.6120
 7768TIP3    H244720   2.668   5.516  15.912  1.1371 -0.2282  0.1848
 7769TIP3   OH244721   2.126   6.532   5.894  0.0769 -0.1850 -0.1544
 7769TIP3    H144722   2.208   6.542   5.943 -0.1370  1.2650 -0.0539
 7769TIP3    H244723   2.058   6.563   5.953 -0.4208 -0.3128 -0.6451
 7770TIP3   OH244724   1.267   5.628   2.902  0.0142  1.0244 -0.1466
 7770TIP3    H144725   1.252   5.534   2.890  2.7803  0.6313 -1.3538
 7770TIP3    H244726   1.226   5.649   2.986 -1.2738 -1.0824 -0.1905
 7771TIP3   OH244727   5.432   3.228   1.563 -0.3145 -0.2933  0.4509
 7771TIP3    H144728   5.496   3.207   1.496  1.3076  1.7266  1.2563
 7771TIP3    H244729   5.459   3.178   1.640  0.5695  0.8155  0.8925
 7772TIP3   OH244730   3.015   5.810  12.482  0.3629 -0.3540 -0.2125
 7772TIP3    H144731   3.080   5.818  12.412 -0.0327  1.1311 -0.4460
 7772TIP3    H244732   2.952   5.880  12.465  0.6216  0.5054  2.0168
 7773TIP3   OH244733   3.893   1.478  14.161  0.2984 -0.0912 -0.5216
 7773TIP3    H144734   3.835   1.531  14.215 -1.0493 -0.0590 -1.9000
 7773TIP3    H244735   3.865   1.388  14.177 -0.5913 -0.0437 -1.6018
 7774TIP3   OH244736   4.563   3.679   5.038 -0.3959 -0.5365 -0.0315
 7774TIP3    H144737   4.506   3.744   5.079  1.0944  0.7887  0.0468
 7774TIP3    H244738   4.568   3.608   5.102 -1.1613 -0.2213  0.3928
 7775TIP3   OH244739   3.024   2.663  14.551 -0.2420  0.0478  0.2540
 7775TIP3    H144740   3.113   2.679  14.520 -0.3999  0.5785  0.0638
 7775TIP3    H244741   3.025   2.692  14.643 -0.5397  1.2703 -0.1027
 7776TIP3   OH244742   3.522   5.759  12.211 -0.0883 -0.4379  0.5377
 7776TIP3    H144743   3.586   5.750  12.282  2.3191  3.3527 -0.8496
 7776TIP3    H244744   3.574   5.759  12.131 -2.2796 -0.6529 -0.9825
 7777TIP3   OH244745   6.295   2.531   3.342  0.7914  0.0196  0.4926
 7777TIP3    H144746   6.262   2.601   3.285  0.7889  0.9275  1.5920
 7777TIP3    H244747   6.370   2.569   3.387  0.4777 -0.5221  1.4896
 7778TIP3   OH244748   4.440   1.807  16.457 -0.0551 -0.7477  0.2035
 7778TIP3    H144749   4.422   1.873  16.391 -1.5434  0.0055  1.3062
 7778TIP3    H244750   4.355   1.788  16.497  0.6494 -1.8869  1.2495
 7779TIP3   OH244751   6.167   1.322  14.227  0.6451  0.0790  0.5535
 7779TIP3    H144752   6.250   1.277  14.216  1.3583  1.2861  0.8131
 7779TIP3    H244753   6.119   1.269  14.291  1.1082 -0.7477  0.2304
 7780TIP3   OH244754   5.791   3.594  12.498 -0.0766  0.0125  0.3863
 7780TIP3    H144755   5.753   3.534  12.433  1.6676  0.3566 -1.0150
 7780TIP3    H244756   5.770   3.681  12.465 -0.0820  0.1955  0.8661
 7781TIP3   OH244757   0.937   4.693   0.608  0.0267 -0.6434  0.0306
 7781TIP3    H144758   0.846   4.719   0.598 -0.1159 -1.5278 -1.1958
 7781TIP3    H244759   0.935   4.598   0.615  0.7261 -0.5595  1.8766
 7782TIP3   OH244760   4.596   3.873   3.181  0.0635  0.3189  0.2079
 7782TIP3    H144761   4.631   3.933   3.115  0.6229 -2.8787 -2.7031
 7782TIP3    H244762   4.503   3.867   3.162 -0.1820  0.9525  1.1418
 7783TIP3   OH244763   2.995   3.244  12.720  0.3408 -0.6201 -0.3292
 7783TIP3    H144764   3.046   3.236  12.800  0.7456  0.3862 -0.4757
 7783TIP3    H244765   2.904   3.251  12.750  0.6564  1.9270  0.1925
 7784TIP3   OH244766   6.208   6.292   4.013  0.5484 -0.4332 -0.2526
 7784TIP3    H144767   6.220   6.370   3.959  0.4324  0.2127  0.6158
 7784TIP3    H244768   6.249   6.221   3.964 -0.0796  0.0122 -1.4401
 7785TIP3   OH244769   4.959   0.706   5.064  0.0272 -0.5767 -0.2045
 7785TIP3    H144770   5.012   0.629   5.042  1.0917 -0.4878  1.7793
 7785TIP3    H244771   4.889   0.672   5.120 -0.2477 -0.2776 -0.3657
 7786TIP3   OH244772   1.754   4.622  16.545  0.1135  0.0274  0.1749
 7786TIP3    H144773   1.733   4.565  16.471  2.6202  0.6919 -1.1449
 7786TIP3    H244774   1.706   4.703  16.527  2.3448  0.9863 -1.9821
 7787TIP3   OH244775   0.252   4.210   0.042  0.4032 -0.1991 -0.1113
 7787TIP3    H144776   0.331   4.249   0.005  0.0708 -1.1142 -1.8999
 7787TIP3    H244777   0.280   4.124   0.072  0.0551 -0.6580 -1.0490
 7788TIP3   OH244778   1.685   0.369   4.717  0.0988 -0.0368 -0.0314
 7788TIP3    H144779   1.750   0.317   4.669  0.4312  0.9045 -0.6374
 7788TIP3    H244780   1.714   0.365   4.808 -1.5627 -3.3704  0.5037
 7789TIP3   OH244781   0.424   0.770   2.568 -0.0116  0.1730  0.3763
 7789TIP3    H144782   0.376   0.809   2.496  0.3807  0.2247  0.1371
 7789TIP3    H244783   0.461   0.845   2.615  1.6823  0.0930 -0.7353
 7790TIP3   OH244784   3.078   6.338  12.400  0.4311 -0.0450 -0.5639
 7790TIP3    H144785   3.159   6.319  12.448  1.1515  2.2813 -0.7643
 7790TIP3    H244786   3.050   6.423  12.432 -1.1247 -0.1235 -1.6133
 7791TIP3   OH244787   3.987   5.254   2.988 -0.1815 -0.1865 -0.2314
 7791TIP3    H144788   4.045   5.196   3.036  0.1469  0.0217 -0.3762
 7791TIP3    H244789   3.950   5.313   3.054 -0.7624 -0.7634 -0.0346
 7792TIP3   OH244790   1.173   4.862   0.961  0.0125 -0.5979  0.3976
 7792TIP3    H144791   1.209   4.907   1.038 -1.3765  0.0818  0.6942
 7792TIP3    H244792   1.207   4.910   0.886  0.5063 -0.5900  0.6225
 7793TIP3   OH244793   1.781   1.173  16.112 -0.1445 -0.1968  0.8072
 7793TIP3    H144794   1.855   1.217  16.070  1.0999 -2.8686 -0.0281
 7793TIP3    H244795   1.716   1.164  16.042 -0.9508  1.3525  1.3116
 7794TIP3   OH244796   6.560   2.520  15.711 -0.2182  0.1872  0.0831
 7794TIP3    H144797   6.496   2.457  15.678  0.3745 -1.9299  2.5880
 7794TIP3    H244798   6.507   2.586  15.757 -0.7059 -1.0198  1.3164
 7795TIP3   OH244799   3.611   3.785  12.727  0.0843  0.1177 -0.3509
 7795TIP3    H144800   3.648   3.759  12.812 -0.8336 -0.0355  0.0149
 7795TIP3    H244801   3.517   3.768  12.736  0.1496 -1.4856 -1.9715
 7796TIP3   OH244802   1.387   5.368  12.206 -0.2185  0.3648 -0.4140
 7796TIP3    H144803   1.330   5.320  12.266 -0.6062  1.4244  0.1069
 7796TIP3    H244804   1.328   5.408  12.142 -0.2036  2.1866  0.6344
 7797TIP3   OH244805   6.121   0.281   2.000 -0.2612 -0.4867  0.1519
 7797TIP3    H144806   6.063   0.246   1.931  0.6476  1.0091 -1.4385
 7797TIP3    H244807   6.201   0.229   1.992  1.5428  2.3997 -2.9939
 7798TIP3   OH244808   1.611   6.368   1.740  0.0300  0.1811 -0.0677
 7798TIP3    H144809   1.689   6.412   1.706  0.9612 -1.7027 -0.4990
 7798TIP3    H244810   1.637   6.336   1.826 -0.0843 -0.8777 -0.4136
 7799TIP3   OH244811   0.249   2.137  15.005  0.6381  0.2536 -0.3992
 7799TIP3    H144812   0.191   2.201  14.964  1.2135 -0.2481 -2.0699
 7799TIP3    H244813   0.194   2.060  15.017 -0.1434  1.0854  1.9025
 7800TIP3   OH244814   1.200   2.949  11.403 -0.0285  0.0725 -0.4999
 7800TIP3    H144815   1.274   2.888  11.396 -0.6140 -0.5780 -1.3406
 7800TIP3    H244816   1.240   3.035  11.409  0.8457 -0.4309  1.5951
 7801TIP3   OH244817   1.819   6.573  14.751 -0.0242 -0.3366  0.4401
 7801TIP3    H144818   1.740   6.624  14.733  0.4302  0.4505  0.5970
 7801TIP3    H244819   1.857   6.615  14.829  0.9305 -0.2329 -0.0638
 7802TIP3   OH244820   2.540   6.453  15.720 -0.6783 -0.0494  0.0129
 7802TIP3    H144821   2.619   6.399  15.718 -0.2123  0.6403 -0.3979
 7802TIP3    H244822   2.492   6.422  15.797 -0.7566 -1.5159 -0.5892
 7803TIP3   OH244823   1.307   4.978  14.000  0.2470 -0.4911  0.2262
 7803TIP3    H144824   1.326   4.994  14.093 -0.6939 -1.6504  0.6450
 7803TIP3    H244825   1.229   5.030  13.982 -0.1975 -1.0875  0.3887
 7804TIP3   OH244826   2.335   0.328   2.028  0.5616  0.1687  0.0352
 7804TIP3    H144827   2.379   0.251   2.064 -0.0439 -0.2082 -0.0111
 7804TIP3    H244828   2.295   0.297   1.947 -0.6457  0.2279  0.5917
 7805TIP3   OH244829   3.990   5.660  12.390 -0.3989 -0.3239  0.8392
 7805TIP3    H144830   4.047   5.737  12.393 -0.1257 -0.5325  3.9543
 7805TIP3    H244831   4.040   5.595  12.340  0.6376  0.5426  0.7016
 7806TIP3   OH244832   0.518   2.448  15.620 -0.0985  0.0247  0.4280
 7806TIP3    H144833   0.579   2.521  15.603 -0.5486  0.0660 -1.1309
 7806TIP3    H244834   0.488   2.421  15.533 -2.4199  0.0804  1.1494
 7807TIP3   OH244835   4.202   3.112  13.510  0.0980  0.6415 -0.3283
 7807TIP3    H144836   4.119   3.082  13.472  1.1105 -1.3246 -1.1029
 7807TIP3    H244837   4.225   3.044  13.574  1.7792  0.4269 -1.1109
 7808TIP3   OH244838   0.984   2.561   0.376 -0.6628 -0.2417 -0.1686
 7808TIP3    H144839   0.978   2.511   0.295 -0.0653 -1.4461  0.5091
 7808TIP3    H244840   0.910   2.622   0.373  0.1101  0.6582 -2.2193
 7809TIP3   OH244841   6.106   6.439  17.519 -0.2972  0.3236  0.1317
 7809TIP3    H144842   6.119   6.413  17.611  1.5363  0.6125 -0.0240
 7809TIP3    H244843   6.188   6.416  17.475 -0.6423  1.4283 -1.1600
 7810TIP3   OH244844   0.382   0.837   4.773  0.3742 -0.0536 -0.2754
 7810TIP3    H144845   0.310   0.774   4.764 -0.4459  0.7050  0.6816
 7810TIP3    H244846   0.359   0.888   4.850  2.7011 -0.7322  0.9648
 7811TIP3   OH244847   4.329   0.323  16.931 -0.0871 -0.1028  0.4503
 7811TIP3    H144848   4.387   0.366  16.869 -0.9784  0.4064 -0.0565
 7811TIP3    H244849   4.379   0.320  17.013  1.0191 -0.6159 -0.2423
 7812TIP3   OH244850   4.582   2.145  12.777  0.2008  0.5248  0.3603
 7812TIP3    H144851   4.654   2.152  12.840 -0.8175  0.5431  1.5488
 7812TIP3    H244852   4.548   2.234  12.769  0.2614  0.5056 -0.1570
 7813TIP3   OH244853   3.964   5.626  17.297  0.4184  0.2749 -0.6398
 7813TIP3    H144854   3.957   5.533  17.276  1.1026 -0.4076  1.8383
 7813TIP3    H244855   4.036   5.631  17.360 -0.5195  2.2868  0.3626
 7814TIP3   OH244856   5.150   3.566  16.799  0.4567  0.2116  0.5708
 7814TIP3    H144857   5.107   3.641  16.839  0.5408  0.1749  0.7321
 7814TIP3    H244858   5.229   3.601  16.760 -0.7394  0.6629 -1.5733
 7815TIP3   OH244859   5.253   2.086   1.326  0.4089  0.2720 -0.2730
 7815TIP3    H144860   5.204   2.146   1.270 -1.1981 -0.8867 -0.1633
 7815TIP3    H244861   5.199   2.077   1.405  0.8773 -0.8840 -0.0601
 7816TIP3   OH244862   1.426   4.681  17.276 -0.1946 -0.0448  0.2363
 7816TIP3    H144863   1.366   4.707  17.346 -0.5231  1.0239 -0.4156
 7816TIP3    H244864   1.409   4.587  17.263  0.1032 -0.3461  1.7779
 7817TIP3   OH244865   5.475   1.491   6.232  0.4030  0.3401  0.0027
 7817TIP3    H144866   5.436   1.531   6.309  0.0109  1.6305 -0.8314
 7817TIP3    H244867   5.418   1.519   6.160  1.4047  0.0898 -0.9029
 7818TIP3   OH244868   1.705   5.669   2.675  0.4586 -0.5016  0.4223
 7818TIP3    H144869   1.629   5.709   2.717  0.0334  1.8937 -2.3213
 7818TIP3    H244870   1.717   5.719   2.595  1.9125 -4.0010 -1.7766
 7819TIP3   OH244871   4.183   2.374   4.675  0.2606  0.2255 -0.0503
 7819TIP3    H144872   4.184   2.414   4.762  0.6562 -0.2443  0.1673
 7819TIP3    H244873   4.207   2.444   4.615 -1.2887  0.9023  0.0586
 7820TIP3   OH244874   3.178   5.034  12.485 -0.0719  0.5677 -0.3091
 7820TIP3    H144875   3.187   4.963  12.422 -0.2570  0.1634  0.1108
 7820TIP3    H244876   3.229   5.004  12.561 -0.9071  0.4619  0.2214
 7821TIP3   OH244877   2.965   6.253  10.145  0.2543  0.2950 -0.1542
 7821TIP3    H144878   2.988   6.188  10.211 -0.3148  0.6881  0.4507
 7821TIP3    H244879   3.043   6.309  10.139  0.2343  0.3880  0.3583
 7822TIP3   OH244880   5.746   2.912  12.383  0.7709 -0.1833  0.0284
 7822TIP3    H144881   5.725   2.871  12.299 -0.6049 -0.4141  0.4609
 7822TIP3    H244882   5.807   2.982  12.361 -0.3879  0.4587 -1.3259
 7823TIP3   OH244883   4.338   4.272  11.188 -0.3185 -0.1280 -0.0852
 7823TIP3    H144884   4.245   4.261  11.168 -0.8642 -0.0293  2.1310
 7823TIP3    H244885   4.381   4.276  11.103 -2.1307 -1.9446 -1.1635
 7824TIP3   OH244886   4.110   1.856  15.708 -0.3271 -0.1039  0.3329
 7824TIP3    H144887   4.189   1.846  15.762  0.2012  1.0162 -0.2100
 7824TIP3    H244888   4.038   1.856  15.771  0.0476 -1.4858  0.8148
 7825TIP3   OH244889   3.732   2.802   3.547  0.3018 -0.0049  0.1523
 7825TIP3    H144890   3.659   2.863   3.554 -1.0218 -1.4096 -0.8231
 7825TIP3    H244891   3.707   2.742   3.477  1.5176 -1.7075  1.0935
 7826TIP3   OH244892   6.195   6.332  15.938 -0.1308  0.1406 -0.1015
 7826TIP3    H144893   6.192   6.335  16.033  0.8085  1.4549 -0.0932
 7826TIP3    H244894   6.285   6.308  15.917 -0.4035 -0.4300 -0.6668
 7827TIP3   OH244895   0.081   6.569   0.395  0.1001 -0.1646 -0.5669
 7827TIP3    H144896   0.099   6.476   0.382  0.9538 -0.1775  0.6032
 7827TIP3    H244897   0.050   6.575   0.485  1.2011  0.8155 -0.2247
 7828TIP3   OH244898   6.456   5.473   0.996  0.0574  0.3726 -0.3154
 7828TIP3    H144899   6.391   5.482   0.926 -0.7058  0.8514  0.4388
 7828TIP3    H244900   6.537   5.449   0.950 -1.1691 -2.8360 -1.0770
 7829TIP3   OH244901   4.123   5.700   5.283 -0.4278 -0.5934 -0.1471
 7829TIP3    H144902   4.089   5.782   5.317 -0.7503 -0.1978 -1.3829
 7829TIP3    H244903   4.190   5.674   5.346  2.2893  2.4508 -1.4926
 7830TIP3   OH244904   5.092   1.078   3.793  0.9040 -0.1493 -0.6483
 7830TIP3    H144905   5.121   1.058   3.704  0.1162  2.1809 -1.5191
 7830TIP3    H244906   5.013   1.131   3.781  1.4389  1.2481  1.3821
 7831TIP3   OH244907   3.288   5.436  11.206  0.2097 -0.0240 -0.7946
 7831TIP3    H144908   3.292   5.387  11.123 -0.6169 -1.9600  0.2403
 7831TIP3    H244909   3.366   5.408  11.254 -1.1514 -1.7897  0.5196
 7832TIP3   OH244910   2.793   1.834   6.206  0.4908  0.2344  0.0970
 7832TIP3    H144911   2.698   1.826   6.216  0.5559 -1.1743 -0.1965
 7832TIP3    H244912   2.828   1.808   6.291  0.6044  1.8659  0.5830
 7833TIP3   OH244913   2.490   3.126  14.193 -0.1448 -0.4694 -0.3058
 7833TIP3    H144914   2.449   3.093  14.113  1.1835 -1.7382 -0.4995
 7833TIP3    H244915   2.581   3.097  14.187 -0.0594 -0.7856  1.7586
 7834TIP3   OH244916   6.627   2.145   4.770 -0.3866 -0.2711  0.2078
 7834TIP3    H144917   6.698   2.175   4.714 -0.4831 -0.5272 -0.0508
 7834TIP3    H244918   6.582   2.226   4.797  1.3034  0.1242  2.1562
 7835TIP3   OH244919   1.194   0.044   2.875  0.1282  0.8068 -0.0268
 7835TIP3    H144920   1.225   0.061   2.965  0.9395  0.4778 -0.2308
 7835TIP3    H244921   1.103   0.072   2.876 -0.3162 -0.5551  1.3113
 7836TIP3   OH244922   0.918   4.828  15.999 -0.2983  0.0689 -0.0034
 7836TIP3    H144923   0.918   4.912  16.044 -1.0390  1.1327 -1.8906
 7836TIP3    H244924   0.953   4.766  16.064 -0.1048  1.7302  1.5540
 7837TIP3   OH244925   1.168   1.999  15.446 -0.1536 -0.0442  0.1544
 7837TIP3    H144926   1.170   2.074  15.386  1.0355 -1.3259 -1.4883
 7837TIP3    H244927   1.078   1.997  15.478 -0.8653  0.6870 -1.6376
 7838TIP3   OH244928   2.348   5.332   2.128 -0.2389 -0.5832  0.1863
 7838TIP3    H144929   2.269   5.385   2.137 -1.8984 -2.4992 -1.8722
 7838TIP3    H244930   2.335   5.284   2.046  3.0749 -1.0286 -0.2157
 7839TIP3   OH244931   3.330   2.425  17.446 -0.5139  0.0312 -0.1160
 7839TIP3    H144932   3.366   2.368  17.514  0.2081  1.0644  0.3968
 7839TIP3    H244933   3.361   2.513  17.470 -0.6103  0.4714 -1.5345
 7840TIP3   OH244934   4.316   4.364  14.642 -0.1686  0.5641 -0.1156
 7840TIP3    H144935   4.259   4.295  14.610  0.4867  0.9378 -2.2211
 7840TIP3    H244936   4.276   4.445  14.613  0.0294  0.9903  0.7512
 7841TIP3   OH244937   1.785   1.920  16.328 -0.0997 -0.0249 -0.4086
 7841TIP3    H144938   1.740   1.870  16.260 -0.9716  1.0321 -0.6326
 7841TIP3    H244939   1.763   2.012  16.309 -2.2561  0.2070  2.5776
 7842TIP3   OH244940   3.486   0.161   4.987 -0.4274  0.1382 -0.0794
 7842TIP3    H144941   3.553   0.224   5.012 -1.0343 -0.3301  3.1702
 7842TIP3    H244942   3.405   0.211   4.985 -0.5005  0.0103 -0.3161
 7843TIP3   OH244943   4.658   3.223   5.399 -0.8177 -0.0375 -0.1446
 7843TIP3    H144944   4.632   3.305   5.441  1.3980  0.0928  1.1065
 7843TIP3    H244945   4.583   3.201   5.343 -2.1537  1.9630  0.7075
 7844TIP3   OH244946   4.161   2.273  12.708 -0.2170 -0.1075 -0.0411
 7844TIP3    H144947   4.142   2.339  12.775  0.2134  0.1709 -0.1900
 7844TIP3    H244948   4.188   2.323  12.631 -0.1388 -0.4471 -0.2365
 7845TIP3   OH244949   6.309   5.093  10.683 -0.5165  0.0463  0.7021
 7845TIP3    H144950   6.380   5.107  10.620  1.0393 -1.9025  1.8992
 7845TIP3    H244951   6.248   5.166  10.667 -0.4232 -0.4999 -3.2416
 7846TIP3   OH244952   2.400   5.330  16.047  0.1149  0.7526  0.1393
 7846TIP3    H144953   2.426   5.422  16.047  1.4497  0.4140 -1.4549
 7846TIP3    H244954   2.310   5.330  16.081 -0.2952  2.7443 -0.8546
 7847TIP3   OH244955   1.023   4.562   2.915 -0.3333 -0.3804  0.1325
 7847TIP3    H144956   1.111   4.597   2.929 -0.6656  0.5641 -0.1220
 7847TIP3    H244957   1.034   4.498   2.845  0.4297 -1.4689  1.1895
 7848TIP3   OH244958   5.212   3.161  15.964  0.0778 -0.0884  0.7776
 7848TIP3    H144959   5.263   3.224  15.913  1.6637 -1.4227  0.6246
 7848TIP3    H244960   5.125   3.200  15.969  0.4776  1.1846 -0.9467
 7849TIP3   OH244961   0.336   3.828   1.802 -0.2732  0.2986 -0.0117
 7849TIP3    H144962   0.285   3.784   1.734 -0.3355 -1.3671  1.0455
 7849TIP3    H244963   0.278   3.828   1.878  0.1452  1.2578  0.3178
 7850TIP3   OH244964   1.105   2.213   0.163  0.3859  0.6196 -0.3446
 7850TIP3    H144965   1.046   2.196   0.236  0.9890  0.5526  0.1371
 7850TIP3    H244966   1.167   2.279   0.196  2.3847 -1.3851  0.1846
 7851TIP3   OH244967   4.924   2.674   6.114 -0.7164  0.4966 -0.1778
 7851TIP3    H144968   4.880   2.633   6.039  0.4489 -0.3222 -0.4328
 7851TIP3    H244969   4.904   2.767   6.106 -1.6474  0.2575 -0.7838
 7852TIP3   OH244970   3.398   6.260  16.449 -0.1700  0.1096  0.3868
 7852TIP3    H144971   3.343   6.301  16.516  0.1100  2.9697 -0.9798
 7852TIP3    H244972   3.473   6.225  16.497 -2.3180 -2.5588  2.1016
 7853TIP3   OH244973   4.984   5.736   5.319 -0.3634 -0.0952 -0.1876
 7853TIP3    H144974   4.952   5.809   5.373  1.6846 -0.0915  1.1147
 7853TIP3    H244975   4.999   5.775   5.233 -0.1778  0.7954  0.2388
 7854TIP3   OH244976   3.869   4.545   2.160  0.1230  0.7274 -0.3333
 7854TIP3    H144977   3.895   4.489   2.233 -0.8614  1.3359  0.5125
 7854TIP3    H244978   3.936   4.614   2.157  1.8067 -0.8543 -1.8986
 7855TIP3   OH244979   5.277   5.874   2.272  0.2174 -0.2177  0.9451
 7855TIP3    H144980   5.274   5.799   2.213 -1.0881  1.1826 -0.8937
 7855TIP3    H244981   5.229   5.845   2.350 -1.5997 -0.8604 -0.3366
 7856TIP3   OH244982   2.515   5.291  15.784 -0.3135  0.5250 -0.6162
 7856TIP3    H144983   2.565   5.372  15.794  1.1477 -0.3879 -0.2735
 7856TIP3    H244984   2.464   5.284  15.864  0.3991  0.5532 -0.1531
 7857TIP3   OH244985   4.073   5.239  14.432 -0.1678 -0.4632 -0.0537
 7857TIP3    H144986   4.045   5.269  14.345 -0.5823 -1.8619 -0.4154
 7857TIP3    H244987   4.102   5.319  14.476  1.3883  0.1290 -1.9706
 7858TIP3   OH244988   0.877   2.628  16.813  0.3579  0.3316 -0.3660
 7858TIP3    H144989   0.811   2.677  16.862  0.7758  0.3933  0.1437
 7858TIP3    H244990   0.836   2.609  16.729  0.1376  1.4138 -0.5081
 7859TIP3   OH244991   4.536   2.550  14.688 -0.3997  0.3922  0.2887
 7859TIP3    H144992   4.482   2.475  14.712  0.1387 -0.3385 -0.7225
 7859TIP3    H244993   4.494   2.625  14.730 -2.5094 -0.0757 -0.8867
 7860TIP3   OH244994   1.005   1.436  16.147  0.0631 -0.2892  0.1200
 7860TIP3    H144995   0.944   1.504  16.174  0.3105 -0.2613  0.6205
 7860TIP3    H244996   0.990   1.364  16.208 -0.1520 -0.6634 -0.3664
 7861TIP3   OH244997   6.026   3.647  15.117  0.4997 -0.1119 -0.4920
 7861TIP3    H144998   6.013   3.729  15.070 -0.0279  0.2364  0.2452
 7861TIP3    H244999   6.061   3.673  15.202 -0.2058 -0.6034 -0.0446
 7862TIP3   OH245000   5.488   3.109  17.032 -0.2886  0.4583 -0.2255
 7862TIP3    H145001   5.570   3.120  16.984 -1.2304  2.4825 -1.5359
 7862TIP3    H245002   5.508   3.138  17.121  0.8581 -0.9372  0.0099
 7863TIP3   OH245003   3.849   3.253  17.118  0.0172 -0.1011  0.1038
 7863TIP3    H145004   3.773   3.214  17.161 -1.6442  2.2046 -0.5735
 7863TIP3    H245005   3.846   3.217  17.029  0.8440 -1.4170  0.5759
 7864TIP3   OH245006   1.988   3.877   0.665 -0.2318  0.4214  0.2137
 7864TIP3    H145007   2.018   3.848   0.751 -0.1539  1.0978  0.4249
 7864TIP3    H245008   1.951   3.964   0.681 -2.5137 -0.4568  0.0021
 7865TIP3   OH245009   3.512   1.756  16.252 -0.4213 -0.1690  0.0496
 7865TIP3    H145010   3.496   1.823  16.186  0.8543 -0.3658 -0.4893
 7865TIP3    H245011   3.479   1.793  16.333  0.0549  1.0197 -0.2839
 7866TIP3   OH245012   3.350   3.748   5.892 -0.1315 -0.3412  0.1759
 7866TIP3    H145013   3.353   3.785   5.980 -0.6037 -1.0577  0.4999
 7866TIP3    H245014   3.278   3.686   5.894 -0.8631  0.4178 -1.0328
 7867TIP3   OH245015   3.195   6.161   0.707  0.2126 -0.6393 -0.7257
 7867TIP3    H145016   3.143   6.093   0.750 -0.4479 -1.0925 -2.1766
 7867TIP3    H245017   3.280   6.158   0.751  0.0522 -2.1024 -0.4700
 7868TIP3   OH245018   0.515   1.045   3.581  0.3873  0.2578 -0.0097
 7868TIP3    H145019   0.468   1.043   3.498  0.4910  0.1786 -0.0660
 7868TIP3    H245020   0.537   0.954   3.599 -0.1487  0.2028  0.3991
 7869TIP3   OH245021   2.675   4.737  13.174 -0.5248 -0.3121  0.1652
 7869TIP3    H145022   2.713   4.794  13.241  0.0893 -0.6910  0.1451
 7869TIP3    H245023   2.624   4.796  13.119 -0.8238  0.0412  0.8113
 7870TIP3   OH245024   0.365   1.292  14.976  0.0398 -0.2586  0.6278
 7870TIP3    H145025   0.456   1.304  14.951  0.5913 -1.5557  1.8683
 7870TIP3    H245026   0.339   1.209  14.935 -1.5672  1.4823 -2.1803
 7871TIP3   OH245027   2.310   3.912  15.129  0.4621  0.3460  0.2757
 7871TIP3    H145028   2.259   3.835  15.107 -0.7055  1.1612  0.0158
 7871TIP3    H245029   2.388   3.906  15.074  1.6047 -1.8558  1.9883
 7872TIP3   OH245030   1.777   5.099  16.147 -0.2437  0.4072 -0.0432
 7872TIP3    H145031   1.823   5.074  16.227 -1.1416 -2.3234 -0.2649
 7872TIP3    H245032   1.826   5.057  16.077 -0.5455  1.1923 -0.7373
 7873TIP3   OH245033   6.119   0.795  13.758  0.4223 -0.1165 -0.3572
 7873TIP3    H145034   6.103   0.880  13.799  2.2188 -0.2411  0.7083
 7873TIP3    H245035   6.173   0.814  13.682 -0.6667 -0.1660 -1.1737
 7874TIP3   OH245036   5.834   6.449  15.341 -0.1567  0.2109  0.1530
 7874TIP3    H145037   5.759   6.447  15.282  0.1175  0.0485 -0.1962
 7874TIP3    H245038   5.883   6.528  15.318  0.3954 -0.2828 -0.4075
 7875TIP3   OH245039   6.052   3.698   4.844  0.3240 -0.6598  0.5740
 7875TIP3    H145040   6.132   3.682   4.794 -0.8402  1.3035 -2.1428
 7875TIP3    H245041   5.985   3.648   4.797 -0.2829 -1.4462  2.2097
 7876TIP3   OH245042   6.290   4.288  11.385 -0.7569  0.0883 -0.5299
 7876TIP3    H145043   6.240   4.223  11.337 -1.1078 -0.0902  0.0747
 7876TIP3    H245044   6.374   4.293  11.339 -0.8343 -0.5809 -0.7432
 7877TIP3   OH245045   0.562   3.712  16.490  0.1227 -0.0220 -0.0158
 7877TIP3    H145046   0.529   3.793  16.451  0.1525  0.4355  0.9005
 7877TIP3    H245047   0.657   3.719  16.483  0.1195 -0.0764 -0.1244
 7878TIP3   OH245048   1.060   5.996   3.306 -0.6909 -0.4316  0.2875
 7878TIP3    H145049   1.125   6.066   3.303 -1.0397 -0.1237 -1.8317
 7878TIP3    H245050   1.088   5.940   3.378  0.2038  1.2902  1.3390
 7879TIP3   OH245051   3.362   4.626   1.256 -0.0387 -0.5359 -0.2820
 7879TIP3    H145052   3.398   4.711   1.232 -0.6281 -0.3307 -0.4621
 7879TIP3    H245053   3.367   4.574   1.176 -0.4034 -0.4109 -0.3903
 7880TIP3   OH245054   4.931   2.403   5.469  0.5175  0.2438 -0.5130
 7880TIP3    H145055   5.024   2.383   5.481  1.2969  3.6258 -0.0779
 7880TIP3    H245056   4.886   2.341   5.527  2.5645 -0.7178  0.1462
 7881TIP3   OH245057   4.652   1.010  14.344  0.4139  0.0549  1.1079
 7881TIP3    H145058   4.723   1.034  14.403  0.3999 -1.5209  1.8290
 7881TIP3    H245059   4.683   0.930  14.301 -0.7318 -0.4105  1.1078
 7882TIP3   OH245060   5.956   5.305  12.903 -0.2837 -0.1950  0.2940
 7882TIP3    H145061   6.047   5.302  12.931  0.2038  0.3500 -1.1655
 7882TIP3    H245062   5.917   5.376  12.955  0.7041  1.0790 -0.6601
 7883TIP3   OH245063   2.129   2.032  15.202 -0.0239  0.2003 -0.0309
 7883TIP3    H145064   2.204   2.050  15.146 -0.1585 -0.3278 -0.3870
 7883TIP3    H245065   2.117   2.112  15.253  1.2459  0.0149  0.5722
 7884TIP3   OH245066   2.644   6.109  11.149  0.4169  0.1792 -0.4553
 7884TIP3    H145067   2.553   6.103  11.121  0.3739 -0.3755 -0.2230
 7884TIP3    H245068   2.639   6.145  11.238  0.1357 -2.8519  0.9083
 7885TIP3   OH245069   4.448   5.159   4.916  0.2326 -0.3251 -0.3898
 7885TIP3    H145070   4.528   5.108   4.905  0.8389  0.0174  1.9070
 7885TIP3    H245071   4.455   5.195   5.004 -1.4654  1.4895 -0.9373
 7886TIP3   OH245072   1.234   5.312   0.594 -0.2858  0.3749 -0.1888
 7886TIP3    H145073   1.175   5.305   0.520  0.6634  1.8283 -1.1317
 7886TIP3    H245074   1.198   5.385   0.646  1.6089  2.5639 -1.7602
 7887TIP3   OH245075   2.695   5.588   0.940  0.3236  0.2056  0.0299
 7887TIP3    H145076   2.605   5.565   0.916  0.5252  0.3270 -0.8701
 7887TIP3    H245077   2.746   5.509   0.921  0.3752  0.0634  0.7478
 7888TIP3   OH245078   5.079   3.820  16.751 -0.0128  0.3695 -0.3779
 7888TIP3    H145079   5.098   3.866  16.669  2.0920  1.0568  0.4052
 7888TIP3    H245080   5.071   3.889  16.816  0.3201 -0.2347  0.3240
 7889TIP3   OH245081   2.800   5.598   1.949  0.5779  0.6142  0.4058
 7889TIP3    H145082   2.724   5.650   1.975 -0.6328 -1.1320  0.5240
 7889TIP3    H245083   2.800   5.524   2.009  0.9638 -0.6676 -1.1173
 7890TIP3   OH245084   4.070   0.948  15.623  0.1634 -0.0588  0.4776
 7890TIP3    H145085   4.019   1.021  15.660  1.1688 -0.0615  1.9930
 7890TIP3    H245086   4.006   0.879  15.607 -0.8132  1.1346 -1.0190
 7891TIP3   OH245087   0.531   5.671   0.418 -0.6601  0.2437  0.1119
 7891TIP3    H145088   0.558   5.761   0.398  1.2598 -0.1292  0.7805
 7891TIP3    H245089   0.607   5.617   0.393 -1.2790 -1.0554  0.9012
 7892TIP3   OH245090   5.353   6.676  10.638  0.6127  0.0273  0.5864
 7892TIP3    H145091   5.292   6.747  10.622  0.5957  0.4958  2.4285
 7892TIP3    H245092   5.313   6.599  10.599  0.0306  0.7904 -0.3423
 7893TIP3   OH245093   4.962   4.251   1.875  0.4050  0.1446  0.6135
 7893TIP3    H145094   4.970   4.296   1.791  2.3381 -0.3272  0.5077
 7893TIP3    H245095   4.969   4.320   1.941 -0.5550  0.4412  0.4277
 7894TIP3   OH245096   0.467   3.515  12.570  0.1121  0.2044  0.1948
 7894TIP3    H145097   0.470   3.436  12.624  1.2634  0.6280  0.7805
 7894TIP3    H245098   0.458   3.587  12.632  1.1010  0.6742 -0.1908
 7895TIP3   OH245099   3.879   1.244  17.578 -0.7097 -0.0292  0.1576
 7895TIP3    H145100   3.899   1.264  17.487 -2.5552  0.0617 -0.2662
 7895TIP3    H245101   3.952   1.190  17.608 -0.2620 -0.3633 -1.4698
 7896TIP3   OH245102   1.469   0.370  10.839 -0.4968  0.3526 -0.2085
 7896TIP3    H145103   1.525   0.367  10.917  0.6908 -0.9813 -1.0542
 7896TIP3    H245104   1.529   0.392  10.768 -1.6035  1.7586 -0.7373
 7897TIP3   OH245105   3.956   3.897  10.633  0.1847  0.1526 -0.6225
 7897TIP3    H145106   4.005   3.962  10.582  0.6852 -2.1381 -3.2720
 7897TIP3    H245107   4.023   3.839  10.670 -0.3304  0.1072  0.2725
 7898TIP3   OH245108   0.631   0.748  12.431  0.0702 -0.6411  0.2320
 7898TIP3    H145109   0.581   0.672  12.461 -1.4723  0.1046 -0.3647
 7898TIP3    H245110   0.680   0.716  12.355  1.6205 -1.7298  1.6017
 7899TIP3   OH245111   1.780   6.656   0.648 -0.1827 -0.6276  0.1370
 7899TIP3    H145112   1.853   6.660   0.587  0.1910  0.4679  0.6339
 7899TIP3    H245113   1.802   6.584   0.707  0.9220  0.2149  0.7907
 7900TIP3   OH245114   6.421   5.354   5.039  0.3391 -0.6377 -0.2058
 7900TIP3    H145115   6.398   5.446   5.047  0.4316 -0.6961  1.0264
 7900TIP3    H245116   6.344   5.313   4.999  0.4207  0.0150 -1.0374
 7901TIP3   OH245117   3.641   1.619   0.777 -0.3712 -0.2916 -0.2881
 7901TIP3    H145118   3.626   1.693   0.718 -0.8235  0.6542  0.9824
 7901TIP3    H245119   3.556   1.603   0.818  0.1712 -0.2372  0.8996
 7902TIP3   OH245120   1.125   0.107  13.496  0.1898  0.4115  0.2032
 7902TIP3    H145121   1.062   0.179  13.507  0.1714  0.2550  1.2176
 7902TIP3    H245122   1.096   0.062  13.416 -0.9940  0.3408  0.6516
 7903TIP3   OH245123   2.569   3.206   4.301 -0.7269  0.7299  0.1969
 7903TIP3    H145124   2.565   3.150   4.224  0.5949  0.9295 -0.0445
 7903TIP3    H245125   2.491   3.260   4.295  0.4125  2.2987 -2.2477
 7904TIP3   OH245126   0.231   5.738   4.998  0.1707 -0.0932 -0.1633
 7904TIP3    H145127   0.298   5.787   4.951 -1.0447  2.1490  0.3058
 7904TIP3    H245128   0.153   5.794   4.996 -1.1180 -1.7228  0.9995
 7905TIP3   OH245129   2.797   0.839  16.623 -0.4742  0.4233  0.0705
 7905TIP3    H145130   2.752   0.915  16.587  1.1514  0.6153 -1.6978
 7905TIP3    H245131   2.766   0.766  16.568  0.0990  0.2909 -0.0796
 7906TIP3   OH245132   6.000   1.552   2.525  0.3559 -0.1815 -0.5518
 7906TIP3    H145133   6.006   1.558   2.429  2.7875  1.5681 -0.3932
 7906TIP3    H245134   6.080   1.505   2.551  0.0033 -0.1520  0.6337
 7907TIP3   OH245135   2.077   6.253  13.496  0.0440 -0.1824 -0.0337
 7907TIP3    H145136   2.051   6.163  13.517 -2.0649  0.2406 -0.6245
 7907TIP3    H245137   2.083   6.296  13.581  0.0140 -0.6212  0.1970
 7908TIP3   OH245138   1.131   3.518  11.356  0.2104 -0.0940  0.2011
 7908TIP3    H145139   1.090   3.554  11.278 -0.4107  1.2917  1.1337
 7908TIP3    H245140   1.206   3.468  11.322 -1.5023 -1.7115 -1.4423
 7909TIP3   OH245141   3.047   3.645   0.033  0.3260  0.4531 -0.1172
 7909TIP3    H145142   3.117   3.584   0.054 -1.7144 -1.8252  0.6017
 7909TIP3    H245143   2.992   3.647   0.111 -1.3920  0.6943 -1.2757
 7910TIP3   OH245144   4.936   0.921   0.307 -0.0279 -0.3383  0.5314
 7910TIP3    H145145   4.871   0.969   0.358 -0.8435  0.9816 -1.5723
 7910TIP3    H245146   5.003   0.987   0.286  0.2499 -0.8104 -0.1247
 7911TIP3   OH245147   4.795   5.869  15.128  0.2152  0.1883 -0.0163
 7911TIP3    H145148   4.834   5.887  15.214  0.3737 -0.7570  0.1164
 7911TIP3    H245149   4.870   5.849  15.072 -0.0671 -2.0637  0.3388
 7912TIP3   OH245150   0.922   2.220   3.171  0.4051  0.4327 -0.0874
 7912TIP3    H145151   0.877   2.197   3.090  1.0509  0.0335 -0.3353
 7912TIP3    H245152   1.008   2.252   3.143  0.3621  0.9854  0.3958
 7913TIP3   OH245153   1.505   5.177  12.051 -0.1210  0.3341 -0.2351
 7913TIP3    H145154   1.477   5.227  12.128 -0.8149  1.9626 -1.4688
 7913TIP3    H245155   1.598   5.159  12.066 -0.1124  1.1218  0.7312
 7914TIP3   OH245156   3.053   2.862  13.538  0.1143  0.0370 -0.0393
 7914TIP3    H145157   2.990   2.849  13.609  0.1983  1.8723  0.4165
 7914TIP3    H245158   3.034   2.792  13.476 -0.1425 -1.4599  1.6413
 7915TIP3   OH245159   3.597   5.132   6.400 -0.0494  0.1037 -0.1992
 7915TIP3    H145160   3.591   5.217   6.443  0.7856 -0.2834  0.7273
 7915TIP3    H245161   3.507   5.098   6.402 -0.2506  0.6324  0.1002
 7916TIP3   OH245162   0.997   6.382   5.059  0.1926  0.0335 -0.1714
 7916TIP3    H145163   0.988   6.297   5.102  0.0784  0.0017 -0.2590
 7916TIP3    H245164   0.976   6.446   5.127  0.0777 -0.0150 -0.1612
 7917TIP3   OH245165   5.451   1.468   0.133  0.1755 -0.7243  0.4999
 7917TIP3    H145166   5.454   1.550   0.083 -2.6599 -1.1062 -0.5092
 7917TIP3    H245167   5.442   1.496   0.224 -0.6175  0.1426  0.1760
 7918TIP3   OH245168   4.121   2.521  14.299  0.0773 -0.0925 -0.1055
 7918TIP3    H145169   4.192   2.529  14.363  0.2353  0.3210 -0.3259
 7918TIP3    H245170   4.042   2.547  14.346  0.5353  2.7808 -0.7310
 7919TIP3   OH245171   6.003   6.224   4.686 -0.4826  0.5678  0.1923
 7919TIP3    H145172   6.015   6.171   4.765  1.0367  0.5812 -0.0042
 7919TIP3    H245173   5.926   6.278   4.705 -1.6847 -1.2124  0.6483
 7920TIP3   OH245174   5.830   2.366  15.689 -0.9469  0.3001  0.2371
 7920TIP3    H145175   5.819   2.461  15.690 -0.3548  0.3737  0.6095
 7920TIP3    H245176   5.875   2.347  15.771 -0.9993 -0.2936  0.1279
 7921TIP3   OH245177   2.285   0.962   4.304 -0.2761  0.1458  0.1556
 7921TIP3    H145178   2.210   0.910   4.334 -0.5430 -0.2284 -1.1134
 7921TIP3    H245179   2.357   0.934   4.360 -0.9037 -0.0675  0.8686
 7922TIP3   OH245180   2.784   4.109  16.998 -0.0587 -0.6197  0.5042
 7922TIP3    H145181   2.754   4.021  17.022 -0.3165 -1.4824 -2.5240
 7922TIP3    H245182   2.707   4.164  17.011 -0.3662 -1.1442  0.9694
 7923TIP3   OH245183   6.028   3.468  12.532  0.1668  0.2287  0.6786
 7923TIP3    H145184   5.955   3.525  12.507  1.7390  1.2188 -2.1262
 7923TIP3    H245185   6.023   3.462  12.627 -1.6093  2.9581  0.8474
 7924TIP3   OH245186   4.267   6.676  13.404  0.0475  0.6053  0.0858
 7924TIP3    H145187   4.297   6.745  13.462 -1.9951 -0.3914  2.4968
 7924TIP3    H245188   4.217   6.722  13.336  0.1686  1.6209  0.6662
 7925TIP3   OH245189   2.233   3.232  13.804  0.4799  0.4018 -0.0733
 7925TIP3    H145190   2.191   3.264  13.724 -3.5226 -3.4924  0.1257
 7925TIP3    H245191   2.189   3.279  13.875 -1.6060 -1.5290  0.0037
 7926TIP3   OH245192   3.137   2.864  16.125  0.3869 -0.1416 -0.6902
 7926TIP3    H145193   3.093   2.868  16.040  0.4834 -1.2290 -0.7953
 7926TIP3    H245194   3.215   2.919  16.113 -0.0046  0.3498 -1.0537
 7927TIP3   OH245195   6.331   1.194   0.921 -0.4437  0.2216  0.2982
 7927TIP3    H145196   6.347   1.284   0.892  1.2002 -0.3351 -0.5921
 7927TIP3    H245197   6.281   1.154   0.850  1.0641 -0.2901 -0.5152
 7928TIP3   OH245198   1.987   4.644   3.850  0.2886  0.6533 -0.1644
 7928TIP3    H145199   2.080   4.655   3.872  0.0732  0.9719  0.5804
 7928TIP3    H245200   1.974   4.549   3.853  0.9015  0.4939 -1.5833
 7929TIP3   OH245201   1.602   3.906  16.030  0.4976  0.5192 -0.7890
 7929TIP3    H145202   1.528   3.875  16.082  1.6054 -0.1197  0.4650
 7929TIP3    H245203   1.566   3.979  15.979 -1.3518 -0.7092 -1.3528
 7930TIP3   OH245204   2.883   4.397  13.385  0.9627 -0.4078 -0.2012
 7930TIP3    H145205   2.849   4.362  13.467  0.0415 -0.4554 -0.5900
 7930TIP3    H245206   2.805   4.415  13.333  1.4837  0.7529 -0.6111
 7931TIP3   OH245207   3.558   2.250  12.138 -0.2137 -0.1667  0.1786
 7931TIP3    H145208   3.623   2.293  12.081 -0.4715 -0.0300 -0.0149
 7931TIP3    H245209   3.508   2.194  12.078 -1.3606  0.9880  0.0225
 7932TIP3   OH245210   5.341   2.290   4.903 -0.2318  0.2431  0.1730
 7932TIP3    H145211   5.406   2.224   4.877  0.6244  0.8143  0.8146
 7932TIP3    H245212   5.304   2.257   4.985 -1.1708 -0.3473 -0.4608
 7933TIP3   OH245213   2.748   5.907   3.275  0.6418 -0.0696  0.0176
 7933TIP3    H145214   2.736   5.884   3.367 -1.1781 -0.8281 -0.3651
 7933TIP3    H245215   2.803   5.838   3.239  1.3255  0.2083  0.5220
 7934TIP3   OH245216   1.468   1.433   1.181  0.5097  0.1616  0.5638
 7934TIP3    H145217   1.442   1.524   1.199  0.1768  0.4079 -1.0250
 7934TIP3    H245218   1.467   1.426   1.086  1.2276 -1.3255  0.6353
 7935TIP3   OH245219   5.047   6.381  17.045  0.1073 -0.9816  0.2623
 7935TIP3    H145220   5.118   6.442  17.067  0.0253 -0.5855 -0.5302
 7935TIP3    H245221   4.970   6.418  17.087  0.2351 -1.0372  0.5475
 7936TIP3   OH245222   1.851   3.854   1.652 -0.2589  0.4204  0.0198
 7936TIP3    H145223   1.824   3.785   1.713  0.1569  1.3524  1.2975
 7936TIP3    H245224   1.945   3.865   1.669 -0.1837  0.8479 -0.6494
 7937TIP3   OH245225   2.306   6.170   5.689  1.0373 -0.0478 -0.2930
 7937TIP3    H145226   2.304   6.174   5.593 -1.2580  3.5130 -0.3011
 7937TIP3    H245227   2.215   6.159   5.714  1.6752 -1.5163  1.5437
 7938TIP3   OH245228   5.086   2.496   3.454 -0.2223  0.2056 -0.3385
 7938TIP3    H145229   5.101   2.575   3.403 -0.0605  0.5755  0.2739
 7938TIP3    H245230   5.155   2.435   3.426  0.2036  0.6027 -0.1584
 7939TIP3   OH245231   5.155   1.462   4.970 -0.0247  0.3559 -0.7125
 7939TIP3    H145232   5.240   1.436   4.937  0.4748  1.9381 -0.7547
 7939TIP3    H245233   5.093   1.405   4.925  1.0736 -1.8835  0.4630
 7940TIP3   OH245234   0.799   5.463   3.348  0.1248  0.2257  0.2432
 7940TIP3    H145235   0.865   5.452   3.280 -0.7426 -0.6956 -0.4740
 7940TIP3    H245236   0.795   5.558   3.361  0.7836  0.3727 -0.5159
 7941TIP3   OH245237   2.792   0.481  14.435  0.0218 -0.1743  0.3999
 7941TIP3    H145238   2.837   0.405  14.472  2.5569  0.3353 -1.3270
 7941TIP3    H245239   2.781   0.541  14.509  0.1393 -1.2693  1.3255
 7942TIP3   OH245240   6.274   3.361  12.798  0.1094  0.0795 -0.0975
 7942TIP3    H145241   6.293   3.311  12.877 -1.6374  1.0840  1.0220
 7942TIP3    H245242   6.179   3.370  12.798 -0.0748 -0.8337 -2.9397
 7943TIP3   OH245243   3.728   5.947  14.363  0.1765 -0.1489 -0.1574
 7943TIP3    H145244   3.683   5.968  14.282 -1.2249  1.0573  0.8695
 7943TIP3    H245245   3.805   6.003  14.363  0.0792 -0.0163 -0.5793
 7944TIP3   OH245246   5.500   0.562   6.654 -0.5447  0.7923  0.0252
 7944TIP3    H145247   5.486   0.498   6.724 -1.2479 -0.0157 -0.8207
 7944TIP3    H245248   5.516   0.644   6.699  0.1627  0.0646  1.1444
 7945TIP3   OH245249   4.959   2.751   5.012 -0.8183  0.6337  0.7672
 7945TIP3    H145250   4.877   2.712   5.043 -0.8803  0.8407  0.8715
 7945TIP3    H245251   5.027   2.709   5.065 -1.0925  2.5789  2.8543
 7946TIP3   OH245252   3.422   3.785   2.860  0.0480 -0.0303  0.2205
 7946TIP3    H145253   3.373   3.774   2.942  0.2592 -1.3730  0.2018
 7946TIP3    H245254   3.510   3.752   2.881 -0.2493 -1.6047 -0.8672
 7947TIP3   OH245255   3.136   5.105  11.304  0.3052 -0.0229 -0.1975
 7947TIP3    H145256   3.063   5.166  11.312 -1.2783 -1.7340 -0.8253
 7947TIP3    H245257   3.097   5.025  11.270  2.6763 -0.6736 -1.6882
 7948TIP3   OH245258   0.633   2.227   1.413  0.3276 -0.1803 -0.0127
 7948TIP3    H145259   0.725   2.250   1.404  0.7843 -2.1430 -0.9499
 7948TIP3    H245260   0.606   2.267   1.496  1.7356  1.1989 -0.1653
 7949TIP3   OH245261   4.301   1.933  12.406 -0.1078  0.3777  0.0344
 7949TIP3    H145262   4.334   1.998  12.468  1.2651 -1.3903  1.2459
 7949TIP3    H245263   4.258   1.985  12.338  1.0234  2.5566  0.8809
 7950TIP3   OH245264   1.969   4.591  12.086  0.8389  0.0920 -0.2459
 7950TIP3    H145265   1.957   4.686  12.083  2.2315  0.3074  0.3760
 7950TIP3    H245266   1.895   4.559  12.139  0.3075  0.8068 -0.5447
 7951TIP3   OH245267   6.009   4.444   3.646 -0.1027 -0.1548  0.3767
 7951TIP3    H145268   6.034   4.528   3.685 -0.2532 -0.4480  1.1122
 7951TIP3    H245269   5.938   4.411   3.702  0.7367 -1.3167  0.8018
 7952TIP3   OH245270   6.067   6.362   1.785  0.5564  0.1896  0.2360
 7952TIP3    H145271   6.139   6.358   1.721  0.0719 -1.0711 -0.2466
 7952TIP3    H245272   6.025   6.277   1.780 -2.3927  1.5744 -1.1107
 7953TIP3   OH245273   1.940   3.553  10.762  0.3349 -0.2949 -0.3633
 7953TIP3    H145274   1.876   3.551  10.832 -0.9912 -2.5596 -1.5182
 7953TIP3    H245275   1.948   3.646  10.738 -3.6273 -0.0107 -1.1235
 7954TIP3   OH245276   0.517   4.021  11.912 -0.0516  0.1925  0.0322
 7954TIP3    H145277   0.513   3.945  11.971 -1.5521 -2.6440 -3.3541
 7954TIP3    H245278   0.437   4.070  11.931 -1.3188 -1.5388 -0.5575
 7955TIP3   OH245279   1.976   1.211  14.163 -0.0923 -0.1259  0.4756
 7955TIP3    H145280   2.032   1.227  14.239 -0.8144  0.7201  0.8536
 7955TIP3    H245281   2.003   1.125  14.131  1.6291  0.3681  0.4497
 7956TIP3   OH245282   1.081   0.121  16.227  0.1960  0.4767  0.0764
 7956TIP3    H145283   1.152   0.057  16.220 -0.3675 -0.0087 -2.5366
 7956TIP3    H245284   1.120   0.205  16.204 -0.1010  0.1032 -2.0556
 7957TIP3   OH245285   5.826   1.676  14.849  0.1457  0.0334  0.0875
 7957TIP3    H145286   5.815   1.591  14.893  0.9731 -0.3002 -0.3299
 7957TIP3    H245287   5.772   1.669  14.770  0.7393 -0.3620 -0.2875
 7958TIP3   OH245288   1.959   1.078   4.427  0.2825 -0.1083  0.2743
 7958TIP3    H145289   1.878   1.030   4.445 -0.0859  1.0148  1.9354
 7958TIP3    H245290   1.975   1.128   4.508  2.7281 -0.4111  0.0422
 7959TIP3   OH245291   1.013   0.506   1.228  0.3860  0.4892  0.3669
 7959TIP3    H145292   0.935   0.505   1.284 -0.6757  0.6492 -1.0472
 7959TIP3    H245293   0.998   0.578   1.167  0.6496 -0.7883 -1.2669
 7960TIP3   OH245294   6.121   1.426   3.217  0.0488  0.0367 -0.7932
 7960TIP3    H145295   6.051   1.419   3.282  1.4497 -1.6968  0.6088
 7960TIP3    H245296   6.108   1.351   3.160  0.9521 -0.5107 -0.3004
 7961TIP3   OH245297   4.186   5.218   2.779 -0.1801  0.5267  0.0865
 7961TIP3    H145298   4.127   5.261   2.717 -0.3850 -4.4059 -3.8503
 7961TIP3    H245299   4.135   5.145   2.813  2.3911 -1.8277 -0.6795
 7962TIP3   OH245300   5.584   3.634   2.373  0.0754 -0.4022  0.4624
 7962TIP3    H145301   5.671   3.599   2.388  0.0614 -0.5095  0.3075
 7962TIP3    H245302   5.531   3.600   2.445  0.0592 -0.7153  0.3074
 7963TIP3   OH245303   2.741   4.417  11.475 -0.1007  0.5772 -0.1331
 7963TIP3    H145304   2.825   4.392  11.514 -0.0444  1.2379  0.1815
 7963TIP3    H245305   2.685   4.341  11.487  0.0980  0.5591  0.7137
 7964TIP3   OH245306   0.578   2.359  14.909  0.0614  0.2934 -0.0919
 7964TIP3    H145307   0.633   2.339  14.834 -0.0448  1.5673 -0.5426
 7964TIP3    H245308   0.501   2.402  14.872 -1.2548 -1.4061  0.5361
 7965TIP3   OH245309   5.027   6.581  13.161  0.8504  0.0247 -0.2074
 7965TIP3    H145310   4.954   6.641  13.180  0.9880 -0.4172  2.0984
 7965TIP3    H245311   5.104   6.639  13.154  0.6504  0.3029 -0.1432
 7966TIP3   OH245312   0.108   1.006  16.310  0.4522  0.0801  0.7731
 7966TIP3    H145313   0.016   1.017  16.336 -0.4746 -1.5876 -1.3975
 7966TIP3    H245314   0.150   0.967  16.387 -0.1620  2.4479  2.4229
 7967TIP3   OH245315   1.192   3.699  15.930 -0.4435  0.4577  0.4331
 7967TIP3    H145316   1.237   3.665  15.852 -0.3737  0.8771  0.2842
 7967TIP3    H245317   1.218   3.791  15.933 -0.3344  0.4085  1.0356
 7968TIP3   OH245318   4.846   4.848   0.914 -0.4459  0.5201 -0.0194
 7968TIP3    H145319   4.924   4.903   0.912 -0.0841  0.0116 -0.1188
 7968TIP3    H245320   4.796   4.876   0.837  0.8908 -0.9083 -1.5051
 7969TIP3   OH245321   4.794   3.968  15.878 -0.0111 -0.2955  0.1562
 7969TIP3    H145322   4.769   3.994  15.790  2.3328 -0.0342 -0.4881
 7969TIP3    H245323   4.822   4.049  15.920 -0.2547 -0.5646  0.8553
 7970TIP3   OH245324   1.972   2.222   0.750 -0.0990 -0.7834  1.0240
 7970TIP3    H145325   2.058   2.236   0.789  0.8704  0.2640 -1.2696
 7970TIP3    H245326   1.939   2.310   0.731 -0.7236 -1.2159 -0.0223
 7971TIP3   OH245327   1.877   0.619   0.291 -0.2769  0.2723  0.0731
 7971TIP3    H145328   1.968   0.631   0.266 -0.3772 -1.2903 -1.2331
 7971TIP3    H245329   1.871   0.527   0.318 -1.9236 -0.3844 -2.2124
 7972TIP3   OH245330   1.599   2.874   1.762  1.1385  0.2203  0.0919
 7972TIP3    H145331   1.572   2.957   1.723 -0.4926  0.1765  1.0166
 7972TIP3    H245332   1.587   2.809   1.693 -2.3161  0.0354  0.6840
 7973TIP3   OH245333   1.187   1.440  11.518 -0.1963  0.2655  0.0719
 7973TIP3    H145334   1.132   1.437  11.440 -0.2309  0.9118  0.0643
 7973TIP3    H245335   1.211   1.349  11.535  1.0489  0.2460 -1.5586
 7974TIP3   OH245336   5.554   1.471   1.686  0.9007  0.1226 -0.1853
 7974TIP3    H145337   5.605   1.550   1.704  0.2747  0.1298  1.8357
 7974TIP3    H245338   5.490   1.468   1.757  0.6028 -1.9566 -0.4878
 7975TIP3   OH245339   0.034   6.243   5.598  0.0688 -0.2034 -0.1442
 7975TIP3    H145340   0.111   6.262   5.545 -0.0834 -1.7800 -0.9812
 7975TIP3    H245341   0.024   6.148   5.593 -1.2828 -0.1445  0.8749
 7976TIP3   OH245342   3.747   4.916  12.215  0.3368 -0.3696 -0.3397
 7976TIP3    H145343   3.710   4.857  12.149  0.0706 -0.1469 -0.3899
 7976TIP3    H245344   3.688   4.907  12.290  1.0886 -1.2320  0.1646
 7977TIP3   OH245345   3.084   1.531  12.689 -0.0535  0.4646  0.5305
 7977TIP3    H145346   3.071   1.518  12.783 -1.8483  0.2225  0.2795
 7977TIP3    H245347   3.150   1.465  12.665 -0.3735 -0.2051  1.4244
 7978TIP3   OH245348   2.795   4.631   0.513 -0.4822  0.7996 -0.1819
 7978TIP3    H145349   2.713   4.662   0.553 -0.2329 -0.9909  1.8983
 7978TIP3    H245350   2.791   4.535   0.522  1.8457  0.6700  0.0121
 7979TIP3   OH245351   2.955   1.726  13.816 -0.1258 -0.3693  0.4577
 7979TIP3    H145352   2.925   1.714  13.726  0.4881 -0.9532  0.3205
 7979TIP3    H245353   2.998   1.643  13.839  1.2621  0.3708  0.6692
 7980TIP3   OH245354   5.576   4.749   1.110 -0.0349 -0.3028  0.0161
 7980TIP3    H145355   5.547   4.825   1.160 -1.5698 -1.6837  1.3662
 7980TIP3    H245356   5.637   4.704   1.168 -0.7473 -1.1792  0.1115
 7981TIP3   OH245357   0.189   5.250  15.988  0.1196 -0.2976 -0.5524
 7981TIP3    H145358   0.155   5.334  16.020  2.0018  1.4811 -2.8157
 7981TIP3    H245359   0.281   5.250  16.016  0.3292 -1.2436 -1.2099
 7982TIP3   OH245360   5.895   1.070   2.869  0.1713 -0.3550  0.3020
 7982TIP3    H145361   5.887   0.977   2.891  0.8742 -0.4004  0.3861
 7982TIP3    H245362   5.858   1.077   2.781  2.0868 -1.1173 -0.6209
 7983TIP3   OH245363   6.597   3.561  14.693 -0.1575  0.0899  0.2394
 7983TIP3    H145364   6.591   3.590  14.784 -0.9276  0.1822  0.1670
 7983TIP3    H245365   6.551   3.477  14.691 -1.3485  0.7312 -0.3220
 7984TIP3   OH245366   2.611   5.300   0.779 -0.1291  0.7914 -0.0031
 7984TIP3    H145367   2.604   5.219   0.728 -0.4759  0.4745  0.5440
 7984TIP3    H245368   2.691   5.288   0.831 -0.6051  0.4561  0.6663
 7985TIP3   OH245369   1.422   5.780   1.734 -0.7485 -0.3001 -0.1136
 7985TIP3    H145370   1.512   5.811   1.739 -1.0666  0.4832  1.7183
 7985TIP3    H245371   1.383   5.830   1.663  0.5730 -1.6824 -1.9441
 7986TIP3   OH245372   4.634   0.138  11.646 -0.1757  0.3811 -0.4108
 7986TIP3    H145373   4.584   0.218  11.628  2.3952  1.9173 -1.3580
 7986TIP3    H245374   4.576   0.067  11.618 -1.5918  2.0504 -2.0690
 7987TIP3   OH245375   2.985   6.426  13.377 -0.0595  0.5204  0.3920
 7987TIP3    H145376   2.931   6.502  13.399 -2.6090 -1.0913  0.1504
 7987TIP3    H245377   2.966   6.362  13.446 -0.2637 -0.9197 -0.9311
 7988TIP3   OH245378   2.157   2.614  11.142  0.3599  0.2871  0.5889
 7988TIP3    H145379   2.191   2.700  11.166 -2.5109  1.5486  0.5006
 7988TIP3    H245380   2.124   2.625  11.053  1.8325 -1.5730 -0.2709
 7989TIP3   OH245381   4.127   6.198   0.158 -0.5258 -0.0119  0.0446
 7989TIP3    H145382   4.034   6.177   0.155 -0.7969  1.0247  0.6323
 7989TIP3    H245383   4.131   6.280   0.208  0.9359 -1.4388  2.4477
 7990TIP3   OH245384   2.399   1.261  15.927 -0.3365 -0.7390 -0.1892
 7990TIP3    H145385   2.487   1.289  15.902 -0.2982  0.3077  1.0067
 7990TIP3    H245386   2.347   1.340  15.923 -0.7557 -0.9305  1.0822
 7991TIP3   OH245387   6.201   2.371  12.389 -0.0905  0.2143 -0.3528
 7991TIP3    H145388   6.257   2.448  12.389 -0.0306  0.1770  0.2077
 7991TIP3    H245389   6.189   2.350  12.482  1.2952 -1.4568 -0.5158
 7992TIP3   OH245390   0.743   1.699  15.576  0.0927  0.2765  0.5944
 7992TIP3    H145391   0.681   1.712  15.647 -1.8786 -1.6402 -0.6411
 7992TIP3    H245392   0.702   1.740  15.500  0.0876 -1.3097 -0.3213
 7993TIP3   OH245393   5.197   4.100  13.452 -0.3996  0.2458  0.2806
 7993TIP3    H145394   5.233   4.064  13.533 -2.9862  0.0063  1.4187
 7993TIP3    H245395   5.212   4.032  13.387  1.5866  0.3782  0.5317
 7994TIP3   OH245396   0.355   4.487  14.980 -0.1180 -0.0818  0.4720
 7994TIP3    H145397   0.410   4.493  15.058  0.6632  1.6463 -0.1597
 7994TIP3    H245398   0.411   4.447  14.914  0.0110  0.5838  0.1658
 7995TIP3   OH245399   2.340   0.685   5.335 -0.2389  0.0224 -0.2513
 7995TIP3    H145400   2.411   0.658   5.393 -0.6187  0.9348  0.6634
 7995TIP3    H245401   2.364   0.649   5.249  3.0025  2.9665 -0.7985
 7996TIP3   OH245402   4.358   0.182  12.094 -0.3647  0.1978 -0.2238
 7996TIP3    H145403   4.298   0.193  12.020  0.2228 -0.5313 -0.8238
 7996TIP3    H245404   4.417   0.112  12.067  0.2610  0.3553  0.6852
 7997TIP3   OH245405   1.025   4.004   5.398  0.0766  0.1962 -0.2815
 7997TIP3    H145406   1.032   4.073   5.332 -0.0334  0.8565  0.3845
 7997TIP3    H245407   1.073   4.038   5.473 -0.1347 -0.3795  0.1228
 7998TIP3   OH245408   5.149   1.599  12.521  0.0185  0.1250 -0.1598
 7998TIP3    H145409   5.200   1.526  12.486  0.1339  0.9038 -1.6998
 7998TIP3    H245410   5.178   1.607  12.612  2.8108  0.6080 -0.9739
 7999TIP3   OH245411   3.397   2.219  16.536 -0.1019  0.4223 -0.0576
 7999TIP3    H145412   3.322   2.278  16.526  0.9378  1.6217 -1.3961
 7999TIP3    H245413   3.425   2.202  16.446  1.3397  0.1799  0.4123
 8000TIP3   OH245414   3.246   5.183  17.553 -0.5154  0.5427 -0.0481
 8000TIP3    H145415   3.304   5.123  17.507 -0.6408  1.6420 -1.6933
 8000TIP3    H245416   3.174   5.128  17.584 -1.1822 -0.0270 -2.4610
 8001TIP3   OH245417   0.359   0.976   3.379 -0.3148  0.3568 -0.2286
 8001TIP3    H145418   0.357   0.932   3.294  0.3780 -0.0411 -0.0448
 8001TIP3    H245419   0.318   0.915   3.440  1.0291 -0.2320  0.1079
 8002TIP3   OH245420   2.621   0.999   6.109  0.0270  0.3676  0.1058
 8002TIP3    H145421   2.540   1.008   6.160 -1.2779 -1.1776 -1.5198
 8002TIP3    H245422   2.674   0.937   6.159  0.2970  1.5040  1.2640
 8003TIP3   OH245423   5.614   5.198  12.953  0.1616 -0.0458 -0.1131
 8003TIP3    H145424   5.579   5.236  13.034  1.3284  0.7371  0.0671
 8003TIP3    H245425   5.552   5.225  12.885  0.5299  1.5809  0.1348
 8004TIP3   OH245426   4.479   5.586  16.991  0.1111 -0.4318 -0.4737
 8004TIP3    H145427   4.402   5.621  17.036 -0.1917 -0.7691 -0.7221
 8004TIP3    H245428   4.553   5.611  17.046  0.1563  2.4394 -1.6738
 8005TIP3   OH245429   2.636   5.854   4.579 -0.2969  0.1345 -0.1389
 8005TIP3    H145430   2.622   5.855   4.485  0.9677  2.2428 -0.3832
 8005TIP3    H245431   2.614   5.765   4.606  0.1599 -0.7866 -2.5441
 8006TIP3   OH245432   6.462   2.614  13.985 -1.0318 -0.0539  0.3577
 8006TIP3    H145433   6.390   2.573  14.033 -0.5870 -1.1083  0.1535
 8006TIP3    H245434   6.473   2.560  13.907  0.3417 -0.2534  0.6601
 8007TIP3   OH245435   0.963   1.529   2.985 -0.3267  0.0119 -0.4181
 8007TIP3    H145436   0.924   1.615   3.004 -3.1137 -0.8774 -1.6136
 8007TIP3    H245437   0.978   1.531   2.890 -0.3451 -0.7979 -0.4379
 8008TIP3   OH245438   2.122   1.798   2.204  0.4426 -0.3069 -0.5310
 8008TIP3    H145439   2.045   1.822   2.153 -0.8709 -2.3965  0.3428
 8008TIP3    H245440   2.130   1.867   2.269  0.4525  0.8998 -1.7681
 8009TIP3   OH245441   6.380   1.745   1.378 -0.1419  0.6843  0.0305
 8009TIP3    H145442   6.459   1.787   1.413  0.5084 -0.2877 -0.2118
 8009TIP3    H245443   6.401   1.652   1.378 -0.9891  0.4753 -0.8039
 8010TIP3   OH245444   2.086   3.359   6.231 -0.6370 -0.2882 -0.0795
 8010TIP3    H145445   2.176   3.391   6.231 -0.5967 -0.2369 -2.2316
 8010TIP3    H245446   2.034   3.432   6.266  0.0267  0.1306  0.0362
 8011TIP3   OH245447   4.825   4.402   3.641 -0.3001 -0.3224 -0.6388
 8011TIP3    H145448   4.731   4.405   3.656 -0.3377 -0.2415 -0.8863
 8011TIP3    H245449   4.861   4.364   3.721 -0.6350 -1.3123 -0.9399
 8012TIP3   OH245450   2.416   2.241  13.281 -0.2241  0.1009  0.0355
 8012TIP3    H145451   2.334   2.275  13.244 -1.3560 -0.1734  2.1333
 8012TIP3    H245452   2.447   2.311  13.338  0.0622 -0.4805  0.6059
 8013TIP3   OH245453   3.161   6.106   1.394  0.4655  0.2843  0.2203
 8013TIP3    H145454   3.218   6.118   1.470 -0.7779  1.1363  1.0671
 8013TIP3    H245455   3.179   6.017   1.363 -0.8824 -1.1391  3.1709
 8014TIP3   OH245456   3.499   3.113   3.147 -0.0099  0.0266 -0.2033
 8014TIP3    H145457   3.494   3.023   3.178  0.7867 -0.8937 -2.5547
 8014TIP3    H245458   3.538   3.161   3.220  0.9521 -1.8254  0.5695
 8015TIP3   OH245459   2.178   6.507  12.878  0.3360 -0.3855 -0.0472
 8015TIP3    H145460   2.183   6.589  12.827 -0.3842 -0.9365 -1.0402
 8015TIP3    H245461   2.269   6.478  12.885  0.6700  0.7530  0.7783
 8016TIP3   OH245462   3.352   4.068   5.425 -0.0480  0.2731 -0.2241
 8016TIP3    H145463   3.428   4.029   5.382  1.2407 -0.0897  2.2177
 8016TIP3    H245464   3.301   3.993   5.456  0.0061  0.5040  0.4399
 8017TIP3   OH245465   2.534   3.074  12.837 -0.3272 -0.6918 -0.2452
 8017TIP3    H145466   2.469   3.098  12.904  0.4520  2.1156 -0.3930
 8017TIP3    H245467   2.481   3.043  12.763 -1.2801 -1.9307  0.8891
 8018TIP3   OH245468   0.555   5.892   2.688  0.3277 -0.3613 -0.6538
 8018TIP3    H145469   0.581   5.970   2.737 -1.5448 -0.1318  0.0714
 8018TIP3    H245470   0.591   5.906   2.600  0.8948  0.8234 -0.2533
 8019TIP3   OH245471   0.565   5.234  12.306  0.3328 -0.1088  0.7727
 8019TIP3    H145472   0.593   5.247  12.396  2.3691 -1.6961  0.4345
 8019TIP3    H245473   0.604   5.151  12.280 -2.9063 -1.3808 -0.5777
 8020TIP3   OH245474   6.327   1.142  15.949 -0.1305  0.3205 -0.4559
 8020TIP3    H145475   6.412   1.127  15.909  0.5452 -0.9987  1.3424
 8020TIP3    H245476   6.266   1.090  15.896  0.7073 -1.2254  0.0335
 8021TIP3   OH245477   0.659   5.350   5.699  0.2553 -0.0449 -0.2095
 8021TIP3    H145478   0.631   5.286   5.633  0.7103  0.1942 -0.6379
 8021TIP3    H245479   0.620   5.318   5.780  0.1778 -0.6669 -0.4820
 8022TIP3   OH245480   4.431   3.074   2.080 -0.9607  0.2330 -0.2449
 8022TIP3    H145481   4.512   3.124   2.074 -0.9437  0.7827  2.8235
 8022TIP3    H245482   4.365   3.130   2.040 -0.4248  1.4639  0.5295
 8023TIP3   OH245483   4.393   2.972   6.687 -0.1016 -0.0849 -0.3245
 8023TIP3    H145484   4.430   3.034   6.623  1.3629 -0.4092  0.1704
 8023TIP3    H245485   4.393   2.888   6.642 -1.8818  0.1912 -0.9171
 8024TIP3   OH245486   0.206   2.693  11.477 -0.6239  0.4932  0.6739
 8024TIP3    H145487   0.143   2.763  11.462  1.3803  2.0168 -1.4121
 8024TIP3    H245488   0.252   2.683  11.393 -0.4684 -3.0345  1.0276
 8025TIP3   OH245489   1.056   4.130   3.357  0.0890  0.2103  0.1220
 8025TIP3    H145490   1.136   4.167   3.393  0.3059  0.2700 -0.4204
 8025TIP3    H245491   1.054   4.040   3.390  0.4058  0.1921  0.0930
 8026TIP3   OH245492   6.127   5.370  14.533 -0.2523  0.5059 -0.3531
 8026TIP3    H145493   6.216   5.380  14.567  1.0276  0.2842 -3.3206
 8026TIP3    H245494   6.100   5.282  14.560  0.2225  0.7224  0.9053
 8027TIP3   OH245495   4.920   5.617   0.725 -0.1229 -0.3617  0.5717
 8027TIP3    H145496   4.865   5.682   0.682  0.5802  0.2680  0.5959
 8027TIP3    H245497   4.912   5.538   0.671 -0.5847 -0.1050  0.2607
 8028TIP3   OH245498   1.375   5.064  17.588 -0.0155  0.2201  0.1092
 8028TIP3    H145499   1.386   5.132  17.654 -1.6000  0.2214  0.4011
 8028TIP3    H245500   1.283   5.070  17.562  0.5394  0.1460 -2.0231
 8029TIP3   OH245501   2.387   4.652  13.207 -0.4447 -0.4847 -0.4784
 8029TIP3    H145502   2.422   4.709  13.139 -5.8453  1.9119 -1.8232
 8029TIP3    H245503   2.406   4.564  13.176  3.3944  0.4244 -1.2217
 8030TIP3   OH245504   0.638   3.298   4.178 -0.0761 -0.0506  0.0721
 8030TIP3    H145505   0.733   3.313   4.181 -0.3415  2.5262 -1.5683
 8030TIP3    H245506   0.605   3.337   4.259  0.1538  0.0656  0.1091
 8031TIP3   OH245507   4.063   4.948  13.023  0.4709  0.1456 -0.0941
 8031TIP3    H145508   4.015   4.873  13.058 -1.1895  1.7363  1.1700
 8031TIP3    H245509   4.136   4.959  13.084 -0.1251  0.4478  0.5779
 8032TIP3   OH245510   5.098   1.014  15.712  0.2003  0.2797 -0.1816
 8032TIP3    H145511   5.172   0.962  15.742  1.4187  0.9976 -1.7704
 8032TIP3    H245512   5.073   0.975  15.628  0.5976  1.6722 -0.9887
 8033TIP3   OH245513   0.940   1.035  16.833 -0.2091 -0.6114  0.1635
 8033TIP3    H145514   0.957   0.953  16.879 -1.3853 -1.2203 -0.4562
 8033TIP3    H245515   0.847   1.031  16.809 -0.1622  0.6743 -0.3218
 8034TIP3   OH245516   2.568   0.610   3.983 -0.3371 -0.0184  0.0068
 8034TIP3    H145517   2.658   0.617   4.015  0.0841 -1.4502 -0.7856
 8034TIP3    H245518   2.575   0.622   3.888 -0.5891 -2.6758 -0.4085
 8035TIP3   OH245519   6.591   3.704   1.081  0.1520  0.1818 -0.3743
 8035TIP3    H145520   6.625   3.789   1.110  0.1093  0.1403 -0.2023
 8035TIP3    H245521   6.499   3.705   1.108  0.7724 -0.9985  2.0614
 8036TIP3   OH245522   5.684   3.552   3.291  0.1237 -0.7112 -0.4696
 8036TIP3    H145523   5.640   3.506   3.219 -1.8452  0.5680 -0.1473
 8036TIP3    H245524   5.725   3.627   3.249 -0.3286 -0.4161 -0.3916
 8037TIP3   OH245525   3.859   5.574  14.444 -0.5716 -0.2257  0.4145
 8037TIP3    H145526   3.879   5.516  14.517 -0.9306 -2.3459 -1.0722
 8037TIP3    H245527   3.945   5.600  14.409 -0.3980 -0.5896  0.5661
 8038TIP3   OH245528   0.908   2.286   2.225  0.3422  0.1960 -0.2407
 8038TIP3    H145529   0.906   2.358   2.289  0.3474  0.4459 -0.5200
 8038TIP3    H245530   0.946   2.325   2.147  1.6080 -0.4492  0.0229
 8039TIP3   OH245531   0.910   5.738  14.547 -0.0816 -0.4627 -0.0570
 8039TIP3    H145532   0.897   5.738  14.453  1.6306  2.0088 -0.3743
 8039TIP3    H245533   0.821   5.741  14.583 -0.7267  0.3432 -1.6403
 8040TIP3   OH245534   5.466   4.291   2.181 -0.1787 -0.3081 -0.2333
 8040TIP3    H145535   5.459   4.195   2.182 -0.2527 -0.3057 -0.4981
 8040TIP3    H245536   5.536   4.310   2.243 -0.1562 -0.5353 -0.1868
 8041TIP3   OH245537   0.661   6.206   5.662 -0.3588  0.0696 -0.1261
 8041TIP3    H145538   0.671   6.298   5.641 -0.3143  0.4167  1.2694
 8041TIP3    H245539   0.727   6.190   5.730 -1.5032 -0.5237  0.9017
 8042TIP3   OH245540   6.648   5.458   5.523  0.2846  0.4166  0.0208
 8042TIP3    H145541   6.602   5.383   5.486  1.8567 -0.7814  0.3796
 8042TIP3    H245542   6.582   5.505   5.574 -1.3969  0.8494 -2.3977
 8043TIP3   OH245543   4.142   4.838  12.769 -0.7747  0.5477  0.2799
 8043TIP3    H145544   4.158   4.931  12.784  2.4029  0.0907  0.4170
 8043TIP3    H245545   4.141   4.799  12.856  0.1057  0.1759  0.1294
 8044TIP3   OH245546   6.251   5.787  14.633  0.2515  0.9421  0.1066
 8044TIP3    H145547   6.187   5.858  14.644 -0.7093  0.5413 -2.2396
 8044TIP3    H245548   6.335   5.832  14.627  0.4646  1.4299  4.1124
 8045TIP3   OH245549   6.364   4.794  12.519  0.0130  0.6588  0.1984
 8045TIP3    H145550   6.301   4.724  12.538  1.6378 -0.7001  0.8872
 8045TIP3    H245551   6.406   4.812  12.604  0.6189  1.4488 -0.2588
 8046TIP3   OH245552   4.570   4.755  11.783  0.3509 -0.5508 -0.1752
 8046TIP3    H145553   4.480   4.754  11.814  0.9735  0.5856  1.9119
 8046TIP3    H245554   4.569   4.704  11.702 -2.2270 -0.1472 -0.4674
 8047TIP3   OH245555   3.736   6.034   2.305 -0.0215 -0.1710  0.0107
 8047TIP3    H145556   3.768   6.027   2.215  0.3112 -0.3741  0.1431
 8047TIP3    H245557   3.762   6.121   2.334 -2.2066  0.8573 -0.8820
 8048TIP3   OH245558   3.335   3.738   3.930  0.1164 -0.4201  0.0529
 8048TIP3    H145559   3.255   3.780   3.900 -0.3878 -1.8373 -0.6742
 8048TIP3    H245560   3.333   3.746   4.026 -2.1289 -2.4937  0.2581
 8049TIP3   OH245561   1.678   5.032   2.554 -0.2528  0.0023  0.1534
 8049TIP3    H145562   1.765   5.070   2.568 -0.6827  0.8297  0.6633
 8049TIP3    H245563   1.679   5.001   2.464  0.2541  0.8628 -0.1481
 8050TIP3   OH245564   4.590   1.025  11.071 -0.3542 -0.4770 -0.4238
 8050TIP3    H145565   4.631   0.939  11.078  1.6078  0.4007 -0.6734
 8050TIP3    H245566   4.657   1.087  11.101 -1.6651  0.9917 -0.3765
 8051TIP3   OH245567   0.922   3.056   5.693 -0.1421  0.2239 -0.2750
 8051TIP3    H145568   0.976   2.977   5.697  0.4393  0.6410  0.4382
 8051TIP3    H245569   0.857   3.038   5.625 -1.7951 -1.9673  1.7644
 8052TIP3   OH245570   2.720   3.222  17.023 -0.5328 -0.5793 -0.5119
 8052TIP3    H145571   2.639   3.183  16.990  1.5569 -4.3972 -1.6612
 8052TIP3    H245572   2.786   3.155  17.010  2.8682  2.2823  0.5176
 8053TIP3   OH245573   6.510   4.368  16.091  0.7036 -0.0560 -0.0575
 8053TIP3    H145574   6.421   4.354  16.060 -0.1974 -0.0213  2.2509
 8053TIP3    H245575   6.502   4.440  16.154  2.5207  0.4857 -0.3848
 8054TIP3   OH245576   4.637   0.517  14.285 -0.0377  0.2070 -0.5605
 8054TIP3    H145577   4.706   0.473  14.236  0.3010 -1.6824  1.4598
 8054TIP3    H245578   4.682   0.586  14.335  0.8747 -2.1133  2.1074
 8055TIP3   OH245579   0.246   4.112  15.476 -0.1120 -0.0957 -0.2808
 8055TIP3    H145580   0.223   4.053  15.548 -0.8993 -1.1578 -1.3488
 8055TIP3    H245581   0.263   4.053  15.402  0.1520  0.9808 -1.1085
 8056TIP3   OH245582   1.423   1.208  10.321 -0.1312  0.3788  0.0612
 8056TIP3    H145583   1.344   1.179  10.366 -0.3354  0.2924 -0.3563
 8056TIP3    H245584   1.421   1.304  10.327 -0.8237  0.4348 -0.8875
 8057TIP3   OH245585   4.546   2.692  14.381  0.2708  0.1502  0.0094
 8057TIP3    H145586   4.606   2.686  14.455 -1.7718 -0.4951  1.6797
 8057TIP3    H245587   4.562   2.779  14.345  1.1814  0.5427  1.2923
 8058TIP3   OH245588   4.629   2.097   1.908  0.5887  0.1648 -0.6231
 8058TIP3    H145589   4.689   2.052   1.849  0.4653  0.5205 -1.0198
 8058TIP3    H245590   4.592   2.027   1.962  1.0867 -0.1002 -0.6131
 8059TIP3   OH245591   6.399   2.728  12.151 -0.8350  0.4673  1.2236
 8059TIP3    H145592   6.404   2.796  12.084  1.0538 -0.7860  0.0124
 8059TIP3    H245593   6.404   2.646  12.103 -0.5190 -0.4961  2.8195
 8060TIP3   OH245594   0.683   4.085   1.813  0.5692  0.1200  0.0331
 8060TIP3    H145595   0.777   4.084   1.831  0.5585  0.1792  0.0952
 8060TIP3    H245596   0.664   4.176   1.791  0.2536  0.4465  1.5157
 8061TIP3   OH245597   5.050   6.214   4.224 -0.1388  0.6686 -0.2021
 8061TIP3    H145598   5.109   6.142   4.245  0.0164  1.5427  2.7578
 8061TIP3    H245599   5.096   6.264   4.157  0.6655 -0.7895 -0.8036
 8062TIP3   OH245600   1.869   1.382  12.808  0.2091  0.0975 -0.4308
 8062TIP3    H145601   1.785   1.426  12.793  0.0598  0.6561  1.6708
 8062TIP3    H245602   1.846   1.289  12.818 -0.1077  0.1954 -0.2455
 8063TIP3   OH245603   5.134   0.017  13.930  0.3401  0.2425  0.6823
 8063TIP3    H145604   5.203   0.081  13.946  0.5166  0.0294  0.7721
 8063TIP3    H245605   5.153  -0.019  13.843 -1.0431  1.9392 -0.3921
 8064TIP3   OH245606   0.799   6.623   2.607 -0.2295  0.0411 -0.3450
 8064TIP3    H145607   0.799   6.547   2.664  2.0091 -0.6325 -1.1279
 8064TIP3    H245608   0.758   6.592   2.526  2.8913 -1.2064 -1.5807
 8065TIP3   OH245609   4.524   3.777   5.453 -0.3887  0.1995  0.1727
 8065TIP3    H145610   4.585   3.734   5.513 -2.9476 -2.4288  1.1479
 8065TIP3    H245611   4.578   3.804   5.379  2.4120  0.9211  2.3112
 8066TIP3   OH245612   0.224   5.613   4.653 -0.6530 -0.3339 -0.1501
 8066TIP3    H145613   0.302   5.619   4.709 -0.8271  1.2405 -0.0337
 8066TIP3    H245614   0.258   5.588   4.567  0.2515  1.9994 -0.5487
 8067TIP3   OH245615   4.220   1.063  16.432 -0.5715  0.4932 -1.0029
 8067TIP3    H145616   4.291   1.101  16.379  1.1747 -1.0431  0.1242
 8067TIP3    H245617   4.254   0.979  16.461 -1.9231  0.7309  1.5671
 8068TIP3   OH245618   0.528   6.016  11.033 -0.3413  0.1855  0.7586
 8068TIP3    H145619   0.503   6.019  11.126 -1.7656 -1.0868  0.4621
 8068TIP3    H245620   0.463   6.072  10.990 -0.0985  0.2248  0.4466
 8069TIP3   OH245621   3.068   0.681  13.549 -0.1237  0.4179 -0.9240
 8069TIP3    H145622   3.030   0.637  13.473 -0.1109 -1.3106  0.0255
 8069TIP3    H245623   3.162   0.665  13.541  0.0162  1.3394 -1.2085
 8070TIP3   OH245624   5.368   1.795   1.440  0.6236  0.2769 -0.4486
 8070TIP3    H145625   5.377   1.704   1.410 -1.1259 -0.2385  0.4454
 8070TIP3    H245626   5.274   1.812   1.438  0.6266  1.0380  2.2523
 8071TIP3   OH245627   1.783   3.593  14.874  0.3958 -0.3354  0.0600
 8071TIP3    H145628   1.734   3.666  14.913  0.8183 -0.5744  1.0707
 8071TIP3    H245629   1.744   3.582  14.787  0.5258  1.2911 -0.2401
 8072TIP3   OH245630   6.042   0.669  15.851  0.0217 -0.1746  0.6278
 8072TIP3    H145631   5.993   0.604  15.901  0.0697 -0.6613  0.0473
 8072TIP3    H245632   5.976   0.728  15.816 -0.0314  0.0175  1.0393
 8073TIP3   OH245633   6.339   4.756   1.048 -0.8410 -0.4813 -0.8810
 8073TIP3    H145634   6.267   4.755   1.112 -0.6863  0.9375 -0.6463
 8073TIP3    H245635   6.417   4.736   1.100 -0.7017  0.7692 -0.5784
 8074TIP3   OH245636   3.270   5.284   3.938  0.7441 -0.1566  0.1948
 8074TIP3    H145637   3.339   5.244   3.991  1.0706  0.1004 -0.0295
 8074TIP3    H245638   3.260   5.224   3.864  1.5268  0.3755 -0.3580
 8075TIP3   OH245639   3.076   1.323  14.925 -0.3003  0.2525 -0.0278
 8075TIP3    H145640   3.051   1.405  14.882  0.3995  1.1961  1.3099
 8075TIP3    H245641   3.098   1.264  14.853  0.4554  1.6550 -0.9832
 8076TIP3   OH245642   0.258   2.956  14.852 -0.0767  0.3556 -0.1417
 8076TIP3    H145643   0.282   3.048  14.845  0.5454  0.2792  0.7969
 8076TIP3    H245644   0.281   2.932  14.942 -0.1450 -0.7405 -0.4008
 8077TIP3   OH245645   4.327   5.323   4.721  0.7157 -0.2368 -0.0573
 8077TIP3    H145646   4.372   5.265   4.782  0.0462  0.6825  1.3441
 8077TIP3    H245647   4.343   5.411   4.755 -0.7859  0.2032 -0.4361
 8078TIP3   OH245648   1.784   3.201  11.744 -0.6173  0.4358  0.2657
 8078TIP3    H145649   1.810   3.205  11.652  0.7576 -2.2882  0.4194
 8078TIP3    H245650   1.866   3.187  11.792 -1.4687  0.2745  1.7649
 8079TIP3   OH245651   4.343   0.853  16.800 -0.0312 -0.4162 -0.2735
 8079TIP3    H145652   4.423   0.801  16.794  0.7985  0.7979 -0.1261
 8079TIP3    H245653   4.303   0.824  16.882  1.2772  0.3076  0.6705
 8080TIP3   OH245654   4.698   0.851  14.133 -0.1354  0.5093 -0.1497
 8080TIP3    H145655   4.692   0.778  14.071  1.2156  1.2237 -1.1887
 8080TIP3    H245656   4.622   0.906  14.113 -1.5145 -0.8664  1.0582
 8081TIP3   OH245657   4.849   5.965   1.012  0.2087 -0.1198 -0.7049
 8081TIP3    H145658   4.837   6.010   0.928  0.1077  1.9826  0.3687
 8081TIP3    H245659   4.943   5.950   1.018  0.6744  2.5571  0.0886
 8082TIP3   OH245660   1.556   3.596  12.638  0.8450  0.1541  0.2813
 8082TIP3    H145661   1.483   3.647  12.673 -0.5059 -3.0657  2.7873
 8082TIP3    H245662   1.619   3.593  12.710  1.5789 -0.3853 -0.3764
 8083TIP3   OH245663   0.061   6.500  10.586  0.2800 -0.1562  0.3173
 8083TIP3    H145664   0.119   6.450  10.528  0.2540  0.4553 -0.2554
 8083TIP3    H245665   0.097   6.589  10.585 -0.9427  0.3540 -0.4471
 8084TIP3   OH245666   2.142   6.523  15.001 -0.3462 -0.3685 -0.1898
 8084TIP3    H145667   2.155   6.531  15.095  2.2259  1.5038 -0.6143
 8084TIP3    H245668   2.053   6.556  14.986 -0.5082  0.0462  1.4747
 8085TIP3   OH245669   2.682   1.102   2.193 -0.7518 -0.2058  0.8619
 8085TIP3    H145670   2.621   1.099   2.267 -0.7289 -0.2277  0.8799
 8085TIP3    H245671   2.644   1.167   2.133 -0.9123 -0.3854  0.7666
 8086TIP3   OH245672   2.456   4.348  15.208  0.2594  0.2157  0.0844
 8086TIP3    H145673   2.420   4.282  15.268  0.4073 -0.0754 -0.1480
 8086TIP3    H245674   2.394   4.421  15.213 -1.6010 -1.0924 -1.9476
 8087TIP3   OH245675   1.879   0.461  14.110  0.2259 -0.4195  0.6257
 8087TIP3    H145676   1.818   0.520  14.154 -0.2344  1.2986 -2.1418
 8087TIP3    H245677   1.949   0.448  14.174 -1.4499  0.0979  2.6875
 8088TIP3   OH245678   0.911   4.591   5.509 -0.7531  0.2722 -0.3028
 8088TIP3    H145679   0.979   4.652   5.482 -0.9786  1.7624  2.2363
 8088TIP3    H245680   0.832   4.645   5.517 -1.2642 -0.5839  0.7434
 8089TIP3   OH245681   2.686   4.407  12.507  0.1364 -0.1265 -0.7187
 8089TIP3    H145682   2.606   4.458  12.518  0.0129  0.1680 -2.6435
 8089TIP3    H245683   2.682   4.340  12.576 -2.1529 -0.5977 -1.2291
 8090TIP3   OH245684   0.861   4.640  13.489 -0.2908  0.0674  0.0401
 8090TIP3    H145685   0.819   4.558  13.516  0.6498  0.0241  1.4973
 8090TIP3    H245686   0.872   4.631  13.394 -1.8847 -0.6735 -0.1087
 8091TIP3   OH245687   5.449   1.427  14.229  0.2000  0.1702 -0.0549
 8091TIP3    H145688   5.528   1.459  14.272 -1.2473  3.4790  0.4816
 8091TIP3    H245689   5.393   1.505  14.221 -2.3866 -1.6968 -1.7931
 8092TIP3   OH245690   5.226   4.393   5.200 -0.0176 -0.2156 -0.0186
 8092TIP3    H145691   5.275   4.342   5.265 -0.3214 -0.7163 -0.1788
 8092TIP3    H245692   5.291   4.416   5.134  0.0703 -0.6089 -0.0724
 8093TIP3   OH245693   1.555   0.243  16.113  0.1332  0.2601 -0.0790
 8093TIP3    H145694   1.608   0.182  16.061  1.1846  0.8983  0.2064
 8093TIP3    H245695   1.579   0.330  16.080  0.4165  0.6452  1.0803
 8094TIP3   OH245696   0.722   5.705   1.949  0.1814 -0.4837  0.0371
 8094TIP3    H145697   0.782   5.730   1.879  0.0057  1.1570  0.4307
 8094TIP3    H245698   0.738   5.611   1.962  0.8127 -0.6340 -1.5970
 8095TIP3   OH245699   1.161   1.444   1.298  0.1787 -0.1053 -0.2345
 8095TIP3    H145700   1.232   1.420   1.239 -0.4625 -0.9722 -0.6760
 8095TIP3    H245701   1.205   1.475   1.377  1.0499 -0.8159 -0.4207
 8096TIP3   OH245702   1.539   1.519  14.453 -0.4047  0.0497  0.4083
 8096TIP3    H145703   1.475   1.483  14.392 -1.2545  0.5066  1.0033
 8096TIP3    H245704   1.592   1.444  14.480  0.3662 -0.0801 -1.2903
 8097TIP3   OH245705   1.902   4.539   1.067  0.0991  0.1062 -0.3437
 8097TIP3    H145706   1.968   4.547   0.998  1.2256  2.1446  0.8782
 8097TIP3    H245707   1.886   4.445   1.074  0.3540 -0.1976 -2.9541
 8098TIP3   OH245708   5.603   5.004  15.771  0.1902  0.1520  0.2534
 8098TIP3    H145709   5.571   4.961  15.691 -0.6074  2.3395 -0.6919
 8098TIP3    H245710   5.695   4.979  15.777 -0.4989 -2.7522  0.5743
 8099TIP3   OH245711   3.895   1.899  16.509 -0.0021 -0.1479  0.4560
 8099TIP3    H145712   3.954   1.928  16.578 -0.3367  0.0419  0.6686
 8099TIP3    H245713   3.860   1.816  16.541  1.9911 -1.5437 -0.7498
 8100TIP3   OH245714   5.250   1.432  14.464 -0.2681 -1.0069 -0.0406
 8100TIP3    H145715   5.306   1.508  14.451 -0.9736 -0.3155  0.8204
 8100TIP3    H245716   5.209   1.447  14.550 -1.4297 -1.7091 -0.4509
 8101TIP3   OH245717   1.089   1.908   6.204  0.0775 -0.4319  0.1019
 8101TIP3    H145718   1.102   1.854   6.126 -0.2191  2.9729 -2.5217
 8101TIP3    H245719   1.174   1.948   6.220  0.1696 -1.1853  1.7013
 8102TIP3   OH245720   3.336   3.718   2.598 -0.6335 -0.2585 -0.0860
 8102TIP3    H145721   3.240   3.724   2.597 -0.5610  1.2827  0.3954
 8102TIP3    H245722   3.362   3.759   2.681  0.4797  0.1442 -0.6130
 8103TIP3   OH245723   6.390   4.766   0.658  0.4967  0.2767  0.7128
 8103TIP3    H145724   6.355   4.696   0.603  1.3747  1.7682 -1.9306
 8103TIP3    H245725   6.353   4.847   0.620  1.6559  1.4196  1.9159
 8104TIP3   OH245726   3.910   5.191   4.010  0.0695 -0.2043  0.4642
 8104TIP3    H145727   3.840   5.131   4.038 -1.1793  1.6223  1.4368
 8104TIP3    H245728   3.972   5.191   4.082 -1.0496  1.3131  1.4728
 8105TIP3   OH245729   5.855   1.557  12.498  0.4653 -0.3381 -0.1654
 8105TIP3    H145730   5.914   1.632  12.505  1.8895 -1.4764  0.3263
 8105TIP3    H245731   5.771   1.591  12.529  1.3501  0.7577  1.1701
 8106TIP3   OH245732   3.300   3.030  13.183 -0.4724  0.0662  0.1876
 8106TIP3    H145733   3.297   2.938  13.159 -1.0121  0.4248 -1.2000
 8106TIP3    H245734   3.380   3.039  13.235 -0.3081 -1.1325  0.1613
 8107TIP3   OH245735   4.811   4.372   1.099 -0.5771  0.3038 -0.6802
 8107TIP3    H145736   4.810   4.454   1.050 -0.6461 -0.0793 -1.3187
 8107TIP3    H245737   4.865   4.313   1.047 -0.6102 -0.0904 -0.2723
 8108TIP3   OH245738   4.235   0.387  17.290 -0.4143  0.5114 -0.1990
 8108TIP3    H145739   4.323   0.386  17.253 -0.2777  1.3449  0.0877
 8108TIP3    H245740   4.181   0.427  17.222 -1.1672 -2.6074 -1.5935
 8109TIP3   OH245741   6.316   2.170  11.291  0.4382 -0.5103 -0.2661
 8109TIP3    H145742   6.320   2.242  11.229 -1.9958 -1.4042 -1.5989
 8109TIP3    H245743   6.391   2.114  11.268  0.4947 -0.0142 -1.3438
 8110TIP3   OH245744   4.317   0.049   4.245  0.3813 -0.5475  0.1921
 8110TIP3    H145745   4.350  -0.038   4.221  1.0742 -0.3533  0.4345
 8110TIP3    H245746   4.277   0.082   4.165 -0.3312 -1.2871  0.2250
 8111TIP3   OH245747   2.109   0.967  14.132  0.6530 -0.0500 -0.1286
 8111TIP3    H145748   2.118   0.963  14.227  1.7666 -0.6586 -0.2423
 8111TIP3    H245749   2.198   0.978  14.100  0.1922  1.1635 -1.0781
 8112TIP3   OH245750   2.584   5.573   4.570 -0.1258  0.0641  0.2970
 8112TIP3    H145751   2.621   5.566   4.482 -0.2046 -1.1582  0.3490
 8112TIP3    H245752   2.525   5.497   4.578 -2.2670  1.6308  0.4086
 8113TIP3   OH245753   1.457   0.113  12.972  0.1103  0.2520 -0.1188
 8113TIP3    H145754   1.493   0.054  13.038 -0.9063 -1.5177 -1.0578
 8113TIP3    H245755   1.406   0.177  13.022 -1.3478 -1.5490  0.8491
 8114TIP3   OH245756   3.086   3.274  11.412  0.2634 -0.2227 -0.3070
 8114TIP3    H145757   3.033   3.208  11.368 -0.4463 -1.0612  1.6796
 8114TIP3    H245758   3.079   3.252  11.505 -1.0555  3.3500  0.6210
 8115TIP3   OH245759   6.384   3.275  14.981  0.3626 -0.4609  0.2029
 8115TIP3    H145760   6.347   3.217  15.048 -1.6536 -0.0297 -0.4491
 8115TIP3    H245761   6.344   3.360  14.998 -0.2373 -0.3474 -1.5175
 8116TIP3   OH245762   0.415   4.337  17.361 -0.2110 -0.2641  0.1481
 8116TIP3    H145763   0.486   4.341  17.425  2.3278  4.0937 -2.4660
 8116TIP3    H245764   0.442   4.268  17.300 -0.6999 -1.7327  1.4912
 8117TIP3   OH245765   5.722   5.963  16.251 -0.1273 -0.8503  0.2380
 8117TIP3    H145766   5.748   5.957  16.159 -3.8094  0.3717 -1.0786
 8117TIP3    H245767   5.632   5.932  16.253  0.0095 -1.5135  3.6620
 8118TIP3   OH245768   5.279   2.329  17.444 -0.2261 -0.2651 -0.4729
 8118TIP3    H145769   5.242   2.390  17.381 -0.9712  0.2395  0.4348
 8118TIP3    H245770   5.369   2.359  17.456 -0.5672  0.6086 -0.0900
 8119TIP3   OH245771   2.853   1.492   0.467  0.5787  0.0805 -0.8607
 8119TIP3    H145772   2.809   1.414   0.500 -1.1175  1.5992  0.7158
 8119TIP3    H245773   2.816   1.504   0.379 -3.5157  2.0297  0.8457
 8120TIP3   OH245774   4.013   4.332   2.053 -0.2695  0.0862 -0.3059
 8120TIP3    H145775   3.934   4.386   2.055 -0.9062 -0.7836 -1.1483
 8120TIP3    H245776   4.014   4.289   2.139 -2.1459 -1.8237 -1.1271
 8121TIP3   OH245777   2.799   5.335  17.396 -0.6011  0.1573 -0.0245
 8121TIP3    H145778   2.776   5.346  17.304  2.4409  0.5731 -0.8269
 8121TIP3    H245779   2.800   5.240  17.409 -2.3423  0.1024  0.0231
 8122TIP3   OH245780   0.171   1.341  16.985  0.3272  0.4212  0.5052
 8122TIP3    H145781   0.085   1.369  16.954  0.2832 -0.3884 -0.1310
 8122TIP3    H245782   0.221   1.423  16.993 -0.8604  1.0535  2.1146
 8123TIP3   OH245783   3.156   5.329   3.477 -0.1999  0.0422 -0.4843
 8123TIP3    H145784   3.070   5.287   3.479 -0.2131  0.0585 -0.7697
 8123TIP3    H245785   3.216   5.262   3.510 -0.6138  0.7337  1.9010
 8124TIP3   OH245786   3.732   5.751   3.832  0.0278  0.2620 -0.4948
 8124TIP3    H145787   3.694   5.729   3.917  0.5865 -0.7644 -0.4985
 8124TIP3    H245788   3.661   5.794   3.785 -0.6771 -0.3030  0.0338
 8125TIP3   OH245789   1.050   6.525   4.555 -0.1544  0.2841  0.0945
 8125TIP3    H145790   0.964   6.554   4.585 -0.4866  1.4701 -1.8284
 8125TIP3    H245791   1.111   6.559   4.621 -1.0080  0.9344  0.5646
 8126TIP3   OH245792   6.298   5.566   0.806 -0.8216 -0.0113  0.0448
 8126TIP3    H145793   6.281   5.658   0.827 -0.2900  0.1699 -0.2951
 8126TIP3    H245794   6.248   5.550   0.726 -0.9116 -0.0178  0.1023
 8127TIP3   OH245795   6.156   3.303  16.084  0.6373 -0.2130 -0.4189
 8127TIP3    H145796   6.120   3.219  16.057 -0.0387 -0.1934  0.3836
 8127TIP3    H245797   6.092   3.339  16.146  1.9506 -0.1299  0.9587
 8128TIP3   OH245798   2.258   2.744  14.947  0.0499  0.1258 -0.2255
 8128TIP3    H145799   2.238   2.830  14.982 -1.4794 -0.9517  1.7585
 8128TIP3    H245800   2.184   2.723  14.890 -1.0182 -0.9245  1.4543
 8129TIP3   OH245801   0.673   4.022   1.338  0.4739  0.2715 -0.7116
 8129TIP3    H145802   0.598   3.963   1.342 -0.6565  1.5957 -1.5675
 8129TIP3    H245803   0.635   4.109   1.327  2.0690  1.2701  1.0964
 8130TIP3   OH245804   2.951   1.714   2.469 -0.4729 -0.5915  0.1779
 8130TIP3    H145805   2.986   1.628   2.492 -0.3589  0.0639  2.7717
 8130TIP3    H245806   2.857   1.707   2.485 -0.5110 -0.3362  0.0701
 8131TIP3   OH245807   3.886   2.553  12.677  0.3176  0.4352  0.4405
 8131TIP3    H145808   3.955   2.511  12.625  2.1595  0.2193  2.8611
 8131TIP3    H245809   3.876   2.497  12.754 -2.0983  0.8658  0.5291
 8132TIP3   OH245810   6.432   2.878  14.141  0.4254  0.0083 -0.4571
 8132TIP3    H145811   6.436   2.790  14.106  2.4485 -0.4768  0.8086
 8132TIP3    H245812   6.383   2.928  14.076 -0.9919 -2.0680 -1.0767
 8133TIP3   OH245813   3.090   4.563  12.021 -0.3658  0.3032  0.6733
 8133TIP3    H145814   3.108   4.649  12.058 -2.2510  1.8346 -1.6599
 8133TIP3    H245815   2.996   4.552  12.031 -0.1642 -1.5232  0.9209
 8134TIP3   OH245816   1.206   5.845  11.777  0.2235 -0.2937  0.2862
 8134TIP3    H145817   1.190   5.825  11.685 -0.0426 -1.0777  0.4957
 8134TIP3    H245818   1.301   5.857  11.783  0.0584  1.9571 -0.4931
 8135TIP3   OH245819   4.471   2.094  10.983  0.5655 -0.4286 -0.0845
 8135TIP3    H145820   4.425   2.172  11.015  0.0005 -1.7231  2.6010
 8135TIP3    H245821   4.549   2.087  11.038 -0.6209 -2.9684  1.5226
 8136TIP3   OH245822   4.827   2.767   4.004 -0.5461 -0.4852  0.8314
 8136TIP3    H145823   4.793   2.844   3.958  2.0591 -0.6212 -1.6435
 8136TIP3    H245824   4.768   2.754   4.077 -1.8837  3.0433  0.5613
 8137TIP3   OH245825   1.836   1.125  12.261  0.5716  0.2357 -0.0163
 8137TIP3    H145826   1.783   1.194  12.221 -0.2206  0.4602  1.3607
 8137TIP3    H245827   1.774   1.056  12.282  0.7363  0.5767  1.7818
 8138TIP3   OH245828   4.382   0.367   4.647  0.0851 -0.1663 -0.2560
 8138TIP3    H145829   4.326   0.434   4.686 -0.4950 -1.2138  0.7797
 8138TIP3    H245830   4.360   0.368   4.554  0.2897  1.2562 -0.3054
 8139TIP3   OH245831   6.635   2.665   0.674  0.1966  0.1207 -0.9293
 8139TIP3    H145832   6.604   2.749   0.642  3.0533  2.6550  2.1771
 8139TIP3    H245833   6.555   2.612   0.684 -1.7261  2.4261 -2.8833
 8140TIP3   OH245834   0.640   0.774   0.200  0.3682 -0.3203  0.5756
 8140TIP3    H145835   0.698   0.850   0.199 -0.7851  0.5857 -0.2220
 8140TIP3    H245836   0.554   0.809   0.225 -0.1275 -1.4003  0.4475
 8141TIP3   OH245837   3.504   4.856   4.941  0.0385 -0.1891  0.4835
 8141TIP3    H145838   3.569   4.841   5.010 -0.0561 -2.5696  0.1340
 8141TIP3    H245839   3.420   4.844   4.985 -0.1846  1.8474  0.6983
 8142TIP3   OH245840   2.519   4.621  16.729  0.4083  0.1873 -0.9717
 8142TIP3    H145841   2.508   4.632  16.824  0.3460 -1.7792 -0.7206
 8142TIP3    H245842   2.440   4.660  16.691  0.5571  1.2318 -0.2546
 8143TIP3   OH245843   1.886   2.378   1.143 -0.6055  0.3237 -0.9504
 8143TIP3    H145844   1.972   2.391   1.105 -0.3747 -1.7954 -1.2406
 8143TIP3    H245845   1.896   2.304   1.202 -1.8322  1.1868  0.4284
 8144TIP3   OH245846   5.784   5.467  14.773 -0.5425  0.2744  0.3444
 8144TIP3    H145847   5.774   5.374  14.752 -0.3878  0.2560  0.3456
 8144TIP3    H245848   5.845   5.500  14.707 -2.2526  0.8810 -1.0024
 8145TIP3   OH245849   1.476   1.797  14.627 -0.1389  0.1465 -0.0095
 8145TIP3    H145850   1.552   1.757  14.585 -0.6986 -0.5277 -0.3982
 8145TIP3    H245851   1.404   1.780  14.567 -0.6855  0.3779  0.5732
 8146TIP3   OH245852   3.766   2.872   6.223 -0.4699  0.0179  0.3058
 8146TIP3    H145853   3.823   2.856   6.298  1.8418  0.0837 -1.3306
 8146TIP3    H245854   3.784   2.963   6.199 -0.3719 -0.3258 -0.9569
 8147TIP3   OH245855   1.079   1.226   4.689 -0.4402 -0.1347 -0.2856
 8147TIP3    H145856   1.157   1.242   4.742  0.2186 -0.3700 -1.1546
 8147TIP3    H245857   1.054   1.313   4.657  0.8553 -0.2869 -1.8690
 8148TIP3   OH245858   0.488   6.687  16.556 -0.1096  0.7302 -0.7341
 8148TIP3    H145859   0.542   6.669  16.633  0.5339 -0.0971 -1.3648
 8148TIP3    H245860   0.467   6.601  16.520 -2.7238  0.9472  0.0461
 8149TIP3   OH245861   3.652   5.463   3.908  0.0660  0.0799  0.0372
 8149TIP3    H145862   3.660   5.486   4.001 -2.0026  0.6130  0.1357
 8149TIP3    H245863   3.558   5.468   3.890  0.5209  1.4634 -2.4653
 8150TIP3   OH245864   1.430   1.218   0.728  0.3317  0.4190 -0.2493
 8150TIP3    H145865   1.364   1.148   0.734 -2.4889  2.5872 -2.7193
 8150TIP3    H245866   1.439   1.250   0.818 -0.6754 -1.0870  0.4378
 8151TIP3   OH245867   1.380   0.953  12.553  0.2596  0.5070 -0.1927
 8151TIP3    H145868   1.318   0.948  12.626  0.7792  1.4625  0.3438
 8151TIP3    H245869   1.446   1.016  12.583  2.4255 -1.7058 -0.0572
 8152TIP3   OH245870   1.485   4.770   3.859  0.1387 -0.2610  0.2211
 8152TIP3    H145871   1.411   4.805   3.908  0.5700 -1.0662  1.5083
 8152TIP3    H245872   1.562   4.795   3.910  0.6720 -0.4164 -0.4884
 8153TIP3   OH245873   0.645   0.980   5.469  0.1983 -0.0423 -0.0870
 8153TIP3    H145874   0.555   0.972   5.499  0.5824 -2.0817  0.6546
 8153TIP3    H245875   0.657   1.074   5.456 -0.6405  0.8696  4.2690
 8154TIP3   OH245876   0.739   2.105   2.961  0.0104  0.6443  0.3683
 8154TIP3    H145877   0.811   2.073   2.907  2.2874 -0.3644  3.6713
 8154TIP3    H245878   0.696   2.171   2.907  1.9781 -0.3175 -2.6360
 8155TIP3   OH245879   2.738   3.914   3.574 -0.1931 -0.3026  0.1195
 8155TIP3    H145880   2.677   3.894   3.503 -0.3134 -0.7894  0.3553
 8155TIP3    H245881   2.825   3.900   3.536 -0.1126  2.0924 -0.7612
 8156TIP3   OH245882   0.674   1.687  12.525 -0.1009 -0.0012  0.6363
 8156TIP3    H145883   0.659   1.592  12.525 -0.8446  0.1076  0.0694
 8156TIP3    H245884   0.721   1.704  12.607  0.5850 -0.9378  0.4503
 8157TIP3   OH245885   1.067   1.279  15.096 -0.3544  0.4702  0.0740
 8157TIP3    H145886   0.996   1.226  15.059 -0.0030 -1.3407  1.8137
 8157TIP3    H245887   1.034   1.305  15.182  0.7590  0.2952  0.5691
 8158TIP3   OH245888   0.196   0.372  13.841  0.3469  0.8182  0.3389
 8158TIP3    H145889   0.222   0.282  13.858  0.3233  1.0008  1.4147
 8158TIP3    H245890   0.102   0.374  13.855  0.5141  1.2523  1.4955
 8159TIP3   OH245891   6.292   4.252   4.715 -0.3685  0.7172 -0.4418
 8159TIP3    H145892   6.203   4.267   4.683 -1.1679 -0.2035  1.1982
 8159TIP3    H245893   6.285   4.263   4.810  1.5284  1.7510 -0.3867
 8160TIP3   OH245894   5.528   1.828   4.327  0.3069 -0.0378 -0.0155
 8160TIP3    H145895   5.463   1.828   4.257  1.3291  0.5115 -0.9984
 8160TIP3    H245896   5.502   1.900   4.385  0.6433  0.8848 -0.9897
 8161TIP3   OH245897   0.437   5.524   1.583  0.0531  0.2919  1.1296
 8161TIP3    H145898   0.366   5.587   1.572 -1.2936 -0.6483  3.6461
 8161TIP3    H245899   0.517   5.577   1.583 -0.7341  1.5375 -0.3444
 8162TIP3   OH245900   4.843   1.679  15.647 -0.6115  0.0497 -0.1760
 8162TIP3    H145901   4.776   1.616  15.619  0.5985 -1.2072 -0.3655
 8162TIP3    H245902   4.908   1.678  15.577  1.0676 -1.0325  1.3151
 8163TIP3   OH245903   5.825   6.127   5.502  0.1152 -0.0915  0.3732
 8163TIP3    H145904   5.735   6.148   5.475  0.6894 -0.8491 -2.3946
 8163TIP3    H245905   5.878   6.198   5.467  0.9350 -1.2526 -0.8339
 8164TIP3   OH245906   0.327   2.505  17.565 -0.2790 -0.1904 -0.0482
 8164TIP3    H145907   0.293   2.416  17.571 -1.1161  0.1350  0.2358
 8164TIP3    H245908   0.391   2.502  17.494  0.7449 -1.3297  0.8902
 8165TIP3   OH245909   3.616   0.075  11.475  0.3025 -0.1736  0.0987
 8165TIP3    H145910   3.701   0.047  11.442 -0.7912 -1.7908 -1.5041
 8165TIP3    H245911   3.584   0.135  11.408  0.3465  0.7967  0.9269
 8166TIP3   OH245912   3.303   6.102   1.979 -0.1109  0.0958  0.0004
 8166TIP3    H145913   3.332   6.015   1.952  1.8028  0.3232  1.1865
 8166TIP3    H245914   3.377   6.159   1.960 -1.6203  1.6557 -1.4835
 8167TIP3   OH245915   5.778   3.399  14.816  0.1388  0.0610 -0.2162
 8167TIP3    H145916   5.845   3.406  14.883  1.2061  0.1098 -1.2509
 8167TIP3    H245917   5.750   3.307  14.821  0.5217 -0.0489  0.0112
 8168TIP3   OH245918   3.013   4.060  17.123  0.0695 -0.0641 -0.5156
 8168TIP3    H145919   3.092   4.113  17.108  0.8233 -0.4274  1.8141
 8168TIP3    H245920   2.944   4.108  17.076  1.3119  1.2609 -1.0978
 8169TIP3   OH245921   6.486   1.874  15.577 -0.8596 -0.3796 -0.4079
 8169TIP3    H145922   6.493   1.918  15.493 -4.2502 -1.0326 -1.1948
 8169TIP3    H245923   6.453   1.787  15.556 -0.0507 -1.1928  1.4933
 8170TIP3   OH245924   4.874   2.653   3.313  0.0786  0.1344 -0.8194
 8170TIP3    H145925   4.934   2.697   3.253 -0.3664  2.9378  0.6477
 8170TIP3    H245926   4.791   2.697   3.300 -1.5664 -2.9870 -2.0472
 8171TIP3   OH245927   0.581   6.698   4.519  0.4094  0.0070  0.5223
 8171TIP3    H145928   0.672   6.687   4.491  0.2439 -0.4340  0.1446
 8171TIP3    H245929   0.588   6.732   4.609  0.9325  1.4489 -0.0430
 8172TIP3   OH245930   4.488   6.012   3.342 -0.3786  0.4324 -0.4946
 8172TIP3    H145931   4.519   5.947   3.405 -0.1762  0.4203 -0.6063
 8172TIP3    H245932   4.393   6.003   3.343 -0.6131  2.1533  1.7060
 8173TIP3   OH245933   2.399   3.652  14.192  0.4718 -0.1269  0.2214
 8173TIP3    H145934   2.446   3.675  14.272  0.1051 -1.8478  0.9975
 8173TIP3    H245935   2.408   3.556  14.186  1.2700  0.0252 -2.3107
 8174TIP3   OH245936   6.242   5.227  12.926  0.5506 -0.1713  0.0315
 8174TIP3    H145937   6.324   5.273  12.944  1.3678 -1.4533 -0.2822
 8174TIP3    H245938   6.212   5.196  13.012  0.0684  0.7846  0.2253
 8175TIP3   OH245939   1.859   2.488   2.576  0.3524 -0.2675  0.3674
 8175TIP3    H145940   1.921   2.418   2.556  1.4737  0.4953  1.1011
 8175TIP3    H245941   1.912   2.567   2.586 -0.9880  0.9351 -1.4205
 8176TIP3   OH245942   2.820   0.834   2.461  0.3633 -0.0193  0.2797
 8176TIP3    H145943   2.885   0.903   2.446 -0.5936  0.6990 -0.7178
 8176TIP3    H245944   2.862   0.754   2.430  1.0820  0.2767  0.4540
 8177TIP3   OH245945   5.203   2.319  15.456  0.3968 -0.0899  0.1818
 8177TIP3    H145946   5.259   2.256  15.411  0.0853 -0.7662  0.7260
 8177TIP3    H245947   5.203   2.395  15.398  1.5163 -0.2327 -0.0471
 8178TIP3   OH245948   3.011   2.840   4.024 -0.3610 -0.2492  0.2797
 8178TIP3    H145949   2.938   2.897   4.047 -0.4745 -0.7404  1.1711
 8178TIP3    H245950   2.984   2.753   4.052 -0.1877 -0.7687 -1.0494
 8179TIP3   OH245951   4.787   0.637   0.760 -0.1441 -0.0021 -0.5023
 8179TIP3    H145952   4.704   0.589   0.768 -0.4582  0.5560 -0.3083
 8179TIP3    H245953   4.847   0.591   0.817 -1.3841  1.8385  2.5278
 8180TIP3   OH245954   3.334   3.362  14.124 -0.0222  0.8628 -0.0663
 8180TIP3    H145955   3.418   3.357  14.170  0.0638  0.8448 -0.2214
 8180TIP3    H245956   3.295   3.444  14.155 -0.5098  0.2682  0.9378
 8181TIP3   OH245957   6.098   1.514  13.147  0.5149 -0.1781  0.1728
 8181TIP3    H145958   6.057   1.487  13.065 -0.6051  0.1561  0.6010
 8181TIP3    H245959   6.190   1.527  13.125  0.3650 -0.7724 -0.8635
 8182TIP3   OH245960   4.863   5.218   3.082  0.3487 -0.4339 -0.0258
 8182TIP3    H145961   4.952   5.184   3.092  0.3233 -0.6544 -0.5069
 8182TIP3    H245962   4.840   5.197   2.991  1.3342  3.1543 -1.2698
 8183TIP3   OH245963   2.018   2.600  17.346 -0.1301  0.1145  0.1462
 8183TIP3    H145964   2.066   2.677  17.315 -3.1271  1.9645 -0.4372
 8183TIP3    H245965   2.021   2.606  17.441  1.6915 -0.4958  0.1586
 8184TIP3   OH245966   6.295   1.194  13.323  0.6197  0.4197 -0.0514
 8184TIP3    H145967   6.367   1.168  13.380  0.8166  2.8780  0.9217
 8184TIP3    H245968   6.221   1.208  13.382 -0.5524 -1.5094 -0.9716
 8185TIP3   OH245969   1.678   4.894   1.003 -0.0186 -0.4676  0.2214
 8185TIP3    H145970   1.667   4.978   0.959  1.6809 -0.5804 -0.4910
 8185TIP3    H245971   1.630   4.903   1.085  1.1613  1.6788  0.7528
 8186TIP3   OH245972   1.583   0.272   1.756 -0.1869  0.2187 -0.0348
 8186TIP3    H145973   1.656   0.297   1.813 -0.5961  2.6025 -0.4431
 8186TIP3    H245974   1.539   0.201   1.803  2.0615 -0.9328  0.4538
 8187TIP3   OH245975   0.566   0.768  16.404 -0.2562  0.1355 -0.0559
 8187TIP3    H145976   0.607   0.683  16.419  0.3072  0.3727 -0.2593
 8187TIP3    H245977   0.476   0.746  16.379  0.3267 -0.4944 -1.7723
 8188TIP3   OH245978   0.939   6.618   0.976  0.5049 -0.5224 -0.2842
 8188TIP3    H145979   0.859   6.658   0.941 -0.2772 -0.4744  1.4492
 8188TIP3    H245980   1.008   6.682   0.959 -0.5371  1.2005  1.5559
 8189TIP3   OH245981   0.570   3.673   4.415 -0.3865 -0.1319  0.0745
 8189TIP3    H145982   0.633   3.673   4.344  0.6113 -1.9161  0.8937
 8189TIP3    H245983   0.617   3.710   4.489 -0.9377  0.3101  0.2135
 8190TIP3   OH245984   3.362   0.087  14.999  0.4327  0.0410  0.2431
 8190TIP3    H145985   3.360   0.180  14.976 -2.8521  0.2335  0.8364
 8190TIP3    H245986   3.369   0.042  14.915 -1.8266  0.8475 -0.4563
 8191TIP3   OH245987   4.483   1.972   1.598  0.1937  0.0376 -0.2900
 8191TIP3    H145988   4.547   1.904   1.573 -0.0262 -0.0608 -0.5925
 8191TIP3    H245989   4.443   1.939   1.678 -1.3898 -1.2067 -1.5241
 8192TIP3   OH245990   0.016   3.749  16.069  0.1494 -0.2783  0.2692
 8192TIP3    H145991  -0.024   3.833  16.046  0.6437 -0.8066 -2.8437
 8192TIP3    H245992  -0.049   3.706  16.125 -1.6386  0.7757 -0.9078
 8193TIP3   OH245993   1.739   0.398  11.543 -0.5892  0.2631 -0.6035
 8193TIP3    H145994   1.773   0.438  11.463 -2.0328  0.9171 -0.9067
 8193TIP3    H245995   1.791   0.438  11.613 -0.5288  1.0143 -1.0699
 8194TIP3   OH245996   5.100   6.130   2.055 -0.3202 -0.3215  0.2897
 8194TIP3    H145997   5.057   6.137   2.140 -0.6690 -1.0318  0.1711
 8194TIP3    H245998   5.184   6.174   2.068 -0.8217  0.5434  0.6862
 8195TIP3   OH245999   1.628   1.772   0.605  0.2798 -0.1852 -0.2220
 8195TIP3    H146000   1.672   1.856   0.613 -0.3785  0.4606 -2.6627
 8195TIP3    H246001   1.571   1.767   0.682  1.4766  0.8575  0.7658
 8196TIP3   OH246002   0.663   2.901  14.976 -0.2814 -0.5057  0.4407
 8196TIP3    H146003   0.722   2.965  15.016 -0.0275 -0.8787  0.6625
 8196TIP3    H246004   0.579   2.916  15.020 -0.3537  0.0014  0.1471
 8197TIP3   OH246005   6.506   6.628  13.213 -0.1499  0.4356 -0.1884
 8197TIP3    H146006   6.561   6.561  13.253  1.2437  0.7494 -1.4778
 8197TIP3    H246007   6.479   6.684  13.285  1.9910  0.7964  0.4154
 8198TIP3   OH246008   5.876   3.528   4.411  0.7067  0.7829  0.9815
 8198TIP3    H146009   5.921   3.547   4.328  1.5794  0.7817  1.4440
 8198TIP3    H246010   5.800   3.476   4.385 -0.2485  2.5731 -0.0349
 8199TIP3   OH246011   3.538   2.712   2.213  0.0381 -0.2271  0.2041
 8199TIP3    H146012   3.479   2.729   2.286 -0.2503  1.1780 -0.3355
 8199TIP3    H246013   3.625   2.705   2.254  0.3210  3.2815  0.4915
 8200TIP3   OH246014   4.620   1.377  12.051  0.4089 -0.6471 -0.0414
 8200TIP3    H146015   4.591   1.395  11.962  1.5543  1.5300 -0.0385
 8200TIP3    H246016   4.631   1.282  12.054 -0.9230 -0.9106 -1.7909
 8201TIP3   OH246017   3.790   5.824   1.875  0.1118 -0.3267  0.2595
 8201TIP3    H146018   3.848   5.762   1.831  0.9787  0.6227  0.0100
 8201TIP3    H246019   3.766   5.886   1.806 -2.5491 -1.6011 -0.0494
 8202TIP3   OH246020   5.468   5.612  11.904 -0.0263  0.0608  0.2692
 8202TIP3    H146021   5.377   5.608  11.872 -0.0011  2.0045 -0.2249
 8202TIP3    H246022   5.460   5.632  11.997 -0.1089  0.0843  0.2570
 8203TIP3   OH246023   3.812   0.089   1.025 -0.2783  0.7861  0.7491
 8203TIP3    H146024   3.882   0.134   0.977  0.0100 -1.5232 -1.1653
 8203TIP3    H246025   3.734   0.141   1.008 -0.2788 -0.0754 -2.7185
 8204TIP3   OH246026   6.043   5.946  12.526  0.0147  0.0653  0.0690
 8204TIP3    H146027   5.965   5.994  12.554 -0.3458  0.3426 -1.3144
 8204TIP3    H246028   6.011   5.884  12.461  1.1934  1.9647 -2.5424
 8205TIP3   OH246029   5.162   3.546   1.331 -0.3215 -0.5423  0.0077
 8205TIP3    H146030   5.247   3.503   1.339  0.0886  0.1212 -0.6505
 8205TIP3    H246031   5.133   3.528   1.242 -0.9750 -0.9240  0.2845
 8206TIP3   OH246032   3.224   1.475   5.779 -0.2400  0.0142 -0.2452
 8206TIP3    H146033   3.240   1.383   5.758  1.5426 -0.2800  2.0314
 8206TIP3    H246034   3.310   1.516   5.777 -0.7356  1.1838  0.6993
 8207TIP3   OH246035   2.189   5.838   3.635  0.2115  0.3035  0.4472
 8207TIP3    H146036   2.102   5.822   3.671  0.9995  0.2009  2.4961
 8207TIP3    H246037   2.208   5.929   3.659  0.5693  0.4085 -0.2086
 8208TIP3   OH246038   1.076   3.310  15.138 -0.1151  0.6993  0.2204
 8208TIP3    H146039   1.034   3.299  15.223 -1.1862 -1.2013 -0.4889
 8208TIP3    H246040   1.051   3.397  15.109 -1.5263  0.5449  0.9259
 8209TIP3   OH246041   4.135   1.213   2.734 -0.3247 -0.1815 -0.5100
 8209TIP3    H146042   4.174   1.232   2.820 -1.5129 -1.2816  0.3280
 8209TIP3    H246043   4.044   1.188   2.755 -1.0305  0.8305 -2.2306
 8210TIP3   OH246044   2.780   1.417  14.914  0.4865  0.0596  0.3057
 8210TIP3    H146045   2.748   1.330  14.937 -2.5888  1.1192  0.4827
 8210TIP3    H246046   2.769   1.469  14.993  1.7147  0.7935  0.0313
 8211TIP3   OH246047   6.166   5.696  16.997  0.2285 -0.0006 -0.3721
 8211TIP3    H146048   6.230   5.765  16.978 -0.5976  0.8547 -0.1625
 8211TIP3    H246049   6.129   5.674  16.912  0.4186 -0.1055 -0.4283
 8212TIP3   OH246050   2.398   0.190   3.862  0.2832  0.7229 -0.5885
 8212TIP3    H146051   2.469   0.225   3.914  0.6490 -1.2504  0.3285
 8212TIP3    H246052   2.366   0.265   3.811  1.1274  2.2849  1.0731
 8213TIP3   OH246053   6.049   4.562  14.780 -0.2859 -0.3526 -0.8471
 8213TIP3    H146054   6.068   4.557  14.687  1.1142 -0.7115 -0.5730
 8213TIP3    H246055   5.971   4.508  14.792 -0.4254 -0.3699 -1.8035
 8214TIP3   OH246056   1.326   0.677   4.769  0.2461 -0.1316 -0.1546
 8214TIP3    H146057   1.359   0.682   4.858  0.3370  0.6401 -0.2289
 8214TIP3    H246058   1.389   0.622   4.722 -0.9298 -2.4243  0.7495
 8215TIP3   OH246059   3.532   4.157  16.151  0.2965  0.9377  0.0714
 8215TIP3    H146060   3.488   4.242  16.146  0.0559  0.7480 -1.6529
 8215TIP3    H246061   3.464   4.093  16.132  0.8601  0.4899 -0.4654
 8216TIP3   OH246062   0.547   6.285   0.710  0.0554 -0.0453 -0.0817
 8216TIP3    H146063   0.632   6.296   0.668  1.1967  0.2975  2.1362
 8216TIP3    H246064   0.508   6.373   0.709  1.2840  0.5978  1.8414
 8217TIP3   OH246065   5.317   1.502  15.346 -0.1417 -0.1406  0.5194
 8217TIP3    H146066   5.272   1.430  15.391  0.5307 -1.8586 -1.4184
 8217TIP3    H246067   5.410   1.479  15.350  0.0441  0.3605 -0.5321
 8218TIP3   OH246068   1.977   0.837   0.675 -0.8357 -0.4920 -0.0369
 8218TIP3    H146069   1.915   0.795   0.616 -0.2531  1.2284 -2.0306
 8218TIP3    H246070   1.936   0.921   0.697 -0.9775 -1.0476  1.9777
 8219TIP3   OH246071   4.910   2.149   3.506 -0.1491  0.2067  0.2043
 8219TIP3    H146072   4.847   2.092   3.549 -0.2114  0.9795  1.1687
 8219TIP3    H246073   4.989   2.097   3.498 -1.0072 -0.9340 -1.4208
 8220TIP3   OH246074   1.637   3.792  17.067 -0.3435  0.3673 -0.0128
 8220TIP3    H146075   1.685   3.783  16.985 -0.3804 -0.1624  0.0240
 8220TIP3    H246076   1.625   3.887  17.077 -0.0717  0.4516 -0.4608
 8221TIP3   OH246077   5.351   3.689   3.154  0.1230  0.2230 -0.2214
 8221TIP3    H146078   5.382   3.599   3.164  0.4668 -0.0719 -3.1040
 8221TIP3    H246079   5.430   3.741   3.142  0.2699  1.6822  4.8131
 8222TIP3   OH246080   2.971   5.729   2.470  0.4890 -0.0102  0.2380
 8222TIP3    H146081   2.914   5.739   2.547 -3.1883  0.2659 -2.2601
 8222TIP3    H246082   2.932   5.657   2.420  1.1132  1.4710 -2.5982
 8223TIP3   OH246083   6.337   1.173  17.279  0.3323 -0.8352 -0.1901
 8223TIP3    H146084   6.343   1.248  17.339 -2.6223  0.1071 -0.9004
 8223TIP3    H246085   6.407   1.188  17.216  0.5072  0.7659  0.3191
 8224TIP3   OH246086   5.735   4.895  16.278 -0.0312  0.2073  0.2464
 8224TIP3    H146087   5.647   4.916  16.247 -0.5316 -0.4207  1.1762
 8224TIP3    H246088   5.792   4.918  16.206 -0.9255  0.9792 -0.2337
 8225TIP3   OH246089   6.121   5.548  11.855 -0.2929 -0.1732 -0.4420
 8225TIP3    H146090   6.133   5.482  11.787  0.1380 -0.2908 -0.2477
 8225TIP3    H246091   6.172   5.623  11.825 -1.8077  0.5788 -1.3253
 8226TIP3   OH246092   3.402   1.391  11.112 -0.0341  0.3157  0.0593
 8226TIP3    H146093   3.330   1.420  11.168 -1.0205 -2.1365  0.1908
 8226TIP3    H246094   3.386   1.297  11.099  2.3645 -0.0106 -1.0942
 8227TIP3   OH246095   2.590   2.602  14.326 -0.0474  0.2136  0.1012
 8227TIP3    H146096   2.642   2.672  14.287 -2.0776  1.2465 -0.8816
 8227TIP3    H246097   2.543   2.563  14.253 -0.7999 -0.5786  0.9765
 8228TIP3   OH246098   1.931   5.070  16.376  0.3316 -0.5055 -0.0788
 8228TIP3    H146099   2.018   5.050  16.339  0.7856  2.0141 -0.5063
 8228TIP3    H246100   1.949   5.099  16.465 -0.3568 -2.2425  0.6771
 8229TIP3   OH246101   4.659   4.794   3.059 -0.0529  0.0588  0.2437
 8229TIP3    H146102   4.690   4.881   3.083  3.0333 -0.2787 -2.0669
 8229TIP3    H246103   4.586   4.810   2.999  2.1554  1.2313 -2.2921
 8230TIP3   OH246104   6.641   2.441   5.977  0.2492 -0.2570  0.0364
 8230TIP3    H146105   6.719   2.396   6.011 -0.2821  0.2552  2.0210
 8230TIP3    H246106   6.604   2.487   6.052 -0.8257  1.2182 -1.3131
 8231TIP3   OH246107   5.771   0.357   3.782 -0.2935  0.1171 -0.3658
 8231TIP3    H146108   5.862   0.340   3.808  0.8147  2.5632 -2.2301
 8231TIP3    H246109   5.754   0.446   3.812 -2.8703 -0.9668  1.7113
 8232TIP3   OH246110   1.715   0.619  16.933 -0.5706  0.5606 -0.0947
 8232TIP3    H146111   1.637   0.578  16.896 -0.7225 -0.4537  1.2705
 8232TIP3    H246112   1.719   0.705  16.891 -2.7221  0.8495  0.1871
 8233TIP3   OH246113   3.582   0.205  11.235  0.1184 -0.3558 -0.6729
 8233TIP3    H146114   3.601   0.200  11.142  1.7216  1.3273 -0.5021
 8233TIP3    H246115   3.543   0.292  11.247  0.6206 -0.2549  0.3233
 8234TIP3   OH246116   5.631   5.496  13.206  0.0950 -0.4265  0.5695
 8234TIP3    H146117   5.583   5.414  13.197 -1.7956  0.7236 -0.2051
 8234TIP3    H246118   5.600   5.533  13.288 -2.1102  1.3637 -0.9686
 8235TIP3   OH246119   5.569   1.802  11.557  0.0674 -0.8035  0.3195
 8235TIP3    H146120   5.542   1.713  11.537 -2.0199 -0.1354 -0.0122
 8235TIP3    H246121   5.655   1.811  11.517  0.0944 -2.5018 -0.0578
 8236TIP3   OH246122   5.119   4.504  13.123  0.1803  0.4986 -0.0963
 8236TIP3    H146123   5.213   4.491  13.106  0.0323 -0.8642  0.0062
 8236TIP3    H246124   5.110   4.490  13.217  0.1015  2.2696  0.1928
 8237TIP3   OH246125   1.701   3.496   4.309  0.0636  0.3068 -0.3695
 8237TIP3    H146126   1.691   3.401   4.317 -1.0693  0.3365 -1.2198
 8237TIP3    H246127   1.638   3.531   4.372 -2.3916  0.4792 -2.7728
 8238TIP3   OH246128   0.104   6.573  14.308 -0.0715  0.4407  0.3136
 8238TIP3    H146129   0.117   6.661  14.274  1.0352  0.4573  0.7499
 8238TIP3    H246130   0.177   6.559  14.368 -0.3494 -0.6962  0.4116
 8239TIP3   OH246131   6.097   1.713  12.632  0.1789 -0.5336 -0.1023
 8239TIP3    H146132   6.153   1.759  12.570 -1.1986  1.2751 -0.0862
 8239TIP3    H246133   6.103   1.765  12.712 -1.0042 -0.6493  0.0854
 8240TIP3   OH246134   0.268   1.559   4.336  0.0121 -0.3725  0.5356
 8240TIP3    H146135   0.303   1.481   4.292  0.2823 -0.2383  0.5099
 8240TIP3    H246136   0.207   1.524   4.401 -0.6000 -0.5623 -0.1259
 8241TIP3   OH246137   6.010   2.115   3.057  0.1753 -0.7206  0.6719
 8241TIP3    H146138   6.065   2.073   3.123  0.5520 -0.7919  0.3228
 8241TIP3    H246139   6.072   2.143   2.989 -0.0287  0.7734  1.0855
 8242TIP3   OH246140   2.202   3.421  12.774  0.0091  0.5868 -0.2890
 8242TIP3    H146141   2.147   3.382  12.706 -0.7344  0.5085  0.3372
 8242TIP3    H246142   2.279   3.453  12.727 -0.8912  1.3441 -1.3188
 8243TIP3   OH246143   4.800   6.359  10.878 -0.0493  0.0467  0.2403
 8243TIP3    H146144   4.755   6.279  10.850 -0.4492  0.4206 -0.2090
 8243TIP3    H246145   4.893   6.336  10.874 -0.1179 -0.1162 -0.8032
 8244TIP3   OH246146   5.008   1.986  14.315 -0.5958  0.2346 -0.3369
 8244TIP3    H146147   4.998   2.043  14.391 -2.4963 -0.7730  0.2358
 8244TIP3    H246148   5.064   1.915  14.345 -1.3897 -0.1898  0.1656
 8245TIP3   OH246149   4.839   4.551   5.636 -0.2074  0.0147  0.6430
 8245TIP3    H146150   4.813   4.463   5.664 -2.8038  0.3058 -0.5228
 8245TIP3    H246151   4.917   4.538   5.583  0.2391 -1.4103  1.6135
 8246TIP3   OH246152   3.295   0.893   1.321 -0.0582 -0.6742  0.0307
 8246TIP3    H146153   3.312   0.840   1.400  1.6997  0.5366  0.5161
 8246TIP3    H246154   3.346   0.973   1.334 -2.7043  1.2589 -0.6304
 8247TIP3   OH246155   5.953   5.691  13.796 -0.6736  0.0921 -0.4695
 8247TIP3    H146156   5.956   5.674  13.891  2.8326 -1.7935 -0.7584
 8247TIP3    H246157   5.976   5.784  13.788  2.8467 -0.5335  0.5661
 8248TIP3   OH246158   3.009   3.633   2.828  0.4248 -0.0608  0.4034
 8248TIP3    H146159   3.085   3.575   2.828 -0.5333 -1.4730 -1.7053
 8248TIP3    H246160   2.955   3.601   2.755 -2.2278  0.8378  1.8331
 8249TIP3   OH246161   2.236   3.572  14.713 -0.0677 -0.2361 -0.5756
 8249TIP3    H146162   2.239   3.617  14.629 -1.8548 -0.9349 -1.0648
 8249TIP3    H246163   2.142   3.565  14.733  0.2755 -1.2724  0.8203
 8250TIP3   OH246164   6.658   5.014  14.098  0.4834  0.0252 -0.1492
 8250TIP3    H146165   6.565   4.996  14.085  0.4819 -0.0261 -0.0650
 8250TIP3    H246166   6.679   4.972  14.181  0.0995  1.8200  0.9005
 8251TIP3   OH246167   2.511   2.336  14.107  0.2812  0.2077  0.5756
 8251TIP3    H146168   2.526   2.382  14.024  2.4752 -0.2689  0.6486
 8251TIP3    H246169   2.511   2.243  14.083 -0.8399  0.1138  0.8859
 8252TIP3   OH246170   2.062   1.654  10.984  0.1073 -0.0407 -0.3518
 8252TIP3    H146171   2.037   1.744  11.004 -0.4049 -0.4274  0.8546
 8252TIP3    H246172   2.158   1.654  10.988  0.1698  0.6745 -1.4589
 8253TIP3   OH246173   3.758   2.079   4.434  0.1973  0.1929 -0.3217
 8253TIP3    H146174   3.809   2.160   4.441 -0.1927  0.4767 -0.7708
 8253TIP3    H246175   3.814   2.013   4.475  0.9635  0.4875 -0.8710
 8254TIP3   OH246176   6.232   3.090   1.339  0.8664 -0.1785  0.2770
 8254TIP3    H146177   6.303   3.026   1.341  0.6366 -0.4178  1.9109
 8254TIP3    H246178   6.159   3.044   1.299  1.9379  0.4583 -2.6315
 8255TIP3   OH246179   4.612   5.310   2.430  0.3530  0.2636  0.3545
 8255TIP3    H146180   4.615   5.218   2.458 -0.5621 -0.1961 -0.9507
 8255TIP3    H246181   4.534   5.345   2.473 -0.5003 -0.1737 -0.7988
 8256TIP3   OH246182   5.482   1.793   1.831 -0.1873  0.0448  0.1258
 8256TIP3    H146183   5.422   1.855   1.790  0.1222  0.2430 -0.0292
 8256TIP3    H246184   5.569   1.827   1.812 -0.0064 -0.5439 -0.1238
 8257TIP3   OH246185   4.906   1.302  14.757  0.0474  0.1400 -0.1852
 8257TIP3    H146186   4.951   1.383  14.782  0.0747 -0.2466  1.0995
 8257TIP3    H246187   4.832   1.331  14.705  0.6359  0.9168 -0.6139
 8258TIP3   OH246188   3.598   4.092   4.285 -0.0811 -0.0248  0.2144
 8258TIP3    H146189   3.680   4.119   4.243  0.0779 -2.4750 -1.2510
 8258TIP3    H246190   3.620   4.085   4.378  1.0433  0.4390 -0.0015
 8259TIP3   OH246191   0.856   1.397   1.876 -0.0807 -0.0123 -0.0758
 8259TIP3    H146192   0.813   1.462   1.931  1.7598  1.5396 -0.3963
 8259TIP3    H246193   0.874   1.443   1.794 -0.3309 -1.4791 -1.0034
 8260TIP3   OH246194   4.136   1.433   1.397  0.3321 -0.7569  0.2840
 8260TIP3    H146195   4.089   1.494   1.453  1.0784  0.6670 -0.5923
 8260TIP3    H246196   4.085   1.431   1.316  0.4919 -1.0452  0.1895
 8261TIP3   OH246197   5.149   6.677  15.997  0.0891 -0.2417 -0.7981
 8261TIP3    H146198   5.220   6.716  16.048 -2.1210 -0.0305  2.4556
 8261TIP3    H246199   5.117   6.748  15.942  0.5001  0.5486 -0.0351
 8262TIP3   OH246200   1.224   1.784   5.562 -0.1248 -0.0121  0.2008
 8262TIP3    H146201   1.243   1.690   5.562 -0.1575 -0.0196  0.0310
 8262TIP3    H246202   1.213   1.806   5.470 -2.0496 -0.2377  0.3366
 8263TIP3   OH246203   6.619   4.287   0.232 -0.8300  0.1868 -0.7024
 8263TIP3    H146204   6.691   4.350   0.226  0.2563 -1.0734 -1.2726
 8263TIP3    H246205   6.640   4.220   0.167 -2.0206 -0.7187 -0.1966
 8264TIP3   OH246206   6.224   2.294  14.073  0.2233 -0.2619 -0.1106
 8264TIP3    H146207   6.194   2.281  14.163  0.1706  0.0913 -0.0764
 8264TIP3    H246208   6.238   2.388  14.065 -2.6307  0.1393 -1.3630
 8265TIP3   OH246209   2.002   0.829   2.171 -0.3232  0.5073  0.3685
 8265TIP3    H146210   1.912   0.824   2.204 -0.3440 -1.4000  0.0802
 8265TIP3    H246211   1.994   0.832   2.076 -0.0651  0.0425  0.3310
 8266TIP3   OH246212   4.719   6.700  13.808  0.0675  0.3622 -0.0582
 8266TIP3    H146213   4.787   6.730  13.868 -0.4282  1.0953  0.1440
 8266TIP3    H246214   4.694   6.613  13.841 -1.0313  1.2405  1.5283
 8267TIP3   OH246215   5.263   0.193  15.106  0.1099 -0.6784  0.3326
 8267TIP3    H146216   5.325   0.181  15.178 -0.4082  1.2852  1.1500
 8267TIP3    H246217   5.298   0.267  15.056 -0.2231 -1.2062 -0.7183
 8268TIP3   OH246218   2.910   0.534  13.289  0.4382  0.2476  0.0240
 8268TIP3    H146219   2.959   0.490  13.219 -1.6902 -0.8678 -0.8755
 8268TIP3    H246220   2.876   0.614  13.247  0.7398  0.5596  0.3710
 8269TIP3   OH246221   6.578   5.978   5.652 -0.1331  0.4606  0.0259
 8269TIP3    H146222   6.644   5.957   5.587 -1.4104  2.5765 -2.1381
 8269TIP3    H246223   6.628   6.001   5.731  1.6220  0.4462 -1.0308
 8270TIP3   OH246224   5.152   4.424   1.080 -0.3813  0.3266 -0.3056
 8270TIP3    H146225   5.189   4.442   1.166 -1.9511 -0.9784  0.6960
 8270TIP3    H246226   5.146   4.510   1.038  1.7889  0.8207  0.2534
 8271TIP3   OH246227   2.259   1.152   4.578 -0.7806  0.3036  0.5361
 8271TIP3    H146228   2.314   1.212   4.628 -0.8556 -0.3355  1.4025
 8271TIP3    H246229   2.265   1.068   4.625 -1.9860  0.0615  0.2927
 8272TIP3   OH246230   0.824   2.452   4.926  0.1400 -0.1768  0.3669
 8272TIP3    H146231   0.761   2.380   4.925  1.4419 -1.3720  0.3850
 8272TIP3    H246232   0.822   2.486   4.836 -1.1624  0.3940  0.5983
 8273TIP3   OH246233   1.741   2.139  11.029 -0.1513  0.2824 -0.7363
 8273TIP3    H146234   1.770   2.050  11.010  1.1330  0.5976 -0.3917
 8273TIP3    H246235   1.670   2.129  11.093  2.1809 -0.4494  1.9553
 8274TIP3   OH246236   1.731   3.236   0.728  0.4359 -0.5409 -0.0739
 8274TIP3    H146237   1.819   3.273   0.729 -0.2139  1.0443  0.6729
 8274TIP3    H246238   1.741   3.149   0.768  1.8511 -0.9152 -1.1587
 8275TIP3   OH246239   2.205   1.214   4.235 -0.1107 -0.2101 -0.2766
 8275TIP3    H146240   2.162   1.241   4.316  0.5445  1.2219 -0.3663
 8275TIP3    H246241   2.242   1.128   4.254 -0.9561 -0.4017  0.5598
 8276TIP3   OH246242   0.183   3.269   2.022 -0.4348 -0.0235 -0.2484
 8276TIP3    H146243   0.263   3.310   1.990  0.3490 -1.6443 -0.4757
 8276TIP3    H246244   0.162   3.316   2.102 -0.1987  1.5019 -1.0541
 8277TIP3   OH246245   3.474   2.532   6.288  0.2218  0.1302  0.1149
 8277TIP3    H146246   3.532   2.530   6.364 -0.1156  1.6834  0.4610
 8277TIP3    H246247   3.387   2.546   6.324 -0.0562  0.0552 -0.5061
 8278TIP3   OH246248   1.547   4.385   0.243 -0.0046  0.7813 -0.3259
 8278TIP3    H146249   1.554   4.474   0.208  1.9146  0.4445 -0.8735
 8278TIP3    H246250   1.461   4.355   0.213  0.3946  1.5378 -2.3558
 8279TIP3   OH246251   1.140   2.175  16.855 -0.1673  0.0841  0.3586
 8279TIP3    H146252   1.159   2.198  16.765  0.9670 -1.5667  0.1261
 8279TIP3    H246253   1.213   2.211  16.906  0.1258 -0.5025  0.3648
 8280TIP3   OH246254   2.481   6.691   4.719  0.2432 -0.3789 -0.3973
 8280TIP3    H146255   2.571   6.673   4.693  0.6249  1.4716 -0.4710
 8280TIP3    H246256   2.459   6.773   4.675 -0.1492  1.2820  2.6198
 8281TIP3   OH246257   5.045   1.315   3.955  0.0588 -0.0628  1.0229
 8281TIP3    H146258   5.059   1.221   3.958  1.4361 -0.0600 -2.0341
 8281TIP3    H246259   5.071   1.346   4.042  1.8182 -2.2329  1.3464
 8282TIP3   OH246260   1.603   2.329  14.009 -0.2190 -0.2138  0.1533
 8282TIP3    H146261   1.687   2.287  14.024 -0.5777 -0.6886  0.8950
 8282TIP3    H246262   1.539   2.258  14.013 -0.8595  0.4118  1.6794
 8283TIP3   OH246263   0.826   1.543  11.504  0.1319  0.6097 -0.3712
 8283TIP3    H146264   0.826   1.637  11.490  2.6618  0.6860 -0.3421
 8283TIP3    H246265   0.902   1.511  11.454  0.3564 -1.1586  0.9644
 8284TIP3   OH246266   4.320   1.936  14.782  0.0108  0.7385 -0.2518
 8284TIP3    H146267   4.245   1.958  14.725 -0.0343 -0.8861 -0.8558
 8284TIP3    H246268   4.288   1.956  14.870 -0.5606  1.5738 -0.6222
 8285TIP3   OH246269   3.198   4.915   1.241  0.5652  0.5991 -0.7265
 8285TIP3    H146270   3.203   4.834   1.190  1.3442  0.7660 -0.9377
 8285TIP3    H246271   3.282   4.959   1.224  0.0294  1.6033 -0.8720
 8286TIP3   OH246272   6.691   5.369   5.128  0.1810  0.3236  0.0025
 8286TIP3    H146273   6.716   5.417   5.049  1.8558  1.0135  0.8926
 8286TIP3    H246274   6.602   5.340   5.111 -0.6523  3.1116 -0.8718
 8287TIP3   OH246275   3.105   6.602  14.732 -1.1643 -0.1349 -0.7716
 8287TIP3    H146276   3.124   6.687  14.692 -0.7732  0.2203  0.1587
 8287TIP3    H246277   3.116   6.539  14.660 -2.0671  0.6495 -1.6266
 8288TIP3   OH246278   4.400   2.384   2.194 -0.1120 -0.2838  0.2552
 8288TIP3    H146279   4.388   2.289   2.197  2.9500 -0.8409 -0.9402
 8288TIP3    H246280   4.370   2.415   2.279  0.6553 -2.6202  1.4518
 8289TIP3   OH246281   2.805   2.901  14.999 -0.3502  0.1462  0.1370
 8289TIP3    H146282   2.773   2.990  15.011 -1.7716 -0.0864 -1.5845
 8289TIP3    H246283   2.740   2.858  14.943  2.5794 -0.5292 -3.1328
 8290TIP3   OH246284   1.713   0.334   2.017  0.1117 -0.2027 -0.1971
 8290TIP3    H146285   1.641   0.319   2.079 -2.7329 -0.2092 -3.2043
 8290TIP3    H246286   1.785   0.280   2.050 -1.4108 -0.6160  2.7372
 8291TIP3   OH246287   4.739   1.104  16.937 -0.2465  0.2380 -0.7304
 8291TIP3    H146288   4.665   1.117  16.997  0.7581 -0.7269  0.7940
 8291TIP3    H246289   4.816   1.100  16.995  0.8676  0.0930 -2.1698
 8292TIP3   OH246290   4.345   6.373  11.743  0.3216  0.4142 -0.4293
 8292TIP3    H146291   4.354   6.350  11.650  1.7815 -0.9983  0.0312
 8292TIP3    H246292   4.344   6.289  11.789  1.2843  1.1350  0.9730
 8293TIP3   OH246293   5.113   6.002   5.534  0.3464  0.0572  0.0087
 8293TIP3    H146294   5.102   5.929   5.595  0.3170  1.0779  1.2750
 8293TIP3    H246295   5.029   6.009   5.489  0.2608 -0.5056  0.0793
 8294TIP3   OH246296   5.988   5.207  12.370  0.0953 -0.2033  0.1186
 8294TIP3    H146297   5.991   5.212  12.466 -0.6425 -0.8850  0.1855
 8294TIP3    H246298   5.915   5.148  12.351  0.3242 -0.1884 -0.8655
 8295TIP3   OH246299   6.006   2.865   1.333  0.3008 -0.0801  0.3231
 8295TIP3    H146300   5.931   2.859   1.392  0.7537 -1.8525  0.7876
 8295TIP3    H246301   5.996   2.791   1.273  1.8699 -0.6105  0.6707
 8296TIP3   OH246302   4.810   3.900  14.913  0.3389 -0.6506  0.2725
 8296TIP3    H146303   4.829   3.822  14.965  0.7027 -0.0260  1.1164
 8296TIP3    H246304   4.895   3.943  14.904  0.1587 -0.4029 -0.2708
 8297TIP3   OH246305   2.290   0.569  14.981  0.0957  0.3277  0.7778
 8297TIP3    H146306   2.210   0.622  14.975 -0.7196 -0.9393  0.0432
 8297TIP3    H246307   2.360   0.627  14.950 -0.7893  0.9415 -0.1155
 8298TIP3   OH246308   2.361   4.749  13.881  0.2951  0.6604  0.2936
 8298TIP3    H146309   2.419   4.825  13.884  1.8933 -0.3678 -1.6084
 8298TIP3    H246310   2.413   4.678  13.920  0.5956 -0.4014 -1.8979
 8299TIP3   OH246311   1.519   2.583  10.820 -0.0454 -0.4829  0.0511
 8299TIP3    H146312   1.434   2.593  10.864 -0.1177  1.1236 -0.3714
 8299TIP3    H246313   1.539   2.490  10.828 -0.3815 -0.4102  2.8707
 8300TIP3   OH246314   2.115   1.752  16.762 -0.3324  0.2241  0.0862
 8300TIP3    H146315   2.055   1.700  16.710  0.7965  0.2296 -1.2824
 8300TIP3    H246316   2.061   1.822  16.799 -1.1857  0.1613 -1.0013
 8301TIP3   OH246317   6.596   5.151   5.693  0.1604 -0.3452 -0.1271
 8301TIP3    H146318   6.546   5.230   5.715 -0.4406 -0.2885 -1.5566
 8301TIP3    H246319   6.659   5.142   5.764 -1.3585  0.0326  1.3287
 8302TIP3   OH246320   5.789   0.371  12.516 -0.0239  0.0687  0.5932
 8302TIP3    H146321   5.775   0.388  12.423 -0.3726  1.6767  0.9030
 8302TIP3    H246322   5.876   0.407  12.533 -0.0510 -0.0316  0.9340
 8303TIP3   OH246323   0.244   1.696   1.899 -0.2722  0.0694  0.0830
 8303TIP3    H146324   0.166   1.743   1.928  0.6028  1.1251  0.8741
 8303TIP3    H246325   0.312   1.723   1.962  1.3018  1.0709 -1.9127
 8304TIP3   OH246326   5.379   1.750   5.291 -0.2029  0.7471  0.3940
 8304TIP3    H146327   5.361   1.774   5.200 -1.2229  2.2987  0.9807
 8304TIP3    H246328   5.294   1.753   5.335  0.5881  2.4986  1.9317
 8305TIP3   OH246329   2.327   5.533  16.585 -0.3548  0.8770 -0.3565
 8305TIP3    H146330   2.259   5.509  16.523  0.7757  0.5087 -1.5059
 8305TIP3    H246331   2.363   5.615  16.550  0.4746  0.5235 -0.3657
 8306TIP3   OH246332   6.433   2.439  13.461  0.5400  0.2329  0.7166
 8306TIP3    H146333   6.480   2.479  13.534  2.4739  0.9824 -0.8647
 8306TIP3    H246334   6.490   2.451  13.386 -1.2137 -0.8580 -0.8766
 8307TIP3   OH246335   4.793   0.770   2.035  0.4188 -0.7450  0.2776
 8307TIP3    H146336   4.835   0.689   2.007 -0.5853 -0.5709 -1.9594
 8307TIP3    H246337   4.796   0.827   1.957 -0.6830  0.6025  1.1637
 8308TIP3   OH246338   0.985   4.148  17.356  0.2265 -0.0810  0.4939
 8308TIP3    H146339   1.070   4.130  17.315  0.1674 -0.0073  0.3397
 8308TIP3    H246340   0.969   4.240  17.338 -1.1031 -0.6933 -1.7175
 8309TIP3   OH246341   0.294   4.619   3.232 -0.4718 -0.4409 -0.1963
 8309TIP3    H146342   0.361   4.608   3.299 -1.7686 -0.6032  1.1197
 8309TIP3    H246343   0.297   4.538   3.181  1.1716  0.0734 -0.9846
 8310TIP3   OH246344   5.272   1.611   3.951  0.1485 -0.2999  0.0447
 8310TIP3    H146345   5.320   1.527   3.948 -2.9666 -2.3472 -4.8171
 8310TIP3    H246346   5.323   1.669   3.894  0.1949 -0.2488  0.1379
 8311TIP3   OH246347   2.534   1.053   2.978 -0.3883  0.1736  0.0340
 8311TIP3    H146348   2.468   1.082   2.915 -0.4691  0.7332  0.3623
 8311TIP3    H246349   2.517   1.107   3.056 -1.4705 -1.7215  1.2067
 8312TIP3   OH246350   3.273   4.339   6.849  0.1004 -0.0747 -0.4120
 8312TIP3    H146351   3.365   4.335   6.876 -0.4195  0.4708  1.5794
 8312TIP3    H246352   3.277   4.353   6.754  2.0586 -0.2485 -0.3976
 8313TIP3   OH246353   2.429   2.493   3.793  0.3242  0.5262  0.1685
 8313TIP3    H146354   2.428   2.530   3.704  0.2554  2.0509  0.7838
 8313TIP3    H246355   2.340   2.460   3.805  0.6751 -0.8424 -0.7743
 8314TIP3   OH246356   2.049   3.569   5.803  0.1536  0.1587  0.1526
 8314TIP3    H146357   1.976   3.619   5.839  0.0024  2.0493 -2.4337
 8314TIP3    H246358   2.123   3.590   5.859 -0.4317  1.4757  0.4761
 8315TIP3   OH246359   6.553   1.438  12.003  0.8636  0.0409  0.5342
 8315TIP3    H146360   6.509   1.353  11.997  0.1054  0.3376  1.6428
 8315TIP3    H246361   6.567   1.451  12.096  3.1185  0.0916  0.2388
 8316TIP3   OH246362   3.607   2.869  12.978 -0.2342  0.0659  0.2202
 8316TIP3    H146363   3.536   2.827  12.930 -0.7777 -2.0162  2.6155
 8316TIP3    H246364   3.581   2.961  12.984  0.5682  0.8675 -4.4737
 8317TIP3   OH246365   5.437   4.258   4.958  0.2188  0.2553 -0.5825
 8317TIP3    H146366   5.345   4.234   4.970  0.0151  0.3668 -1.7642
 8317TIP3    H246367   5.448   4.339   5.008 -0.3662  0.3247 -0.5661
 8318TIP3   OH246368   6.278   2.772   1.114 -0.5133  0.2414  0.1116
 8318TIP3    H146369   6.277   2.697   1.174 -0.3854  0.1065 -0.0522
 8318TIP3    H246370   6.299   2.847   1.169 -1.4948  0.2912  0.4253
 8319TIP3   OH246371   0.084   2.380  15.734 -0.2948  0.5681  0.4635
 8319TIP3    H146372   0.048   2.327  15.663 -0.8338  0.3469  0.8943
 8319TIP3    H246373   0.007   2.411  15.783  0.0857  0.2218  1.3078
 8320TIP3   OH246374   2.969   0.738  16.032  0.1394  0.0498 -0.1170
 8320TIP3    H146375   3.048   0.695  15.999 -1.0138 -2.1738 -0.2037
 8320TIP3    H246376   2.966   0.821  15.986  2.8777  0.6377  0.5478
 8321TIP3   OH246377   5.441   5.586  17.052 -0.3206  0.0187  0.1803
 8321TIP3    H146378   5.450   5.672  17.011 -1.9564  0.4295  0.6066
 8321TIP3    H246379   5.358   5.591  17.100  0.3868 -1.2351  1.5980
 8322TIP3   OH246380   4.578   5.914  13.877 -0.2725  0.1028 -0.2223
 8322TIP3    H146381   4.658   5.865  13.893  1.2696  2.4712 -0.1715
 8322TIP3    H246382   4.554   5.891  13.787  0.9366 -0.0243 -0.5266
 8323TIP3   OH246383   1.295   5.564  16.287  0.3746 -0.1903 -0.5642
 8323TIP3    H146384   1.249   5.569  16.203 -0.3372 -1.0278 -0.2505
 8323TIP3    H246385   1.273   5.476  16.320  1.9966 -0.5125 -0.2744
 8324TIP3   OH246386   0.728   1.019   4.638  0.1871  0.1772 -0.4808
 8324TIP3    H146387   0.723   1.052   4.548 -2.5870  0.0149 -0.4513
 8324TIP3    H246388   0.721   1.097   4.693 -2.5813 -0.0359 -0.4354
 8325TIP3   OH246389   2.334   6.253   0.465 -0.6032  0.4648 -0.2219
 8325TIP3    H146390   2.352   6.296   0.381 -0.3628  1.0295  0.1173
 8325TIP3    H246391   2.418   6.255   0.512 -1.2095  2.0537  0.8865
 8326TIP3   OH246392   0.096   2.575   2.961 -0.4165 -0.9800  0.2579
 8326TIP3    H146393   0.019   2.602   2.911  0.0024 -0.2438  0.0071
 8326TIP3    H246394   0.082   2.612   3.048  0.1691  0.1000 -0.0922
 8327TIP3   OH246395   5.100   3.666   6.188  0.3119 -0.2347 -0.3946
 8327TIP3    H146396   5.069   3.725   6.120  0.9649 -1.6943 -2.0268
 8327TIP3    H246397   5.185   3.702   6.214  2.1458 -1.9029 -3.4993
 8328TIP3   OH246398   1.596   2.615  11.679 -0.1971  0.2673  0.6012
 8328TIP3    H146399   1.679   2.576  11.652 -0.6381 -0.0226 -0.3593
 8328TIP3    H246400   1.563   2.554  11.745 -0.9461 -1.1254 -0.9842
 8329TIP3   OH246401   5.122   1.090   1.257 -0.1613  0.0484  0.4908
 8329TIP3    H146402   5.183   1.101   1.185  1.0259  0.9084  1.5928
 8329TIP3    H246403   5.146   1.005   1.295  0.6136  0.5480  1.1439
 8330TIP3   OH246404   5.383   0.130   3.010 -0.1227 -0.0612  0.1552
 8330TIP3    H146405   5.455   0.082   3.051  0.2837  0.4150  0.0039
 8330TIP3    H246406   5.308   0.070   3.016 -0.1198  0.0520  1.7235
 8331TIP3   OH246407   4.047   0.842   1.704  0.1278  0.1633 -0.0436
 8331TIP3    H146408   4.105   0.858   1.629 -0.3916 -2.3073 -1.0625
 8331TIP3    H246409   4.103   0.797   1.768 -0.2626 -0.9360 -0.4467
 8332TIP3   OH246410   1.850   5.552  12.846 -0.1874 -0.2501 -0.1190
 8332TIP3    H146411   1.903   5.482  12.809  0.0837 -0.7743  1.1902
 8332TIP3    H246412   1.765   5.544  12.803 -0.1027 -1.2766 -0.1167
 8333TIP3   OH246413   6.501   3.771   0.621  0.0578 -0.0965  0.3267
 8333TIP3    H146414   6.446   3.736   0.692  0.8547 -0.4482  0.7895
 8333TIP3    H246415   6.584   3.724   0.630 -0.1168 -0.7787 -1.4047
 8334TIP3   OH246416   2.107   3.555   1.643  0.5672 -0.5200  0.2790
 8334TIP3    H146417   2.190   3.559   1.595 -0.7567  1.4258 -2.1367
 8334TIP3    H246418   2.073   3.467   1.625  1.3602 -0.7569 -0.1183
 8335TIP3   OH246419   4.368   5.009   2.697  0.0100  0.5240  0.0700
 8335TIP3    H146420   4.307   5.078   2.722  1.7692  2.5313 -0.8177
 8335TIP3    H246421   4.313   4.938   2.664 -1.8517  2.0183 -0.2083
 8336TIP3   OH246422   5.610   0.269   1.082 -0.3984  0.1044  0.3269
 8336TIP3    H146423   5.615   0.284   1.177  0.3941 -0.8134  0.4536
 8336TIP3    H246424   5.659   0.341   1.043  0.9830 -0.5605  0.7505
 8337TIP3   OH246425   0.584   4.670   3.697  0.1031 -0.3209 -0.1538
 8337TIP3    H146426   0.534   4.612   3.754 -2.2401  0.3906 -1.3570
 8337TIP3    H246427   0.553   4.758   3.719  1.0838  0.1910 -0.7291
 8338TIP3   OH246428   5.126   2.530   1.799 -0.1338  0.1495 -0.2337
 8338TIP3    H146429   5.152   2.551   1.889  0.9649 -0.2237 -0.4381
 8338TIP3    H246430   5.062   2.460   1.808 -2.1101  1.9494  0.3543
 8339TIP3   OH246431   1.329   5.630  15.121 -0.1707 -0.3607 -1.0986
 8339TIP3    H146432   1.284   5.547  15.133 -1.9388  0.7068 -0.0422
 8339TIP3    H246433   1.417   5.615  15.158 -1.2622 -1.0431  1.4398
 8340TIP3   OH246434   0.395   3.535  14.404 -0.2198  0.0088 -0.6800
 8340TIP3    H146435   0.483   3.498  14.408  0.2855  1.2512  0.5264
 8340TIP3    H246436   0.396   3.593  14.328 -0.1678 -0.3644 -0.9664
 8341TIP3   OH246437   4.522   4.391  15.454  0.8415 -0.2527 -0.8421
 8341TIP3    H146438   4.442   4.355  15.416 -1.6778  3.1419  0.7069
 8341TIP3    H246439   4.515   4.371  15.548  1.0894  1.1488 -0.4980
 8342TIP3   OH246440   3.793   2.477   4.335 -0.2863  0.2568  0.0557
 8342TIP3    H146441   3.734   2.480   4.411 -1.3683  1.0508 -0.7946
 8342TIP3    H246442   3.880   2.486   4.373 -0.4814 -2.7319  1.5293
 8343TIP3   OH246443   4.904   2.420  12.044 -0.1436  0.4104  0.4442
 8343TIP3    H146444   4.950   2.454  11.968 -0.6847 -2.0683 -1.0976
 8343TIP3    H246445   4.971   2.377  12.096 -0.1602 -0.1437  0.0137
 8344TIP3   OH246446   6.587   5.394  14.864  0.1049  0.0460 -0.0473
 8344TIP3    H146447   6.589   5.371  14.957 -1.0358  0.3317  0.0720
 8344TIP3    H246448   6.671   5.436  14.847  0.4316 -0.2579  0.7940
 8345TIP3   OH246449   1.219   4.283   3.545  0.0712 -0.4148  0.4456
 8345TIP3    H146450   1.190   4.308   3.633  2.0532  0.8190  0.8174
 8345TIP3    H246451   1.259   4.198   3.556 -1.8289 -1.3992  0.2191
 8346TIP3   OH246452   2.257   5.138   2.755 -0.5265  0.5506 -0.2032
 8346TIP3    H146453   2.285   5.196   2.683 -0.8752  1.8246  0.6569
 8346TIP3    H246454   2.210   5.195   2.815 -3.3863 -1.1414 -0.6504
 8347TIP3   OH246455   3.236   2.706  11.614  0.1285  0.0758 -0.7683
 8347TIP3    H146456   3.221   2.786  11.564 -2.3113 -0.7958 -1.5814
 8347TIP3    H246457   3.258   2.640  11.548 -0.0828 -0.4128 -0.3581
 8348TIP3   OH246458   1.644   5.923   3.711  0.1200 -0.5438  0.0994
 8348TIP3    H146459   1.677   6.013   3.711  0.4798 -0.6523 -1.3535
 8348TIP3    H246460   1.564   5.927   3.659 -0.0162 -1.0183  0.2735
 8349TIP3   OH246461   0.186   3.323  13.986 -0.3362  0.4525  0.6296
 8349TIP3    H146462   0.196   3.309  14.080  0.1140  1.4716  0.7530
 8349TIP3    H246463   0.154   3.240  13.952  1.2274 -0.5087  1.4005
 8350TIP3   OH246464   6.223   5.666  17.529  0.0349  0.4193  0.3436
 8350TIP3    H146465   6.313   5.650  17.502  0.0901  1.6349 -0.2543
 8350TIP3    H246466   6.196   5.742  17.478 -0.7895  1.0632  1.6997
 8351TIP3   OH246467   2.817   1.227  16.686 -0.3826  0.0167 -0.9024
 8351TIP3    H146468   2.903   1.194  16.661 -1.2471 -1.8147 -1.7074
 8351TIP3    H246469   2.758   1.154  16.668 -2.2378  1.5183 -1.2458
 8352TIP3   OH246470   4.104   0.045   4.496 -0.1425  0.1077  0.1239
 8352TIP3    H146471   4.139   0.053   4.407  0.4550  0.3312  0.3736
 8352TIP3    H246472   4.009   0.040   4.484 -0.1317  1.0539 -0.4698
 8353TIP3   OH246473   6.066   6.006   3.270 -0.4827 -0.4763  0.4775
 8353TIP3    H146474   6.001   6.071   3.297  0.7678  1.5288 -1.0653
 8353TIP3    H246475   6.146   6.033   3.316 -0.0325 -1.1756  0.1077
 8354TIP3   OH246476   3.394   0.356   2.100 -0.9609 -0.4820 -0.4183
 8354TIP3    H146477   3.393   0.422   2.169  1.4565 -1.9905  1.2381
 8354TIP3    H246478   3.377   0.405   2.020 -0.2180  1.9936  0.8191
 8355TIP3   OH246479   1.969   3.548  12.867 -0.0554  0.4161  0.0229
 8355TIP3    H146480   1.927   3.463  12.881 -1.9250  1.3006  0.0110
 8355TIP3    H246481   2.052   3.527  12.824 -0.4230 -1.3995  0.1263
 8356TIP3   OH246482   6.254   1.498  13.444 -0.0874  0.5404 -0.1113
 8356TIP3    H146483   6.180   1.477  13.501 -1.6145  0.8849 -1.8871
 8356TIP3    H246484   6.219   1.494  13.355  2.2386 -0.0917 -1.0949
 8357TIP3   OH246485   1.023   1.476  11.297  0.2230  0.2776  0.1584
 8357TIP3    H146486   1.062   1.420  11.230  0.3696 -0.0609  0.5267
 8357TIP3    H246487   0.983   1.548  11.247  0.5560  0.1683 -0.2749
 8358TIP3   OH246488   3.033   3.201  12.457  0.4256  0.1385 -0.0636
 8358TIP3    H146489   3.025   3.122  12.404  2.1399 -0.3125  0.3074
 8358TIP3    H246490   3.013   3.173  12.546  0.5102  0.2477 -0.0095
 8359TIP3   OH246491   1.479   5.707   3.282  0.4882 -0.1334 -0.2452
 8359TIP3    H146492   1.515   5.679   3.197 -2.0173  1.3960 -1.9563
 8359TIP3    H246493   1.415   5.639   3.303 -1.1360  0.9971 -1.2625
 8360TIP3   OH246494   1.518   5.530  12.407  0.5183 -0.0524 -0.4220
 8360TIP3    H146495   1.584   5.572  12.352  1.9346 -1.8367 -0.1619
 8360TIP3    H246496   1.461   5.485  12.345  0.5167  0.1323 -0.5573
 8361TIP3   OH246497   2.368   1.714   0.778 -0.3038 -0.5961  0.1634
 8361TIP3    H146498   2.332   1.697   0.865 -2.7930  0.4013 -0.5794
 8361TIP3    H246499   2.307   1.671   0.718  1.6333 -1.6953 -1.1261
 8362TIP3   OH246500   5.638   1.072  11.475 -0.0297  0.5426  0.1341
 8362TIP3    H146501   5.544   1.083  11.492  0.2244  0.8284  1.4392
 8362TIP3    H246502   5.669   1.016  11.546  1.0181  1.4685  0.4355
 8363TIP3   OH246503   6.254   4.388   1.317 -0.0985  0.0234 -0.1323
 8363TIP3    H146504   6.338   4.413   1.356 -0.0679 -0.6446  0.2552
 8363TIP3    H246505   6.191   4.451   1.351  0.2929  0.6975 -0.6484
 8364TIP3   OH246506   1.705   5.648  13.238  0.2412  0.2268  0.2534
 8364TIP3    H146507   1.801   5.647  13.239  0.2434 -0.3806  1.1865
 8364TIP3    H246508   1.680   5.591  13.311 -0.8369 -0.6749 -0.7722
 8365TIP3   OH246509   3.281   2.389  16.331 -0.3165 -0.4043 -0.6004
 8365TIP3    H146510   3.318   2.478  16.327 -0.0840 -0.5129 -0.9453
 8365TIP3    H246511   3.193   2.401  16.365 -0.0555 -0.1092 -0.0121
 8366TIP3   OH246512   4.218   1.218  11.902 -0.1909  0.1300  0.4918
 8366TIP3    H146513   4.187   1.128  11.888 -1.1445  0.6478 -1.0667
 8366TIP3    H246514   4.202   1.261  11.818  0.4287  1.7202  1.1587
 8367TIP3   OH246515   4.639   6.280  12.090  0.6277 -0.4650  0.1571
 8367TIP3    H146516   4.598   6.333  12.021 -1.1938 -0.0772  1.4400
 8367TIP3    H246517   4.601   6.193  12.078 -0.4880 -0.1505  1.2406
 8368TIP3   OH246518   4.929   2.675   0.666  0.5018 -0.1386  0.0113
 8368TIP3    H146519   4.887   2.751   0.707  0.6433 -0.4137  0.6805
 8368TIP3    H246520   4.957   2.707   0.580 -1.2382 -0.0077 -0.5500
 8369TIP3   OH246521   4.652   4.525   4.125 -0.4984 -0.5760 -0.2299
 8369TIP3    H146522   4.720   4.569   4.075 -0.4662 -1.3008 -0.8485
 8369TIP3    H246523   4.676   4.432   4.122 -0.3271 -0.6133  1.4030
 8370TIP3   OH246524   0.890   5.319  11.628  0.4798  0.1990 -0.0263
 8370TIP3    H146525   0.896   5.243  11.686  1.2124 -0.1255 -0.5101
 8370TIP3    H246526   0.796   5.333  11.617  0.3365 -0.1463  0.6990
 8371TIP3   OH246527   1.033   4.058   1.769 -0.1832  0.4077 -0.1829
 8371TIP3    H146528   0.981   4.077   1.691 -2.4423 -1.7265  0.6871
 8371TIP3    H246529   1.092   3.987   1.742 -1.4760 -0.8433  0.1782
 8372TIP3   OH246530   1.147   6.352   0.401 -0.0555  0.6884  0.1689
 8372TIP3    H146531   1.210   6.386   0.337 -0.0509  1.1382  0.4080
 8372TIP3    H246532   1.065   6.396   0.379  0.1249  1.4566  0.9523
 8373TIP3   OH246533   0.354   1.979  11.697  0.2303  0.4697  0.2742
 8373TIP3    H146534   0.414   2.051  11.718  0.6104  0.8544 -1.8988
 8373TIP3    H246535   0.267   2.018  11.704  0.3668  0.7528  0.4301
 8374TIP3   OH246536   5.289   3.296   4.883 -0.0570  0.0251  0.6557
 8374TIP3    H146537   5.232   3.237   4.835 -1.5522 -0.5238  2.9140
 8374TIP3    H246538   5.231   3.338   4.947  1.9396 -0.2766  2.8210
 8375TIP3   OH246539   1.860   5.369  11.794 -0.0409 -0.3442  0.5411
 8375TIP3    H146540   1.830   5.460  11.796  0.7740 -0.0760  1.7542
 8375TIP3    H246541   1.787   5.319  11.831 -0.4459 -0.1766 -0.0213
 8376TIP3   OH246542   6.424   4.961  13.750  0.2266 -0.0194  0.1565
 8376TIP3    H146543   6.369   4.893  13.711 -2.2641  1.5599  0.6849
 8376TIP3    H246544   6.411   4.953  13.844  2.0388 -0.4681  0.3994
 8377TIP3   OH246545   0.926   2.201  17.003  0.5117 -0.1752  0.1702
 8377TIP3    H146546   1.017   2.199  16.972 -0.0061  1.4486 -1.6468
 8377TIP3    H246547   0.884   2.127  16.958  0.6756 -0.2317  0.1060
 8378TIP3   OH246548   4.289   1.722  11.214  0.3898  0.6575  0.3850
 8378TIP3    H146549   4.253   1.809  11.234 -0.5777  0.5747 -0.8810
 8378TIP3    H246550   4.383   1.737  11.205  0.2284  1.5893  0.0941
 8379TIP3   OH246551   1.100   4.995  17.286  0.2538 -1.2498 -0.1523
 8379TIP3    H146552   1.100   5.043  17.369  1.6245 -0.3784 -0.6244
 8379TIP3    H246553   1.029   4.932  17.295 -1.7810  0.9523  0.4581
 8380TIP3   OH246554   1.581   4.557   5.145  0.1164 -0.3601  0.0356
 8380TIP3    H146555   1.508   4.539   5.085 -1.4456 -0.7554  1.9313
 8380TIP3    H246556   1.631   4.476   5.147  0.6741 -0.0851 -1.2905
 8381TIP3   OH246557   4.161   5.007  11.577  0.2476 -0.6068 -0.6756
 8381TIP3    H146558   4.135   4.966  11.495 -3.3024  0.2857 -0.1573
 8381TIP3    H246559   4.174   5.100  11.555 -1.8222 -0.1382 -0.1357
 8382TIP3   OH246560   5.189   2.910  14.409 -0.2564 -0.5750 -0.2850
 8382TIP3    H146561   5.268   2.936  14.457 -0.7106  0.0999  0.1114
 8382TIP3    H246562   5.210   2.927  14.317 -0.8490  2.1871  0.0007
 8383TIP3   OH246563   3.957   2.832   2.295  0.0968 -0.0386  0.2841
 8383TIP3    H146564   3.932   2.919   2.266 -0.1519  0.5996  2.2841
 8383TIP3    H246565   3.975   2.784   2.214 -0.7003  1.5652 -0.8945
 8384TIP3   OH246566   3.875   3.515  12.960 -0.0291  0.2565  0.2622
 8384TIP3    H146567   3.963   3.519  12.999  0.5923 -0.7081 -0.9644
 8384TIP3    H246568   3.887   3.463  12.880 -1.9669 -1.0272  0.7425
 8385TIP3   OH246569   3.602   2.930  11.333 -0.0866 -0.1203 -0.4707
 8385TIP3    H146570   3.575   3.020  11.351  1.5571  0.9154 -2.6401
 8385TIP3    H246571   3.697   2.930  11.346 -0.1903 -1.9049  0.6768
 8386TIP3   OH246572   5.475   4.746   3.231  0.3806  0.2631 -0.5321
 8386TIP3    H146573   5.507   4.825   3.275  0.1374 -0.3172  0.7465
 8386TIP3    H246574   5.548   4.716   3.178  1.0329  0.4679  0.2268
 8387TIP3   OH246575   0.357   3.313   6.296 -0.1683 -0.1097 -0.7844
 8387TIP3    H146576   0.369   3.221   6.271  0.4182 -0.3502  0.3290
 8387TIP3    H246577   0.263   3.328   6.287 -0.1147 -0.4457 -2.1775
 8388TIP3   OH246578   3.214   6.545  14.042 -0.7181  0.1000  0.1584
 8388TIP3    H146579   3.232   6.637  14.060  1.1930 -0.3439  0.8370
 8388TIP3    H246580   3.158   6.517  14.115 -0.0596  0.3804  0.7892
 8389TIP3   OH246581   3.346   5.489  10.837  0.3681 -0.1467  0.3224
 8389TIP3    H146582   3.356   5.441  10.920  1.0591 -0.4071  0.0983
 8389TIP3    H246583   3.434   5.489  10.799 -0.1002 -0.7708 -0.8159
 8390TIP3   OH246584   6.146   0.935  12.935 -0.1333  0.3656  0.3446
 8390TIP3    H146585   6.171   0.996  12.866 -0.0181 -0.6894 -0.5740
 8390TIP3    H246586   6.130   0.852  12.889  3.5689 -1.4219  1.9008
 8391TIP3   OH246587   4.818   4.933  12.636 -0.0606  0.1436  0.2259
 8391TIP3    H146588   4.763   4.956  12.561  0.4617  1.1590  0.1472
 8391TIP3    H246589   4.780   4.981  12.710 -1.0659 -1.4692  0.8274
 8392TIP3   OH246590   3.173   5.309  11.610 -0.4398 -0.3615  0.8217
 8392TIP3    H146591   3.227   5.382  11.640  0.4278  0.2412 -1.9188
 8392TIP3    H246592   3.234   5.235  11.604  0.0693  0.1532 -1.6301
 8393TIP3   OH246593   0.880   2.734   1.449  0.3186 -0.1958 -0.3810
 8393TIP3    H146594   0.838   2.698   1.370  0.5684 -1.0684 -0.1297
 8393TIP3    H246595   0.903   2.657   1.501 -0.0499  0.3701  0.6609
 8394TIP3   OH246596   0.504   1.835   4.975 -0.3619 -0.3738  0.1047
 8394TIP3    H146597   0.504   1.929   4.994  1.3072 -0.3790  0.2413
 8394TIP3    H246598   0.417   1.818   4.938 -0.5085  1.3168 -0.3925
 8395TIP3   OH246599   3.706   0.548  17.549  1.2899 -0.4600 -0.4795
 8395TIP3    H146600   3.633   0.592  17.505 -0.3970 -5.1884 -3.1524
 8395TIP3    H246601   3.777   0.550  17.485  1.2331 -1.4232 -0.5783
 8396TIP3   OH246602   2.484   6.208  14.401 -0.1740 -0.4740  0.0400
 8396TIP3    H146603   2.516   6.299  14.396  0.3342 -0.5800  0.9953
 8396TIP3    H246604   2.391   6.217  14.422 -1.0590 -0.1494 -3.4932
 8397TIP3   OH246605   2.532   3.366  11.910  0.8008 -0.2374 -0.5164
 8397TIP3    H146606   2.611   3.315  11.892  3.1443  2.9860 -0.2364
 8397TIP3    H246607   2.522   3.423  11.833 -1.0699 -0.2880 -0.3681
 8398TIP3   OH246608   1.703   1.916   5.808  0.0542 -0.0708  0.3637
 8398TIP3    H146609   1.764   1.948   5.741 -0.4759 -1.0413 -0.6107
 8398TIP3    H246610   1.725   1.967   5.886  0.7941  0.9803 -0.4953
 8399TIP3   OH246611   4.129   2.679   3.034  0.2446 -0.0115 -0.5627
 8399TIP3    H146612   4.145   2.613   3.101  1.3229 -0.1142 -0.8981
 8399TIP3    H246613   4.206   2.674   2.977 -0.0171  1.0092 -1.0247
 8400TIP3   OH246614   5.666   6.432  14.010  0.3350 -0.2349  0.5356
 8400TIP3    H146615   5.644   6.426  13.917  1.8321 -2.1587  0.2395
 8400TIP3    H246616   5.587   6.468  14.051 -0.1629  1.1633 -1.5179
 8401TIP3   OH246617   0.919   4.401   3.951 -0.1067 -0.3204  0.0386
 8401TIP3    H146618   0.884   4.312   3.953 -2.1443  0.4202 -0.4963
 8401TIP3    H246619   0.927   4.426   4.043 -1.0732 -0.5191  0.1890
 8402TIP3   OH246620   0.085   2.920   3.697  0.0759  0.7477  0.4319
 8402TIP3    H146621   0.156   2.909   3.634 -0.2473  0.0495  0.1848
 8402TIP3    H246622   0.130   2.935   3.780  0.6934 -3.4315  1.0694
 8403TIP3   OH246623   2.992   3.118  14.026 -0.4413 -0.1445  0.5451
 8403TIP3    H146624   2.958   3.029  14.035 -0.5476 -0.0473  1.1506
 8403TIP3    H246625   3.061   3.111  13.960  1.1983 -1.1480  2.2829
 8404TIP3   OH246626   1.289   4.227  15.168  0.0845  0.0842  0.2607
 8404TIP3    H146627   1.265   4.184  15.086  1.5565 -0.5261  0.1006
 8404TIP3    H246628   1.225   4.196  15.232  1.3802 -2.9340  0.2933
 8405TIP3   OH246629   0.882   5.552   0.478 -0.0178  0.5186  0.4595
 8405TIP3    H146630   0.942   5.624   0.462  2.0023 -1.3284 -0.7865
 8405TIP3    H246631   0.830   5.545   0.398  0.4284  0.0271  0.2090
 8406TIP3   OH246632   6.694   2.987   1.252 -0.4397 -0.2055 -0.0779
 8406TIP3    H146633   6.775   2.965   1.207  0.3006 -1.0655  1.5851
 8406TIP3    H246634   6.721   3.039   1.327 -1.4541 -0.2140  0.3164
 8407TIP3   OH246635   1.477   0.334   3.589 -0.3218 -0.1230 -0.3004
 8407TIP3    H146636   1.487   0.369   3.500 -0.2413  0.0705 -0.2148
 8407TIP3    H246637   1.559   0.354   3.633 -0.6537  0.4756  0.0565
 8408TIP3   OH246638   5.910   5.206  11.873 -0.5073  0.5179  0.3478
 8408TIP3    H146639   5.986   5.216  11.817 -0.3961  0.5271  0.5001
 8408TIP3    H246640   5.836   5.235  11.819 -0.6292 -1.0764 -0.3697
 8409TIP3   OH246641   1.424   2.722  11.906 -0.0985  0.1911  0.3486
 8409TIP3    H146642   1.334   2.748  11.885  0.0407 -0.1575 -0.7558
 8409TIP3    H246643   1.414   2.657  11.976 -0.8947 -1.3750 -1.1322
 8410TIP3   OH246644   5.280   5.318  15.249 -0.4190  0.8349  0.5022
 8410TIP3    H146645   5.291   5.336  15.155  0.5433  1.8005  0.7762
 8410TIP3    H246646   5.294   5.224  15.257  2.3046  1.1067  0.0051
 8411TIP3   OH246647   4.896   2.972   2.380 -0.3282  0.2511  0.1168
 8411TIP3    H146648   4.847   2.986   2.299  0.3846  1.8896 -0.0748
 8411TIP3    H246649   4.986   2.953   2.351 -0.6725 -2.2564  0.4769
 8412TIP3   OH246650   5.991   3.426  12.835 -0.0897  0.1555  0.3188
 8412TIP3    H146651   5.904   3.390  12.815  0.8204 -2.0121  0.0254
 8412TIP3    H246652   5.974   3.490  12.905 -2.2301  1.8084 -1.5125
 8413TIP3   OH246653   0.643   2.094   4.506 -0.1893 -0.0212  0.0784
 8413TIP3    H146654   0.691   2.161   4.555 -1.5314  0.6049  0.6047
 8413TIP3    H246655   0.562   2.081   4.556 -0.6899 -0.8493 -0.8940
 8414TIP3   OH246656   6.097   2.386   5.934 -0.2127 -0.4151  0.2016
 8414TIP3    H146657   6.052   2.377   5.850  0.6168 -1.1780 -0.1800
 8414TIP3    H246658   6.099   2.480   5.951  1.7505 -0.0130 -1.8507
 8415TIP3   OH246659   5.477   3.105   5.779  0.1839  0.1198 -0.6867
 8415TIP3    H146660   5.418   3.175   5.807 -0.6441 -0.5956 -0.6071
 8415TIP3    H246661   5.534   3.090   5.855 -0.1910  0.1238 -0.4054
 8416TIP3   OH246662   0.897   3.804  15.611  0.0875 -0.4356 -0.4284
 8416TIP3    H146663   0.985   3.769  15.593  1.5968  2.3023  0.9571
 8416TIP3    H246664   0.884   3.871  15.543  0.3323  1.0743  0.9450
 8417TIP3   OH246665   4.010   0.424  17.425  0.4538 -0.1785  0.0064
 8417TIP3    H146666   3.972   0.410  17.338  1.8633  1.2515 -0.8906
 8417TIP3    H246667   4.104   0.413  17.412  0.5941 -1.1685  1.6448
 8418TIP3   OH246668   1.815   5.217  16.601 -0.2476 -0.1819  0.0898
 8418TIP3    H146669   1.827   5.289  16.539 -0.1673 -1.3109 -1.2590
 8418TIP3    H246670   1.872   5.238  16.675 -2.5408  2.7110  1.2273
 8419TIP3   OH246671   2.423   2.438  13.747  0.5655  0.0153  0.4176
 8419TIP3    H146672   2.487   2.473  13.809  1.9475  0.7244 -1.3327
 8419TIP3    H246673   2.339   2.449  13.791  1.5747 -0.6833  2.6762
 8420TIP3   OH246674   6.568   1.892  16.755 -0.1964 -0.2422 -0.4118
 8420TIP3    H146675   6.476   1.878  16.777 -0.1744  0.9041  0.5013
 8420TIP3    H246676   6.566   1.946  16.676 -0.2763 -1.8031 -1.5238
 8421TIP3   OH246677   2.477   5.701  14.002 -0.3565  0.4353 -0.0436
 8421TIP3    H146678   2.569   5.711  13.976 -0.6809 -1.4823 -2.2328
 8421TIP3    H246679   2.429   5.759  13.942 -0.7773 -0.9391 -1.0957
 8422TIP3   OH246680   2.317   4.044  11.701 -0.5989  0.2077 -0.1476
 8422TIP3    H146681   2.321   4.014  11.610 -2.0289 -1.0890  0.1761
 8422TIP3    H246682   2.370   3.982  11.750  0.0256  0.8032 -0.0450
 8423TIP3   OH246683   2.390   5.629   3.683 -0.1846 -0.5248 -0.4836
 8423TIP3    H146684   2.316   5.690   3.689  0.0731 -0.2474 -0.1072
 8423TIP3    H246685   2.393   5.587   3.768  0.1683 -0.4488 -0.4587
 8424TIP3   OH246686   3.977   3.083   2.171 -0.1238 -0.0135 -0.0515
 8424TIP3    H146687   3.913   3.127   2.117 -0.6274  0.2897  0.7711
 8424TIP3    H246688   4.031   3.153   2.207  0.5374 -0.2484 -0.5547
 8425TIP3   OH246689   4.202   6.297  14.674 -0.2700  0.2465  0.2046
 8425TIP3    H146690   4.185   6.357  14.747 -1.3628  0.1253  0.0648
 8425TIP3    H246691   4.254   6.227  14.713  0.4827  0.9554  0.5104
 8426TIP3   OH246692   5.241   5.194   0.174  0.3856  0.2101  0.0439
 8426TIP3    H146693   5.173   5.190   0.106 -0.2994 -0.1043  0.7275
 8426TIP3    H246694   5.322   5.211   0.126 -0.0723 -0.0696 -0.8612
 8427TIP3   OH246695   4.143   2.392   0.168  0.3811 -0.8584  0.5236
 8427TIP3    H146696   4.129   2.384   0.074 -0.1976 -1.8125  0.6824
 8427TIP3    H246697   4.057   2.417   0.203  0.6557 -0.2398  0.7745
 8428TIP3   OH246698   2.296   1.899  12.678 -0.2488 -0.3342 -0.0559
 8428TIP3    H146699   2.225   1.836  12.665  0.0570 -0.7985  0.4487
 8428TIP3    H246700   2.372   1.857  12.637 -0.0718 -0.2425  0.1771
 8429TIP3   OH246701   4.228   2.451   0.672  0.1128 -0.2045  0.0285
 8429TIP3    H146702   4.185   2.385   0.725 -2.6669  2.4369  1.4055
 8429TIP3    H246703   4.256   2.518   0.735 -1.8355  2.2695 -1.5316
 8430TIP3   OH246704   3.487   4.877   4.672  0.3616 -0.3743 -0.2631
 8430TIP3    H146705   3.497   4.892   4.766  2.4761 -0.5750 -0.4135
 8430TIP3    H246706   3.471   4.965   4.635  1.3993 -0.0249  0.0926
 8431TIP3   OH246707   2.176   3.116  13.325 -0.3672  0.1009  0.0282
 8431TIP3    H146708   2.149   3.084  13.238 -0.5090  0.8416 -0.2062
 8431TIP3    H246709   2.237   3.187  13.307 -0.0632 -0.0253  0.5435
 8432TIP3   OH246710   0.809   0.327   0.714  0.0027  0.5409 -0.8736
 8432TIP3    H146711   0.737   0.271   0.744  0.5983 -0.6220 -1.5644
 8432TIP3    H246712   0.840   0.370   0.794 -0.6779  0.1263 -0.3729
 8433TIP3   OH246713   2.193   4.079  11.424 -0.2217 -0.4942  0.6609
 8433TIP3    H146714   2.162   4.141  11.490  0.2465  1.2454 -0.6835
 8433TIP3    H246715   2.261   4.127  11.376 -1.6868 -1.0432 -2.1511
 8434TIP3   OH246716   2.923   0.897  11.679 -0.5300 -0.2338  0.0280
 8434TIP3    H146717   2.876   0.818  11.655 -0.2403 -1.0845  2.0730
 8434TIP3    H246718   3.015   0.871  11.682 -0.4297  0.1643  0.6962
 8435TIP3   OH246719   3.118   1.871  14.642 -0.1062 -0.0197 -0.2247
 8435TIP3    H146720   3.025   1.874  14.665 -0.3378 -3.2909 -0.2829
 8435TIP3    H246721   3.128   1.940  14.576 -1.7673  2.3700  1.8018
 8436TIP3   OH246722   1.995   3.441  12.038  0.0392  0.9760  0.1822
 8436TIP3    H146723   2.030   3.483  11.960 -0.6052 -0.1100 -0.7277
 8436TIP3    H246724   1.904   3.469  12.042 -0.6504 -0.9252 -0.9337
 8437TIP3   OH246725   4.217   3.330   4.978 -0.4370 -0.3248 -0.2681
 8437TIP3    H146726   4.179   3.311   5.064  0.5122  0.3035  0.3102
 8437TIP3    H246727   4.264   3.250   4.955 -0.5635 -0.4417 -0.1262
 8438TIP3   OH246728   0.396   6.376  13.535  0.6516  0.5727  0.0231
 8438TIP3    H146729   0.462   6.437  13.501  1.0823  1.2605  1.9710
 8438TIP3    H246730   0.446   6.309  13.581  0.0443  0.8689  1.1580
 8439TIP3   OH246731   1.653   0.721  14.539  0.0998 -0.2711 -0.4006
 8439TIP3    H146732   1.644   0.643  14.484 -1.1432 -0.5512  0.1614
 8439TIP3    H246733   1.747   0.727  14.557  0.3017 -1.2071 -1.0610
 8440TIP3   OH246734   0.230   6.048  15.870  0.2114 -0.5163 -0.3442
 8440TIP3    H146735   0.178   6.126  15.853  0.4455 -0.3245 -0.1801
 8440TIP3    H246736   0.258   6.018  15.783  4.1369  2.2823 -0.3167
 8441TIP3   OH246737   5.262   5.405   1.651 -0.6242  0.4519 -0.3658
 8441TIP3    H146738   5.281   5.378   1.561 -0.6208  0.8226 -0.4766
 8441TIP3    H246739   5.258   5.323   1.700  2.9614  0.3612  0.0226
 8442TIP3   OH246740   2.594   5.189   4.526  0.3513 -0.3275 -0.1386
 8442TIP3    H146741   2.582   5.143   4.442 -3.1072  0.0523  0.0118
 8442TIP3    H246742   2.587   5.120   4.592  1.3865 -0.3991 -0.0985
 8443TIP3   OH246743   4.159   5.675  11.922  0.0896  0.4496 -0.1352
 8443TIP3    H146744   4.135   5.583  11.914  0.2712  0.4296 -0.4912
 8443TIP3    H246745   4.181   5.702  11.832  0.0795  0.8261 -0.0273
 8444TIP3   OH246746   2.442   3.628  15.291 -0.6155  0.6936  0.6316
 8444TIP3    H146747   2.384   3.637  15.216 -1.7284  0.1876  1.4128
 8444TIP3    H246748   2.497   3.553  15.269  0.3186  1.6503 -0.4546
 8445TIP3   OH246749   3.870   2.746   4.771  0.1444 -0.0621  0.1228
 8445TIP3    H146750   3.961   2.716   4.763 -0.1485 -1.9382  2.6023
 8445TIP3    H246751   3.839   2.707   4.852 -2.9453  0.4556 -0.6801
 8446TIP3   OH246752   6.100   2.253  14.953  0.1148 -0.3732 -0.0748
 8446TIP3    H146753   6.085   2.345  14.974  1.4444  0.2621 -1.6824
 8446TIP3    H246754   6.014   2.219  14.929 -0.2475  0.7197 -0.3646
 8447TIP3   OH246755   1.961   4.400  12.871  0.2956 -0.5301  0.2918
 8447TIP3    H146756   1.926   4.324  12.917  0.3404  0.4556  2.0312
 8447TIP3    H246757   1.924   4.475  12.918  1.8605  0.5326 -0.1132
 8448TIP3   OH246758   3.419   0.829   6.096  0.1516  0.3157  0.2745
 8448TIP3    H146759   3.331   0.797   6.074  0.9297 -2.0329  0.2908
 8448TIP3    H246760   3.407   0.923   6.110 -2.6592 -0.1415  1.8432
 8449TIP3   OH246761   6.514   4.727  13.326  0.5697  0.1304  0.5013
 8449TIP3    H146762   6.420   4.733  13.342  0.7355  1.3365  1.1089
 8449TIP3    H246763   6.521   4.690  13.238 -0.5305  1.9924 -0.4259
 8450TIP3   OH246764   4.330   4.179   3.004 -0.7326  0.2132  0.1842
 8450TIP3    H146765   4.298   4.089   3.001 -1.0029  0.3045  0.4115
 8450TIP3    H246766   4.419   4.173   2.968 -1.3619  0.1291 -1.4617
 8451TIP3   OH246767   0.091   3.564  17.588 -0.2291  0.6499 -0.2706
 8451TIP3    H146768   0.157   3.590  17.525 -0.4076  1.4832 -0.1382
 8451TIP3    H246769   0.117   3.477  17.618 -0.1437  0.2512 -1.4748
 8452TIP3   OH246770   5.017   5.549   2.437  0.3961  0.6635  0.0233
 8452TIP3    H146771   5.021   5.639   2.404  0.7417  1.3178  1.7315
 8452TIP3    H246772   4.924   5.527   2.436  0.4987 -0.1994 -3.3617
 8453TIP3   OH246773   1.273   0.473  13.407  0.1092 -0.3993 -0.6911
 8453TIP3    H146774   1.315   0.533  13.469  0.2941 -0.4072 -0.8097
 8453TIP3    H246775   1.179   0.483  13.425  0.1975 -1.1831  0.3342
 8454TIP3   OH246776   4.562   3.384  17.191  0.4601  0.1401 -0.0683
 8454TIP3    H146777   4.570   3.316  17.124 -0.6165  0.2794 -0.3615
 8454TIP3    H246778   4.637   3.442  17.176  0.8126 -0.4110 -0.4722
 8455TIP3   OH246779   6.706   0.625  11.731 -0.3240 -0.2335 -0.4874
 8455TIP3    H146780   6.612   0.611  11.715 -0.3540 -0.2370 -0.3031
 8455TIP3    H246781   6.709   0.701  11.789 -0.2055 -0.1355 -0.6198
 8456TIP3   OH246782   3.913   4.341   0.267 -0.0939 -0.7792 -0.5784
 8456TIP3    H146783   3.856   4.359   0.192 -2.1076 -0.6662  0.8865
 8456TIP3    H246784   3.874   4.264   0.309  0.9548 -0.8184  0.3687
 8457TIP3   OH246785   1.706   6.481  17.046  0.3312  0.7960 -0.2871
 8457TIP3    H146786   1.725   6.453  17.135 -0.9684  2.2890  0.5008
 8457TIP3    H246787   1.638   6.421  17.015  1.8968 -0.7544 -0.9361
 8458TIP3   OH246788   0.811   5.761   2.953 -0.2410  0.0334 -0.2253
 8458TIP3    H146789   0.732   5.771   3.005  0.4642  0.7542  0.7385
 8458TIP3    H246790   0.813   5.667   2.931 -0.7664 -0.2106  0.7066
 8459TIP3   OH246791   6.095   6.358  11.364  0.2697 -0.4654 -0.7206
 8459TIP3    H146792   6.042   6.296  11.313  1.3903 -0.8851 -1.4246
 8459TIP3    H246793   6.081   6.442  11.322 -0.5233 -0.3964 -0.3433
 8460TIP3   OH246794   6.170   1.175  16.630  0.0517 -0.1803  0.1697
 8460TIP3    H146795   6.077   1.168  16.609  0.4905 -0.8496 -1.6948
 8460TIP3    H246796   6.171   1.198  16.723 -1.9847  0.7180  0.0306
 8461TIP3   OH246797   5.731   2.359  12.221 -0.0435 -0.8186 -0.7171
 8461TIP3    H146798   5.824   2.336  12.225  0.3422  0.6772 -0.5991
 8461TIP3    H246799   5.728   2.440  12.169 -0.9105  0.9019  1.8383
 8462TIP3   OH246800   2.494   4.813  15.580  0.1151  0.0653  0.0095
 8462TIP3    H146801   2.527   4.760  15.508  0.6659  2.1014 -1.3154
 8462TIP3    H246802   2.572   4.854  15.618 -0.1663 -0.9155  1.7877
 8463TIP3   OH246803   1.134   0.198   3.855  0.1249  0.0722  0.1058
 8463TIP3    H146804   1.190   0.231   3.925 -0.6892 -1.7769  1.7452
 8463TIP3    H246805   1.194   0.161   3.791  0.8859  1.6825 -0.1498
 8464TIP3   OH246806   6.245   3.037   0.618  0.0394 -0.6064 -0.0121
 8464TIP3    H146807   6.261   3.119   0.665  0.8835  0.1903 -1.6075
 8464TIP3    H246808   6.291   2.971   0.670  1.4852  0.3474 -0.0064
 8465TIP3   OH246809   0.991   5.519  10.902  0.1081 -0.0654  0.1691
 8465TIP3    H146810   1.033   5.450  10.851  1.8075 -0.0831  1.4937
 8465TIP3    H246811   0.943   5.472  10.971  2.1386  0.0018  1.7272
 8466TIP3   OH246812   1.339   0.494  14.151 -0.0092  0.1095  0.4198
 8466TIP3    H146813   1.337   0.417  14.094 -0.3078  0.4954 -0.1052
 8466TIP3    H246814   1.342   0.459  14.240 -0.0346 -0.5039  0.1811
 8467TIP3   OH246815   5.218   4.010   5.304  0.6970  0.3534  0.3210
 8467TIP3    H146816   5.250   4.080   5.361 -0.9030  1.8093 -0.4585
 8467TIP3    H246817   5.271   4.018   5.224  1.6310 -0.4352  0.8393
 8468TIP3   OH246818   5.695   3.163  15.225  0.1139 -0.2918 -0.3267
 8468TIP3    H146819   5.602   3.180  15.238  0.0114 -0.7104 -0.5032
 8468TIP3    H246820   5.724   3.119  15.305  0.1017 -0.3917 -0.3770
 8469TIP3   OH246821   2.850   0.402   3.708 -0.1843  0.8848 -0.7977
 8469TIP3    H146822   2.855   0.364   3.796  1.1906  1.4105 -0.6350
 8469TIP3    H246823   2.806   0.486   3.722  1.8252  1.8921 -0.2693
 8470TIP3   OH246824   3.642   2.747  13.408  0.4341 -0.0040 -0.5197
 8470TIP3    H146825   3.612   2.788  13.327  1.1989 -1.4551 -1.5969
 8470TIP3    H246826   3.566   2.749  13.466 -0.9012 -1.0095 -2.1362
 8471TIP3   OH246827   2.976   2.416  16.876 -0.0783 -0.5212 -0.2518
 8471TIP3    H146828   2.951   2.408  16.968 -2.3780  0.7462 -0.6903
 8471TIP3    H246829   3.059   2.463  16.878 -0.7938  0.7697  1.1641
 8472TIP3   OH246830   2.533   3.360  16.201 -0.3684  0.0481  0.0332
 8472TIP3    H146831   2.480   3.398  16.131 -0.4077 -1.0247 -0.5431
 8472TIP3    H246832   2.612   3.328  16.157 -0.4348 -0.7221  0.4436
 8473TIP3   OH246833   1.678   1.418   4.716 -0.5681  0.0858  0.1748
 8473TIP3    H146834   1.705   1.412   4.624  0.8828  1.5074  0.4577
 8473TIP3    H246835   1.586   1.444   4.713 -0.5765 -0.0243 -0.8728
 8474TIP3   OH246836   3.237   1.502  17.312  0.2770  0.0063  0.2815
 8474TIP3    H146837   3.285   1.557  17.250  1.8970 -1.0342  0.5435
 8474TIP3    H246838   3.191   1.439  17.257  2.2870 -1.3807  0.0444
 8475TIP3   OH246839   2.175   6.605  17.267 -0.2047 -0.0526 -0.3943
 8475TIP3    H146840   2.085   6.629  17.288  0.2233  0.0364  1.5185
 8475TIP3    H246841   2.167   6.521  17.221 -1.2771  0.1506 -0.6079
 8476TIP3   OH246842   6.438   3.119  12.212 -0.3514  0.5044  0.4962
 8476TIP3    H146843   6.362   3.078  12.252 -1.5903  0.7318 -1.5020
 8476TIP3    H246844   6.449   3.075  12.128  1.3998  0.8540  0.4910
 8477TIP3   OH246845   1.853   6.636  15.277 -0.0061 -0.3016  0.7456
 8477TIP3    H146846   1.779   6.687  15.241  1.2027  1.0449  0.0675
 8477TIP3    H246847   1.835   6.546  15.248 -1.3416 -0.0031  0.5406
 8478TIP3   OH246848   4.480   0.553  17.427 -0.5085 -0.0719 -0.6141
 8478TIP3    H146849   4.571   0.523  17.418 -0.2038  0.7894 -0.5051
 8478TIP3    H246850   4.453   0.524  17.514 -0.0726  0.3196 -0.3398
 8479TIP3   OH246851   2.919   0.221   6.054 -0.2489 -0.3234  0.2657
 8479TIP3    H146852   2.826   0.222   6.079 -0.1611  2.5747  0.7646
 8479TIP3    H246853   2.919   0.251   5.963  0.1058 -2.6536 -0.5877
 8480TIP3   OH246854   4.816   5.459  12.202 -0.4316  0.3148  0.3080
 8480TIP3    H146855   4.850   5.488  12.287 -1.3430 -1.7276  1.4637
 8480TIP3    H246856   4.894   5.444  12.149  0.2933 -0.1962  1.4614
 8481TIP3   OH246857   0.581   1.801  15.807  0.9255 -0.1547  0.0327
 8481TIP3    H146858   0.501   1.782  15.855  0.0498  0.4483 -1.1599
 8481TIP3    H246859   0.554   1.858  15.735  1.9330 -2.2180 -2.0982
 8482TIP3   OH246860   0.339   3.162   2.896 -0.4661 -0.2315 -0.0044
 8482TIP3    H146861   0.283   3.127   2.828 -0.6119 -0.8604  0.4378
 8482TIP3    H246862   0.375   3.242   2.858 -1.4215  0.0248 -0.4004
 8483TIP3   OH246863   4.024   0.165  13.673 -0.4333  0.1067  0.1165
 8483TIP3    H146864   3.935   0.166  13.637 -0.6237 -2.0456  0.3855
 8483TIP3    H246865   4.038   0.074  13.699  2.6800 -0.1796 -1.9996
 8484TIP3   OH246866   2.337   5.584   1.676 -0.1085 -0.6040  0.2593
 8484TIP3    H146867   2.316   5.672   1.646  0.1185  0.3658  2.6996
 8484TIP3    H246868   2.432   5.585   1.689  0.0884 -1.6533 -0.9335
 8485TIP3   OH246869   2.090   5.580   3.795 -0.0185 -0.3157  0.4374
 8485TIP3    H146870   2.092   5.487   3.818  0.0532 -0.1114  1.3081
 8485TIP3    H246871   2.148   5.621   3.860 -1.1195  0.5165  0.9198
 8486TIP3   OH246872   1.732   6.042   1.372  0.3232 -0.4179 -0.3918
 8486TIP3    H146873   1.752   5.968   1.429 -1.6008 -1.0597 -0.4625
 8486TIP3    H246874   1.654   6.082   1.412 -1.5183 -1.2846 -2.8654
 8487TIP3   OH246875   4.424   4.988  13.719 -0.0665  0.4768  0.0238
 8487TIP3    H146876   4.518   4.991  13.734 -0.2386  2.2955  0.9527
 8487TIP3    H246877   4.386   4.963  13.803 -0.5024  1.2085  0.0492
 8488TIP3   OH246878   4.401   5.394  12.963 -0.3138 -0.6485 -0.0292
 8488TIP3    H146879   4.376   5.301  12.957 -0.1709 -0.6077 -4.3477
 8488TIP3    H246880   4.339   5.438  12.905  0.7479  1.7208  0.5504
 8489TIP3   OH246881   4.579   3.453   5.540  0.4275  0.0620 -0.0015
 8489TIP3    H146882   4.519   3.526   5.553 -1.2508 -1.1723 -0.5519
 8489TIP3    H246883   4.656   3.476   5.593 -0.4078  1.7845  0.5448
 8490TIP3   OH246884   5.662   2.508   5.441 -0.1799  0.1304  0.4872
 8490TIP3    H146885   5.660   2.472   5.530  0.6922  0.9756  0.8565
 8490TIP3    H246886   5.755   2.512   5.419 -0.4116 -1.4026 -1.0316
 8491TIP3   OH246887   5.561   1.933  17.260  0.2508  0.7055  0.2523
 8491TIP3    H146888   5.542   1.928  17.354  0.2286  0.7408  0.2502
 8491TIP3    H246889   5.652   1.902  17.253 -0.0621 -0.2479  0.1782
 8492TIP3   OH246890   4.158   5.499  16.194  0.5655 -0.3294 -0.9189
 8492TIP3    H146891   4.113   5.542  16.122  0.8574  2.3902  0.4160
 8492TIP3    H246892   4.088   5.454  16.242  0.0194 -0.1710 -1.5515
 8493TIP3   OH246893   4.032   4.841   6.090 -0.1427  0.2477  0.7507
 8493TIP3    H146894   4.040   4.824   6.184 -0.1523 -0.8764  0.5612
 8493TIP3    H246895   4.065   4.930   6.079  0.1544  0.2770  1.7789
 8494TIP3   OH246896   0.392   0.885   5.526 -0.6252 -0.0347 -0.1765
 8494TIP3    H146897   0.382   0.815   5.591 -1.4227  0.3458  0.1207
 8494TIP3    H246898   0.316   0.941   5.540 -0.0446  0.8424 -0.4747
 8495TIP3   OH246899   1.881   5.954   1.591  0.7049 -0.0865 -0.1963
 8495TIP3    H146900   1.965   5.910   1.578  1.0330  0.4140  0.2013
 8495TIP3    H246901   1.902   6.047   1.585  0.2167  0.0476  0.1423
 8496TIP3   OH246902   5.966   0.053  11.195  0.6091 -0.0392 -0.0092
 8496TIP3    H146903   5.930   0.019  11.113 -0.1166  1.4806 -0.3612
 8496TIP3    H246904   5.900   0.033  11.261  1.6562 -2.2060  0.4646
 8497TIP3   OH246905   1.336   6.078  12.923 -0.1779  0.2108  0.2709
 8497TIP3    H146906   1.328   5.994  12.877  0.4358 -0.0205  0.5707
 8497TIP3    H246907   1.429   6.100  12.917 -0.6704  1.9605 -1.6507
 8498TIP3   OH246908   0.079   4.252   3.901  0.2932 -0.2794  0.4184
 8498TIP3    H146909   0.116   4.272   3.815  2.2137  0.4841  1.3601
 8498TIP3    H246910   0.078   4.336   3.946 -0.6375 -0.6850  1.1852
 8499TIP3   OH246911   0.225   5.742  16.027 -0.9234  0.4142 -0.3590
 8499TIP3    H146912   0.182   5.813  16.073 -0.1127  0.6767  0.0241
 8499TIP3    H246913   0.301   5.783  15.985  0.4785 -0.4422  1.1735
 8500TIP3   OH246914   4.108   1.871   2.848  0.6778  0.6872 -0.1281
 8500TIP3    H146915   4.021   1.860   2.808  0.7707 -0.8673  0.0123
 8500TIP3    H246916   4.125   1.965   2.843 -0.7117  0.9386 -0.7905
 8501TIP3   OH246917   6.071   5.714   2.150 -0.6576 -0.2624 -0.2268
 8501TIP3    H146918   6.001   5.682   2.207  0.2410 -0.2545  0.9182
 8501TIP3    H246919   6.036   5.704   2.061 -1.9582 -0.5980  0.2974
 8502TIP3   OH246920   6.190   2.807   3.796 -0.1310  0.0154  0.3076
 8502TIP3    H146921   6.277   2.845   3.806 -0.2428  1.1290 -2.1539
 8502TIP3    H246922   6.130   2.880   3.813 -0.3643  1.0354 -3.9012
 8503TIP3   OH246923   5.779   2.802   0.674  0.4205  0.4547 -0.1441
 8503TIP3    H146924   5.854   2.818   0.731  1.2641  2.4679 -1.7224
 8503TIP3    H246925   5.803   2.841   0.591 -1.9915  0.2344 -1.0148
 8504TIP3   OH246926   6.188   6.605  11.261  0.0872  0.4205 -0.6476
 8504TIP3    H146927   6.222   6.634  11.176  1.0230  1.2269 -0.0323
 8504TIP3    H246928   6.107   6.654  11.273 -0.0034  0.3680 -1.0427
 8505TIP3   OH246929   5.768   5.129   4.613  0.4555 -0.5797  0.2702
 8505TIP3    H146930   5.763   5.060   4.547 -0.3150 -0.5033  0.2394
 8505TIP3    H246931   5.725   5.093   4.690  0.2037 -0.2000  0.3088
 8506TIP3   OH246932   3.036   4.624  17.305  0.5221  0.1495 -0.5805
 8506TIP3    H146933   3.047   4.532  17.282 -0.1213 -0.2688  0.6998
 8506TIP3    H246934   3.002   4.623  17.394 -1.4573  1.5427 -1.2247
 8507TIP3   OH246935   2.950   2.293   5.451  0.5731 -0.1605 -0.3296
 8507TIP3    H146936   2.858   2.291   5.477  0.7648 -0.8886  0.3515
 8507TIP3    H246937   2.968   2.384   5.430 -0.3003 -0.0100 -0.4531
 8508TIP3   OH246938   0.028   5.717  14.773  0.7591 -0.5242 -0.1162
 8508TIP3    H146939  -0.024   5.659  14.717 -3.7765  0.3602  2.6758
 8508TIP3    H246940   0.076   5.657  14.830 -4.1952 -2.1458  3.0545
 8509TIP3   OH246941   6.309   4.416   0.163  0.2606  0.1176  0.2936
 8509TIP3    H146942   6.350   4.395   0.247  1.7761  1.2511 -0.1283
 8509TIP3    H246943   6.297   4.511   0.164  2.4386  0.5031 -1.6308
 8510TIP3   OH246944   0.191   6.492  16.699 -0.9900 -0.3152 -0.0732
 8510TIP3    H146945   0.226   6.547  16.769 -0.4058  0.2492 -0.7824
 8510TIP3    H246946   0.236   6.409  16.709 -1.2021 -0.3709  0.4575
 8511TIP3   OH246947   4.856   2.661   5.421 -0.0690 -0.4417  0.0257
 8511TIP3    H146948   4.885   2.570   5.432  0.4746 -0.0545  2.2719
 8511TIP3    H246949   4.762   2.658   5.437 -0.0861 -0.6275 -0.1013
 8512TIP3   OH246950   5.067   4.782   0.381  0.0235 -0.2872 -0.5980
 8512TIP3    H146951   5.152   4.809   0.345  0.6921  1.4248  1.9523
 8512TIP3    H246952   5.051   4.696   0.343  2.6224 -0.4124 -1.6386
 8513TIP3   OH246953   4.269   6.265   0.948 -0.0029 -0.5409  0.3172
 8513TIP3    H146954   4.286   6.346   0.900  2.4987  0.2130  2.2896
 8513TIP3    H246955   4.175   6.268   0.968 -0.2418  1.1513 -0.8444
 8514TIP3   OH246956   5.378   1.887   2.921  0.9518  0.0532 -0.4842
 8514TIP3    H146957   5.438   1.834   2.973  0.4132 -2.2387 -2.0640
 8514TIP3    H246958   5.293   1.874   2.962  0.9059  0.1621 -0.5436
 8515TIP3   OH246959   5.894   4.702   0.983  0.4167  0.0322  0.6164
 8515TIP3    H146960   5.972   4.759   0.988  0.3444  0.0099  2.7397
 8515TIP3    H246961   5.845   4.722   1.062 -2.4163  0.9108 -1.2382
 8516TIP3   OH246962   6.587   0.277  15.817  0.3889 -0.4198 -0.1112
 8516TIP3    H146963   6.558   0.364  15.789  1.4581 -0.7399 -2.3876
 8516TIP3    H246964   6.633   0.293  15.900  0.5246  1.1618 -0.4632
 8517TIP3   OH246965   4.818   2.907   2.137  0.0709 -0.1715 -0.0808
 8517TIP3    H146966   4.877   2.927   2.064 -0.2862  2.3040  0.2288
 8517TIP3    H246967   4.744   2.863   2.096  0.2309  0.4795 -1.1256
 8518TIP3   OH246968   4.456   5.366   2.719  0.3303 -0.2247  0.6251
 8518TIP3    H146969   4.381   5.397   2.770  0.9207  0.4594  1.1124
 8518TIP3    H246970   4.418   5.331   2.638 -0.4726  0.5798  0.6370
 8519TIP3   OH246971   3.648   2.271   0.550 -0.5948 -0.0855  0.0052
 8519TIP3    H146972   3.687   2.227   0.475 -1.2092 -2.1921  0.8583
 8519TIP3    H246973   3.555   2.248   0.547 -0.6567 -0.0858  1.3061
 8520TIP3   OH246974   2.113   2.170   1.824 -0.4038  0.4827 -0.4603
 8520TIP3    H146975   2.063   2.184   1.744 -3.5375  3.1343  1.6909
 8520TIP3    H246976   2.170   2.246   1.831 -1.5399  1.2766  0.6594
 8521TIP3   OH246977   5.223   3.062  11.460  0.1039  0.0651 -0.6136
 8521TIP3    H146978   5.263   3.058  11.373 -0.3057  1.6591 -0.9210
 8521TIP3    H246979   5.137   3.101  11.444 -0.0026  0.3063  0.4958
 8522TIP3   OH246980   2.783   3.235   5.344 -0.8160 -0.3872  0.2480
 8522TIP3    H146981   2.863   3.191   5.374 -1.4403 -1.2353  0.7442
 8522TIP3    H246982   2.772   3.206   5.254  0.8544  1.8519 -0.7418
 8523TIP3   OH246983   3.668   0.788  12.971  0.1000 -0.6614  0.0356
 8523TIP3    H146984   3.632   0.858  12.918 -0.7822 -2.2975 -1.6119
 8523TIP3    H246985   3.619   0.792  13.053 -0.9670 -0.2584 -0.6078
 8524TIP3   OH246986   6.245   0.100  15.656 -0.5236 -0.1067  0.4493
 8524TIP3    H146987   6.223   0.192  15.672  0.0188  0.2079 -0.5069
 8524TIP3    H246988   6.296   0.073  15.732  1.5981  1.1892 -0.4319
 8525TIP3   OH246989   2.938   3.736  14.767  0.5152 -0.7787  0.0599
 8525TIP3    H146990   3.027   3.709  14.792  0.7105 -0.2371 -0.0300
 8525TIP3    H246991   2.909   3.792  14.839  0.9498  0.5103 -0.7143
 8526TIP3   OH246992   3.893   3.727  14.618 -0.2047 -0.3062 -0.3520
 8526TIP3    H146993   3.879   3.660  14.685  1.9761 -1.6389 -1.0832
 8526TIP3    H246994   3.870   3.683  14.536 -0.5370  0.4921 -0.6921
 8527TIP3   OH246995   3.135   5.521   2.867 -0.1925  0.3720 -0.1720
 8527TIP3    H146996   3.041   5.529   2.881 -0.4066  0.5443 -1.5532
 8527TIP3    H246997   3.147   5.434   2.829 -0.0237  0.9791 -1.5725
 8528TIP3   OH246998   5.892   3.238   1.700 -0.4215 -0.4191 -0.0704
 8528TIP3    H146999   5.915   3.145   1.693 -0.5490 -0.5829  1.4216
 8528TIP3    H247000   5.820   3.240   1.763  0.4223  0.8018  0.8996
 8529TIP3   OH247001   2.859   5.357   0.899 -0.2506  0.1912  0.2315
 8529TIP3    H147002   2.897   5.278   0.936 -0.2244  0.9182  1.8070
 8529TIP3    H247003   2.910   5.372   0.819  0.3574 -0.8608  0.4017
 8530TIP3   OH247004   5.763   4.971   6.113 -0.2398 -0.6817 -0.2048
 8530TIP3    H147005   5.830   5.039   6.118 -0.6141 -0.4127  1.6794
 8530TIP3    H247006   5.680   5.020   6.117 -0.5128 -1.2109  0.7506
 8531TIP3   OH247007   5.552   4.642  15.049 -0.5959  0.4222  0.2847
 8531TIP3    H147008   5.465   4.673  15.073 -1.4370 -0.0539 -1.9834
 8531TIP3    H247009   5.598   4.720  15.019 -0.7026  0.4342  0.1565
 8532TIP3   OH247010   6.105   1.444   1.820 -0.5182  0.1123  0.6717
 8532TIP3    H147011   6.146   1.410   1.740  0.3708  0.1009  1.1193
 8532TIP3    H247012   6.046   1.513   1.789 -0.9063 -0.5336 -0.0737
 8533TIP3   OH247013   1.819   3.278   1.834 -0.2655  0.3113 -0.6772
 8533TIP3    H147014   1.844   3.190   1.861  0.2256  1.1784  1.9260
 8533TIP3    H247015   1.887   3.304   1.771  0.4642 -0.5670 -0.2666
 8534TIP3   OH247016   3.550   5.077  15.731 -0.2392  0.1907  0.1109
 8534TIP3    H147017   3.579   5.107  15.817 -0.0670  0.4573 -0.0396
 8534TIP3    H247018   3.628   5.081  15.676 -0.1443 -0.8190  0.1552
 8535TIP3   OH247019   4.793   1.727  16.425  0.3083  0.2075  0.3167
 8535TIP3    H147020   4.770   1.818  16.442 -0.5179  0.0934 -0.1493
 8535TIP3    H247021   4.848   1.731  16.347 -1.0579  0.1873 -0.6855
 8536TIP3   OH247022   6.608   5.344   3.424 -0.3528  0.2548  0.2462
 8536TIP3    H147023   6.613   5.257   3.463  0.3122 -0.0679 -0.5155
 8536TIP3    H247024   6.584   5.327   3.333 -0.0242  0.8497  0.0465
 8537TIP3   OH247025   4.666   2.655   5.060  0.1751  0.0664 -0.2809
 8537TIP3    H147026   4.610   2.638   4.984 -0.9630 -1.6038  0.8583
 8537TIP3    H247027   4.623   2.609   5.132  1.4375  1.2459  1.3089
 8538TIP3   OH247028   1.798   2.475  14.226 -0.2845  0.0714 -0.4726
 8538TIP3    H147029   1.807   2.403  14.288 -2.2768  0.3736  0.2065
 8538TIP3    H247030   1.709   2.467  14.192  0.2230  0.8839 -2.0968
 8539TIP3   OH247031   2.934   5.163   0.661  0.4359  0.6239  0.2363
 8539TIP3    H147032   2.976   5.127   0.583 -0.1287  3.3127 -1.4521
 8539TIP3    H247033   2.845   5.128   0.658  0.6143  0.1766  0.0714
 8540TIP3   OH247034   0.319   2.355  13.579  0.2024  0.1089  0.0026
 8540TIP3    H147035   0.387   2.368  13.646 -2.3137  1.1502  2.5591
 8540TIP3    H247036   0.335   2.424  13.515  1.2097  0.6832  0.8365
 8541TIP3   OH247037   5.551   0.156   6.233  0.1087  0.2440 -0.2536
 8541TIP3    H147038   5.494   0.127   6.304  1.4217  2.4294  1.8521
 8541TIP3    H247039   5.631   0.104   6.244 -0.1407 -0.2862 -0.9268
 8542TIP3   OH247040   5.710   0.062   4.606 -0.5079 -0.4867  0.3670
 8542TIP3    H147041   5.660  -0.020   4.603 -4.2975  1.5926  0.8242
 8542TIP3    H247042   5.702   0.093   4.696 -2.7793  2.2857 -0.6370
 8543TIP3   OH247043   5.005   5.186  11.193 -0.2354 -0.3000 -0.1721
 8543TIP3    H147044   5.013   5.256  11.127  1.3018 -0.5279 -0.2703
 8543TIP3    H247045   4.925   5.140  11.168 -0.4813  0.5177 -0.9957
 8544TIP3   OH247046   2.391   5.185   3.022 -0.1772 -0.2767 -0.0884
 8544TIP3    H147047   2.443   5.164   3.099  1.6051  1.1846 -0.8070
 8544TIP3    H247048   2.366   5.277   3.034 -0.1448 -0.1184 -1.0786
 8545TIP3   OH247049   3.964   2.893   3.880 -0.1043 -0.3827 -0.1003
 8545TIP3    H147050   3.932   2.976   3.916  2.4523  0.0453  1.4541
 8545TIP3    H247051   3.930   2.826   3.939 -1.1844 -0.3641 -0.6713
 8546TIP3   OH247052   1.473   5.802   4.975  0.2472 -0.3454  0.2576
 8546TIP3    H147053   1.425   5.867   4.923  0.8656 -0.3697 -0.3572
 8546TIP3    H247054   1.560   5.840   4.986  0.6441 -1.0980 -0.1825
 8547TIP3   OH247055   6.287   5.124  16.395  0.0387  0.3666  0.6522
 8547TIP3    H147056   6.329   5.168  16.321 -1.9719 -0.5119 -1.1248
 8547TIP3    H247057   6.318   5.034  16.390  0.5175  0.4876  1.3915
 8548TIP3   OH247058   1.869   2.806   1.832 -0.4186  1.2643  0.1456
 8548TIP3    H147059   1.794   2.805   1.773 -0.7526  0.8037  0.5688
 8548TIP3    H247060   1.852   2.735   1.893  0.7964  0.5719 -0.2921
 8549TIP3   OH247061   6.564   2.283  12.728 -0.6824 -0.2209  0.7052
 8549TIP3    H147062   6.512   2.276  12.808  1.0041 -0.6974  1.8064
 8549TIP3    H247063   6.643   2.233  12.746  0.1600  0.4448 -0.9293
 8550TIP3   OH247064   1.109   4.864  11.163  0.3034  0.2548 -0.2334
 8550TIP3    H147065   1.173   4.929  11.193 -0.4602  0.3636  1.2594
 8550TIP3    H247066   1.161   4.787  11.142  1.0520  0.7801 -0.3641
 8551TIP3   OH247067   1.147   1.870  11.918  0.4157  0.3313  0.2480
 8551TIP3    H147068   1.172   1.779  11.900 -1.2799  0.2160 -1.8446
 8551TIP3    H247069   1.053   1.873  11.899  0.3867  2.4773  0.5252
 8552TIP3   OH247070   2.364   3.801  17.062  0.2674  0.3499  0.0708
 8552TIP3    H147071   2.323   3.783  17.146 -0.2375  0.6238 -0.1153
 8552TIP3    H247072   2.327   3.737  17.002  1.7170 -0.8219  0.3606
 8553TIP3   OH247073   4.171   6.708   0.271 -0.4687 -0.6834 -0.2098
 8553TIP3    H147074   4.158   6.787   0.323 -1.2308 -0.5663 -0.5661
 8553TIP3    H247075   4.263   6.711   0.245 -0.0122 -0.8707  1.3255
 8554TIP3   OH247076   5.169   0.737   1.978  0.4500  0.0452  0.0916
 8554TIP3    H147077   5.145   0.711   2.067  0.6153  0.8985  0.4043
 8554TIP3    H247078   5.262   0.762   1.985 -0.1683  2.5482  0.2906
 8555TIP3   OH247079   6.609   6.393  13.304 -0.2488 -0.3376  0.2143
 8555TIP3    H147080   6.550   6.374  13.231 -0.3810 -0.1845  0.2814
 8555TIP3    H247081   6.564   6.356  13.381 -0.2035 -0.3257  0.2467
 8556TIP3   OH247082   3.213   5.529   4.953 -0.4274 -0.1177  0.7614
 8556TIP3    H147083   3.238   5.446   4.994  0.1213 -0.8818 -1.0031
 8556TIP3    H247084   3.122   5.517   4.926 -0.5092  0.0492  0.9619
 8557TIP3   OH247085   1.210   3.006   3.430  0.4405 -0.1070  0.2761
 8557TIP3    H147086   1.265   3.083   3.445 -0.9781  1.0140  0.0197
 8557TIP3    H247087   1.161   3.028   3.351  1.0193 -1.9061 -0.6269
 8558TIP3   OH247088   4.915   4.851  12.016 -0.3740  0.1037  0.0940
 8558TIP3    H147089   4.831   4.837  12.059 -1.1464  0.7939 -1.1402
 8558TIP3    H247090   4.904   4.813  11.928  0.7260 -0.1323  0.0449
 8559TIP3   OH247091   4.268   3.887  16.237  0.1827 -0.3788  0.1826
 8559TIP3    H147092   4.299   3.812  16.186 -0.2960 -0.0902 -0.5493
 8559TIP3    H247093   4.174   3.892  16.218 -0.2093 -0.8770  1.9057
 8560TIP3   OH247094   2.829   5.604   3.793  0.3450  0.2010 -0.3443
 8560TIP3    H147095   2.892   5.535   3.812  0.1267  0.0147 -0.2813
 8560TIP3    H247096   2.881   5.684   3.783  1.0155 -0.4795 -3.5288
 8561TIP3   OH247097   6.372   5.282   1.168  0.3730  0.0010  0.0642
 8561TIP3    H147098   6.402   5.345   1.102 -1.3523  0.1491 -0.6208
 8561TIP3    H247099   6.329   5.336   1.234 -1.2257 -0.4448 -0.5855
 8562TIP3   OH247100   0.861   1.534  12.984 -0.1457 -0.1747 -0.5121
 8562TIP3    H147101   0.828   1.531  13.073  0.4920  1.6059 -0.1839
 8562TIP3    H247102   0.799   1.482  12.933 -0.7681 -0.8255  0.8735
 8563TIP3   OH247103   3.626   6.142  13.616  0.1583 -0.1013 -0.2657
 8563TIP3    H147104   3.578   6.064  13.646  0.4053  0.0206  0.4538
 8563TIP3    H247105   3.716   6.128  13.646  0.8820 -0.8387 -2.5228
 8564TIP3   OH247106   2.263   6.272   1.859 -0.6818 -0.0217  0.4166
 8564TIP3    H147107   2.313   6.194   1.839  0.7358  0.7884  0.6690
 8564TIP3    H247108   2.308   6.343   1.812 -2.4611  0.5279 -0.5637
 8565TIP3   OH247109   1.436   5.611  14.052  0.1026 -0.8462  0.0304
 8565TIP3    H147110   1.496   5.567  14.113  1.0907  1.1256  0.5786
 8565TIP3    H247111   1.482   5.609  13.968  0.8726  0.3830  0.3820
 8566TIP3   OH247112   6.254   2.630   5.848  0.2653 -0.4607 -0.1026
 8566TIP3    H147113   6.313   2.556   5.831 -0.4829 -0.4121 -3.9230
 8566TIP3    H247114   6.197   2.633   5.771  0.7510  4.5444 -0.6062
 8567TIP3   OH247115   4.623   5.517  16.707  0.1761 -0.4800  0.1036
 8567TIP3    H147116   4.703   5.562  16.735  1.1916 -1.6583 -0.7697
 8567TIP3    H247117   4.556   5.585  16.705  1.1449  0.5232  0.9264
 8568TIP3   OH247118   5.985   3.204   4.307 -0.0700 -0.0529  0.0133
 8568TIP3    H147119   5.920   3.212   4.236  0.0171 -0.9325 -0.1716
 8568TIP3    H247120   5.937   3.165   4.379  0.0146  0.2195  0.2203
 8569TIP3   OH247121   3.804   3.335  13.688  0.2998  0.3210  0.0117
 8569TIP3    H147122   3.806   3.423  13.725 -1.1007  1.4526 -2.3470
 8569TIP3    H247123   3.729   3.293  13.731 -0.4412  1.1182 -0.4577
 8570TIP3   OH247124   3.539   4.066   1.635 -0.8208 -0.2370 -0.2316
 8570TIP3    H147125   3.486   3.993   1.669 -0.0354  0.8864  3.9930
 8570TIP3    H247126   3.625   4.052   1.674 -0.4862  2.5671  0.1969
 8571TIP3   OH247127   6.436   3.764  15.170  0.5667  0.1444 -0.1684
 8571TIP3    H147128   6.357   3.817  15.164  0.5176  0.0552 -0.2926
 8571TIP3    H247129   6.442   3.740  15.263 -0.1109 -0.7138 -0.3395
 8572TIP3   OH247130   4.977   4.267   5.176  0.2637  0.0764 -0.3488
 8572TIP3    H147131   5.068   4.259   5.145 -0.3793  0.2709 -2.4610
 8572TIP3    H247132   4.962   4.361   5.182 -0.2273  0.0892 -1.4985
 8573TIP3   OH247133   4.371   2.809   4.736 -0.6057  0.1715 -0.5693
 8573TIP3    H147134   4.411   2.843   4.816  0.3644 -3.2680  0.5900
 8573TIP3    H247135   4.415   2.856   4.665 -0.3816  2.1974  0.8261
 8574TIP3   OH247136   2.569   5.229  14.322  0.7227 -0.3909  0.5359
 8574TIP3    H147137   2.638   5.182  14.368  0.7314 -1.2864 -0.3453
 8574TIP3    H247138   2.527   5.162  14.267 -1.0950  0.0410  1.3225
 8575TIP3   OH247139   3.059   1.594   0.690 -0.4461 -0.1464  0.0390
 8575TIP3    H147140   3.072   1.542   0.611 -1.9021  2.6786 -2.2520
 8575TIP3    H247141   2.967   1.579   0.713 -0.4758  0.3011  0.2166
 8576TIP3   OH247142   5.517   6.293   4.930  0.3398  0.0810 -0.0867
 8576TIP3    H147143   5.526   6.388   4.934  1.7755 -0.0716  0.6710
 8576TIP3    H247144   5.443   6.274   4.989 -1.0918  0.8374 -1.5685
 8577TIP3   OH247145   3.452   5.129  16.698 -0.4566 -0.0261  0.2556
 8577TIP3    H147146   3.466   5.041  16.734  0.1591 -0.1116 -0.1843
 8577TIP3    H247147   3.357   5.143  16.707 -0.5361 -0.6626  0.4847
 8578TIP3   OH247148   6.661   2.265   6.331  0.0981  0.5440 -0.7228
 8578TIP3    H147149   6.706   2.193   6.376 -0.4031  1.3292  1.1209
 8578TIP3    H247150   6.725   2.298   6.268  1.6675  0.7887  0.9109
 8579TIP3   OH247151   2.255   3.162   5.254 -1.1613 -0.0398 -1.1281
 8579TIP3    H147152   2.224   3.088   5.307  0.1992  1.1010  1.4635
 8579TIP3    H247153   2.301   3.121   5.181  0.0678 -1.8575  0.5292
 8580TIP3   OH247154   5.446   3.441  12.134  0.0432 -0.3438  0.5289
 8580TIP3    H147155   5.517   3.506  12.143 -1.4441  1.6629 -1.1681
 8580TIP3    H247156   5.438   3.427  12.040 -2.0749 -0.1479  0.6299
 8581TIP3   OH247157   4.603   0.905  13.381  0.0393 -0.2076 -0.0465
 8581TIP3    H147158   4.538   0.874  13.445 -0.2695  0.7673  0.1305
 8581TIP3    H247159   4.652   0.973  13.428 -0.0355  0.3552 -0.7736
 8582TIP3   OH247160   1.279   4.096  12.246 -0.3851 -0.3335 -0.1424
 8582TIP3    H147161   1.206   4.059  12.197 -2.6752 -1.3259  3.6329
 8582TIP3    H247162   1.289   4.184  12.210 -2.6795 -0.5611 -1.5608
 8583TIP3   OH247163   5.780   3.737   3.488 -0.0229 -0.1369 -0.3764
 8583TIP3    H147164   5.840   3.795   3.441 -0.7507  0.4969 -0.5265
 8583TIP3    H247165   5.727   3.696   3.420  0.5007 -1.0152 -0.2752
 8584TIP3   OH247166   5.360   4.177   5.701  0.2158  0.0274  0.0546
 8584TIP3    H147167   5.407   4.096   5.721 -0.5549 -0.0797  1.5880
 8584TIP3    H247168   5.271   4.162   5.734 -0.2890  1.0498 -0.7703
 8585TIP3   OH247169   4.089   4.539   0.295  0.1004 -0.3146  0.3230
 8585TIP3    H147170   4.036   4.464   0.267 -0.5290 -0.0220  0.7099
 8585TIP3    H247171   4.164   4.539   0.236 -0.4500 -0.5911 -0.3855
 8586TIP3   OH247172   3.992   1.832  13.000 -0.3919  0.2206 -0.2083
 8586TIP3    H147173   4.080   1.869  12.999  0.6346 -1.9840  1.0145
 8586TIP3    H247174   3.963   1.839  13.091 -0.0461 -2.0354  0.1503
 8587TIP3   OH247175   0.953   6.345  14.792  0.0344  0.4616 -0.5628
 8587TIP3    H147176   0.955   6.277  14.860 -1.3598 -0.4719 -1.4005
 8587TIP3    H247177   1.019   6.319  14.729 -0.7369 -0.3367 -1.0577
 8588TIP3   OH247178   3.582   3.022   3.560  0.4811 -0.7273 -0.2516
 8588TIP3    H147179   3.528   3.013   3.481  1.6126 -0.5620 -1.0688
 8588TIP3    H247180   3.586   3.116   3.576 -0.7545 -0.8146  0.7526
 8589TIP3   OH247181   4.824   4.864  15.486  0.1307 -0.1895 -0.4967
 8589TIP3    H147182   4.772   4.788  15.512  1.4554 -1.3182 -0.9976
 8589TIP3    H247183   4.900   4.862  15.544 -1.1281  2.4397  1.4088
 8590TIP3   OH247184   3.271   2.790  11.246  0.1847 -0.2539  0.0576
 8590TIP3    H147185   3.293   2.760  11.158 -0.7545 -0.0114 -0.2738
 8590TIP3    H247186   3.347   2.766  11.299 -0.2429 -2.6863 -0.2861
 8591TIP3   OH247187   3.417   5.882  14.051  0.3382 -0.4633 -0.6392
 8591TIP3    H147188   3.359   5.907  14.123  1.3512  0.5566 -0.1473
 8591TIP3    H247189   3.359   5.843  13.985 -0.6860 -0.8114  0.4480
 8592TIP3   OH247190   5.023   0.354  15.189  0.1468 -0.4421  0.2702
 8592TIP3    H147191   4.961   0.299  15.142  0.2245 -1.4900  1.3632
 8592TIP3    H247192   4.992   0.355  15.279  0.3814  0.9901  0.3719
 8593TIP3   OH247193   2.553   1.240  14.697 -0.8899  0.6599  0.2856
 8593TIP3    H147194   2.516   1.241  14.785 -0.4575  0.9140  0.4704
 8593TIP3    H247195   2.623   1.175  14.701 -1.5866 -0.1458 -0.1817
 8594TIP3   OH247196   5.926   5.134   5.322  0.3279 -0.1264 -0.2637
 8594TIP3    H147197   5.872   5.086   5.385 -0.6301  0.7869 -0.3609
 8594TIP3    H247198   5.913   5.087   5.240 -0.2593  0.0385 -0.2683
 8595TIP3   OH247199   4.710   0.195  17.578 -0.2153 -0.3667 -0.1778
 8595TIP3    H147200   4.751   0.111  17.558 -0.3450 -0.3969 -0.3191
 8595TIP3    H247201   4.769   0.236  17.641 -0.9079 -1.1989  1.0534
 8596TIP3   OH247202   0.221   6.250   3.412  0.0133 -0.0431  0.4149
 8596TIP3    H147203   0.224   6.345   3.401  0.9066  0.0767  1.4913
 8596TIP3    H247204   0.143   6.234   3.465 -1.0487 -0.0824 -1.1151
 8597TIP3   OH247205   0.658   5.160  12.566 -0.6809 -0.2353 -0.0525
 8597TIP3    H147206   0.666   5.089  12.630  2.6896 -1.1314 -1.2408
 8597TIP3    H247207   0.735   5.215  12.581 -1.5269  1.3715 -1.2646
 8598TIP3   OH247208   5.968   4.172   1.829 -0.0650  0.3329  0.4670
 8598TIP3    H147209   5.962   4.206   1.740 -1.9035 -2.8346 -0.7951
 8598TIP3    H247210   5.917   4.233   1.882  0.7410  2.0669 -0.6553
 8599TIP3   OH247211   5.974   0.224   3.362  0.0012 -0.3903 -0.0520
 8599TIP3    H147212   6.004   0.260   3.279  0.2045 -0.8085 -0.1634
 8599TIP3    H247213   5.879   0.219   3.353  0.1717 -2.9833 -1.3461
 8600TIP3   OH247214   4.040   1.527  13.938 -0.8085 -0.5367  0.2386
 8600TIP3    H147215   3.974   1.520  14.006 -0.9479  0.4793  0.2193
 8600TIP3    H247216   4.085   1.442  13.939 -0.2249 -0.2581  2.1944
 8601TIP3   OH247217   6.605   6.362  14.281  0.1597  0.3618 -0.2174
 8601TIP3    H147218   6.674   6.424  14.306  0.4823 -0.5598  1.3138
 8601TIP3    H247219   6.604   6.298  14.352 -0.4120 -1.1976 -1.5807
 8602TIP3   OH247220   1.079   5.644   3.206 -0.2565  0.0564  0.3404
 8602TIP3    H147221   1.137   5.636   3.282 -0.4189  0.4816  0.5124
 8602TIP3    H247222   1.076   5.556   3.169  0.9400  0.1461 -0.0058
 8603TIP3   OH247223   1.017   4.703  16.651  0.0337  0.3854  0.1517
 8603TIP3    H147224   1.111   4.720  16.654 -0.1874  1.8755 -0.6196
 8603TIP3    H247225   1.000   4.651  16.730  1.7087 -1.1608 -0.4333
 8604TIP3   OH247226   6.063   1.658  17.017 -0.8200 -0.3188  0.1204
 8604TIP3    H147227   6.041   1.748  16.992 -0.8602 -0.6161 -0.9293
 8604TIP3    H247228   6.060   1.659  17.113 -1.7623  0.5665  0.1019
 8605TIP3   OH247229   6.046   0.153   3.620  0.2390 -0.4226 -0.5608
 8605TIP3    H147230   6.026   0.189   3.533  0.5357 -0.2856 -0.5730
 8605TIP3    H247231   6.032   0.227   3.680  1.6569 -0.0372 -0.6726
 8606TIP3   OH247232   5.694   2.831   4.230  0.0088 -0.0417  0.0231
 8606TIP3    H147233   5.751   2.787   4.166  1.2342 -0.1247  1.1168
 8606TIP3    H247234   5.642   2.760   4.268  0.8663 -0.3492  0.6697
 8607TIP3   OH247235   4.515   4.747  12.672  0.3496 -0.3750 -0.3149
 8607TIP3    H147236   4.445   4.731  12.609 -1.1072  1.2156  0.8270
 8607TIP3    H247237   4.595   4.726  12.624 -0.7668 -0.2864 -2.3346
 8608TIP3   OH247238   1.429   2.965   5.044  0.2224 -0.2601  0.5633
 8608TIP3    H147239   1.486   2.978   5.120  0.4767 -0.8833  0.4862
 8608TIP3    H247240   1.357   2.911   5.077 -1.6019  2.3867  1.2475
 8609TIP3   OH247241   2.240   3.982  15.393  0.3063 -0.2407 -0.0323
 8609TIP3    H147242   2.201   4.052  15.341  1.0904  0.6726  0.5875
 8609TIP3    H247243   2.298   3.936  15.332  1.6127  1.1352  0.1168
 8610TIP3   OH247244   2.190   5.469   3.516  0.0522  0.4443  0.3342
 8610TIP3    H147245   2.163   5.536   3.579 -0.6444  0.7240 -0.2449
 8610TIP3    H247246   2.126   5.476   3.445  1.3842  0.7904 -0.8646
 8611TIP3   OH247247   3.149   2.253   3.726 -0.4782  0.3915  0.2131
 8611TIP3    H147248   3.082   2.255   3.657  0.4018  1.4758 -0.6311
 8611TIP3    H247249   3.177   2.161   3.729  0.3066  0.5186 -1.7193
 8612TIP3   OH247250   0.192   3.757   0.707  0.6178 -0.2616  0.0375
 8612TIP3    H147251   0.123   3.814   0.740 -0.5154 -1.4368 -0.2286
 8612TIP3    H247252   0.197   3.777   0.613  1.3273  0.4924  0.2179
 8613TIP3   OH247253   4.875   4.786  13.887  0.5805 -0.5772 -0.0558
 8613TIP3    H147254   4.891   4.768  13.795 -0.2892 -0.0934 -0.3135
 8613TIP3    H247255   4.856   4.700  13.925 -1.0988 -0.5771 -0.7710
 8614TIP3   OH247256   4.581   1.072  11.785  0.2977  0.4596  0.3863
 8614TIP3    H147257   4.644   1.102  11.851  0.7583  0.1928  0.0753
 8614TIP3    H247258   4.617   0.988  11.755 -1.2758 -0.7436  1.6899
 8615TIP3   OH247259   5.428   3.712   0.696 -0.4745  0.0962 -0.2340
 8615TIP3    H147260   5.467   3.797   0.679 -0.3998 -0.2977 -2.3370
 8615TIP3    H247261   5.494   3.664   0.746  1.0791  0.0405 -2.2165
 8616TIP3   OH247262   2.519   4.845  12.936  0.6509  0.0059  0.9479
 8616TIP3    H147263   2.601   4.893  12.923 -0.0308  0.7619 -0.8871
 8616TIP3    H247264   2.451   4.912  12.932 -0.2405 -0.9433 -0.4993
 8617TIP3   OH247265   1.234   1.635   1.510  0.0730  0.4591 -0.1542
 8617TIP3    H147266   1.292   1.658   1.583 -0.1337 -0.4716  0.3280
 8617TIP3    H247267   1.155   1.601   1.552  1.0193 -2.7724 -0.7405
 8618TIP3   OH247268   3.741   1.686  12.177  0.1136  0.4296 -0.9432
 8618TIP3    H147269   3.823   1.705  12.223 -0.3826  1.6969 -0.5420
 8618TIP3    H247270   3.751   1.595  12.147  0.7727 -0.1944  0.9863
 8619TIP3   OH247271   1.156   4.978  15.645  0.2540  0.0471 -0.2692
 8619TIP3    H147272   1.073   4.939  15.617  0.2156  0.5103 -0.8160
 8619TIP3    H247273   1.158   4.964  15.739 -0.7647  0.6198 -0.1434
 8620TIP3   OH247274   2.163   2.308  12.892  1.0314  0.1347  0.0027
 8620TIP3    H147275   2.159   2.362  12.813  0.5258  1.2463  0.7596
 8620TIP3    H247276   2.230   2.242  12.873  0.3308 -0.1459 -1.6603
 8621TIP3   OH247277   5.572   0.984   4.588  0.2058  0.0720 -0.5437
 8621TIP3    H147278   5.516   0.908   4.576  1.1768 -0.9067  0.7016
 8621TIP3    H247279   5.604   0.976   4.678  1.6688  1.0245 -0.9349
 8622TIP3   OH247280   4.582   1.273   1.653  0.0536 -0.2202  0.1003
 8622TIP3    H147281   4.552   1.353   1.612  1.1411  0.9747  1.5255
 8622TIP3    H247282   4.631   1.228   1.584 -0.0918  0.6124 -0.5628
 8623TIP3   OH247283   0.464   4.263  14.258  0.2533  0.1220  0.0256
 8623TIP3    H147284   0.436   4.325  14.190 -0.8168  0.5892  0.8491
 8623TIP3    H247285   0.536   4.215  14.219  0.2586  1.0086 -1.1091
 8624TIP3   OH247286   2.643   1.251   1.675 -0.0372 -0.0028  0.0775
 8624TIP3    H147287   2.595   1.182   1.721  0.0284  0.0057  0.1593
 8624TIP3    H247288   2.730   1.215   1.661 -0.4481 -0.5375 -1.2719
 8625TIP3   OH247289   4.923   4.169   0.919 -0.0690 -0.6602 -0.1974
 8625TIP3    H147290   4.985   4.102   0.947 -2.0806 -2.4860  0.1334
 8625TIP3    H247291   4.937   4.177   0.825  2.2488  0.7453  0.1904
 8626TIP3   OH247292   2.427   1.778  13.465  0.4795  0.5694 -0.3230
 8626TIP3    H147293   2.492   1.745  13.527 -0.5978 -0.4893  0.2971
 8626TIP3    H247294   2.430   1.717  13.392  0.0221  0.3536 -0.1703
 8627TIP3   OH247295   5.262   0.773   5.110  0.2777  0.2358  0.4282
 8627TIP3    H147296   5.181   0.819   5.089  0.5374  1.5312  2.1369
 8627TIP3    H247297   5.236   0.704   5.171  0.2497 -0.4434 -0.3220
 8628TIP3   OH247298   3.260   4.139  12.021 -0.2786 -0.0958 -0.0695
 8628TIP3    H147299   3.201   4.171  11.953  0.5218  2.4998  0.3577
 8628TIP3    H247300   3.215   4.162  12.103  0.1213 -0.4995  0.2644
 8629TIP3   OH247301   6.616   5.861   0.089  0.3147  0.0675  0.0606
 8629TIP3    H147302   6.638   5.800   0.160  0.3839  0.4547  0.3721
 8629TIP3    H247303   6.568   5.807   0.026  0.4250 -0.3250  0.3062
 8630TIP3   OH247304   6.196   3.190   2.639  0.1362 -0.2938 -0.5137
 8630TIP3    H147305   6.133   3.151   2.700 -0.8934  0.0347 -1.3442
 8630TIP3    H247306   6.215   3.121   2.576 -0.1295 -0.0905 -0.8175
 8631TIP3   OH247307   3.472   4.814  12.948  0.1855  0.1777  0.1211
 8631TIP3    H147308   3.465   4.783  13.038  2.7026 -1.4000 -0.1138
 8631TIP3    H247309   3.461   4.909  12.954  0.9045  0.1834  2.2052
 8632TIP3   OH247310   1.327   3.356  11.253  0.3807 -0.0487  0.4262
 8632TIP3    H147311   1.333   3.287  11.320  2.6835  0.4129  0.7850
 8632TIP3    H247312   1.303   3.310  11.173 -0.6898 -0.8602  1.1782
 8633TIP3   OH247313   2.107   4.829   5.295 -0.0178  0.4804  0.4895
 8633TIP3    H147314   2.040   4.760   5.295  0.5140 -0.0832 -0.9249
 8633TIP3    H247315   2.181   4.790   5.342  0.0933  0.2606  0.1427
 8634TIP3   OH247316   0.606   4.234   0.533 -0.4246  0.0333  0.1921
 8634TIP3    H147317   0.520   4.192   0.522 -0.5963 -0.0113  1.5304
 8634TIP3    H247318   0.631   4.212   0.623  0.2114  1.4692  0.3871
 8635TIP3   OH247319   1.003   2.093   0.371  0.4199 -0.3850  0.3156
 8635TIP3    H147320   0.945   2.093   0.447 -0.5525 -0.0200 -0.4151
 8635TIP3    H247321   1.019   2.000   0.353 -2.9837 -0.7532 -1.7115
 8636TIP3   OH247322   2.793   0.907   0.731  0.0589  0.1808  0.0342
 8636TIP3    H147323   2.705   0.871   0.726 -0.6619  1.6414  1.4262
 8636TIP3    H247324   2.837   0.854   0.798 -0.7131  1.2252  1.4246
 8637TIP3   OH247325   4.424   0.914   0.789  0.6819 -0.0468  0.0978
 8637TIP3    H147326   4.443   1.002   0.755 -0.6039  0.0720 -0.3649
 8637TIP3    H247327   4.338   0.922   0.831  1.0256 -0.8453  1.0016
 8638TIP3   OH247328   2.184   6.033  12.042 -0.2689  0.4221  0.0592
 8638TIP3    H147329   2.216   5.988  12.121  1.8598  0.9221 -0.4554
 8638TIP3    H247330   2.187   6.126  12.065 -1.5475  0.4865  0.0261
 8639TIP3   OH247331   1.334   4.901  15.155 -0.0805 -0.3905  0.2865
 8639TIP3    H147332   1.389   4.977  15.136 -0.7437 -0.0287 -0.2364
 8639TIP3    H247333   1.393   4.839  15.198  0.5451  0.2943  0.4424
 8640TIP3   OH247334   2.557   5.890  15.930  0.3852 -0.4646 -0.8168
 8640TIP3    H147335   2.649   5.916  15.926  0.2638  0.2876  0.6704
 8640TIP3    H247336   2.512   5.955  15.876  0.3443  1.2633  1.1977
 8641TIP3   OH247337   0.913   5.756   4.008 -0.5423 -1.0784 -0.0687
 8641TIP3    H147338   0.843   5.726   4.066 -1.7632  1.9675  0.2421
 8641TIP3    H247339   0.969   5.810   4.063 -0.5111  0.1411 -1.2499
 8642TIP3   OH247340   2.689   5.655  14.531  0.9316  0.0852 -0.3987
 8642TIP3    H147341   2.630   5.625  14.462  2.4220 -0.7236 -1.3752
 8642TIP3    H247342   2.704   5.577  14.585 -0.9842  0.9274  1.5039
 8643TIP3   OH247343   5.245   2.800   0.228 -0.5649 -0.0826 -0.0906
 8643TIP3    H147344   5.223   2.841   0.144  0.9220 -0.7970 -0.8707
 8643TIP3    H247345   5.253   2.707   0.208  0.6736 -0.1578  0.6333
 8644TIP3   OH247346   1.372   1.044  15.949  0.0757 -0.3774  0.3348
 8644TIP3    H147347   1.442   1.081  15.895 -0.4553 -0.2428 -0.2737
 8644TIP3    H247348   1.307   1.114  15.955  0.3893 -0.1654  1.6719
 8645TIP3   OH247349   0.129   2.385   4.000  0.2147 -0.5641 -0.4037
 8645TIP3    H147350   0.156   2.306   3.953 -0.3773 -0.7878 -0.3793
 8645TIP3    H247351   0.040   2.402   3.969  0.3697  0.1462 -0.4711
 8646TIP3   OH247352   2.452   2.300   6.093 -0.3231 -0.3875  0.3891
 8646TIP3    H147353   2.441   2.233   6.026  1.7943  0.6020 -1.0726
 8646TIP3    H247354   2.484   2.376   6.045  0.0174  0.7751  2.3699
 8647TIP3   OH247355   3.934   2.411  12.286 -0.3485  0.5995 -0.3314
 8647TIP3    H147356   3.999   2.476  12.261  1.3096 -1.0875 -0.6759
 8647TIP3    H247357   3.885   2.394  12.206  0.1845  0.4018 -0.6239
 8648TIP3   OH247358   2.290   1.008   5.445 -0.1360 -0.2293 -0.9415
 8648TIP3    H147359   2.260   0.922   5.475  0.2018  0.0868  0.3542
 8648TIP3    H247360   2.367   1.026   5.500 -0.6404  1.2235 -0.6942
 8649TIP3   OH247361   4.617   0.294  14.677 -0.0454  0.3818 -0.2215
 8649TIP3    H147362   4.609   0.362  14.744 -0.0219 -1.1928  1.4533
 8649TIP3    H247363   4.550   0.316  14.613  0.6991  2.5904 -0.3323
 8650TIP3   OH247364   2.997   0.953  15.450  0.3511  0.2582  0.3598
 8650TIP3    H147365   3.058   0.959  15.377  0.2318 -1.1449  0.0985
 8650TIP3    H247366   2.975   1.043  15.471  0.9311  0.7143 -0.8764
 8651TIP3   OH247367   1.063   4.349   2.220  0.0469  0.0574 -0.1132
 8651TIP3    H147368   1.014   4.320   2.143  2.2775 -1.6963 -0.9844
 8651TIP3    H247369   1.148   4.307   2.211  1.2917  1.9339  1.9828
 8652TIP3   OH247370   4.626   3.970   0.261  0.0210  0.4506 -0.0943
 8652TIP3    H147371   4.602   3.968   0.168 -0.3524  1.4250 -0.0349
 8652TIP3    H247372   4.555   4.017   0.303  0.1677 -0.0306  0.7006
 8653TIP3   OH247373   6.008   3.813   2.781  0.3753 -0.1133  0.0344
 8653TIP3    H147374   6.060   3.738   2.808  1.9966  0.5824 -1.0155
 8653TIP3    H247375   5.934   3.775   2.734  1.8447 -1.0727 -1.6208
 8654TIP3   OH247376   0.855   1.671   4.944 -0.3208  0.5101  0.2696
 8654TIP3    H147377   0.928   1.696   4.887  0.3423  0.4944  1.1008
 8654TIP3    H247378   0.854   1.737   5.012 -2.0491  1.3728 -0.5382
 8655TIP3   OH247379   4.225   5.269   2.202 -0.3018  0.6652 -0.5983
 8655TIP3    H147380   4.310   5.305   2.176 -0.3775  0.1938 -1.5164
 8655TIP3    H247381   4.239   5.175   2.205 -1.0150  0.5160 -1.6129
 8656TIP3   OH247382   3.768   6.019   3.713 -0.2358 -0.4724 -0.3911
 8656TIP3    H147383   3.672   6.028   3.713 -0.2587 -0.7032 -0.5545
 8656TIP3    H247384   3.796   6.066   3.791 -0.2738  1.7159 -1.6071
 8657TIP3   OH247385   5.997   4.772  12.016  0.3002 -0.6423  0.3020
 8657TIP3    H147386   6.072   4.763  11.958 -0.2755 -0.5235 -0.4793
 8657TIP3    H247387   5.924   4.732  11.968  0.1745 -2.2627  1.7167
 8658TIP3   OH247388   5.870   0.017  13.478 -0.0170 -0.3156  0.0743
 8658TIP3    H147389   5.909   0.094  13.519  1.3818 -1.0236  0.1043
 8658TIP3    H247390   5.817  -0.023  13.547  1.7360 -1.0905  1.0253
 8659TIP3   OH247391   4.733   4.454  12.006  0.2577  0.0201  0.0034
 8659TIP3    H147392   4.808   4.478  12.062  0.8397 -1.0580 -0.2872
 8659TIP3    H247393   4.772   4.430  11.922 -0.2306 -2.1702  0.3445
 8660TIP3   OH247394   1.564   4.076   3.061  0.0442  0.2166  0.0459
 8660TIP3    H147395   1.559   4.002   3.001  0.2709  0.9192 -0.8646
 8660TIP3    H247396   1.496   4.060   3.125  0.1163 -0.7980 -0.1216
 8661TIP3   OH247397   2.654   1.481  16.573 -0.3160 -0.3340  0.0753
 8661TIP3    H147398   2.713   1.406  16.579 -0.6299 -0.5669  0.3426
 8661TIP3    H247399   2.602   1.464  16.495  0.4089  0.2032 -0.5395
 8662TIP3   OH247400   5.681   0.246  16.587 -0.6905  0.0435  0.0176
 8662TIP3    H147401   5.677   0.261  16.492 -0.9030 -0.0028  0.0197
 8662TIP3    H247402   5.650   0.156  16.598 -1.8015  0.4367  0.2390
 8663TIP3   OH247403   5.139   5.025  15.783 -0.3656  0.1725 -0.2820
 8663TIP3    H147404   5.068   5.051  15.842  0.4397  1.6094  0.0983
 8663TIP3    H247405   5.218   5.038  15.835  0.2032 -1.6754 -0.5996
 8664TIP3   OH247406   5.744   5.415   4.670  0.0325 -0.0871  0.3338
 8664TIP3    H147407   5.707   5.417   4.758 -0.7583 -2.2741  0.1145
 8664TIP3    H247408   5.743   5.322   4.646  1.8509  0.2598 -1.3183
 8665TIP3   OH247409   1.413   1.981  12.405  0.1130  0.0400 -0.0270
 8665TIP3    H147410   1.395   1.966  12.498 -1.0495 -1.7965 -0.5032
 8665TIP3    H247411   1.336   1.948  12.359  0.0143  2.2303 -1.6263
 8666TIP3   OH247412   5.416   4.811   4.550  0.0897  0.2428 -0.3217
 8666TIP3    H147413   5.335   4.853   4.579 -0.1196  0.4392 -1.1419
 8666TIP3    H247414   5.463   4.791   4.630 -0.6146  0.4491  0.1550
 8667TIP3   OH247415   3.290   1.635  14.960  0.2849 -0.3272  0.3014
 8667TIP3    H147416   3.340   1.695  14.905  0.1052  0.1859  0.6832
 8667TIP3    H247417   3.241   1.581  14.898  2.6945 -2.1485 -0.1698
 8668TIP3   OH247418   1.689   3.544  12.392  0.5864 -0.2097 -0.8512
 8668TIP3    H147419   1.779   3.574  12.381  0.3625  0.1181 -1.8358
 8668TIP3    H247420   1.656   3.594  12.467  2.3222 -2.9220  1.9702
 8669TIP3   OH247421   4.662   5.375   5.179 -0.1200  0.0250  0.0927
 8669TIP3    H147422   4.662   5.284   5.149 -0.5151  0.2657 -0.6483
 8669TIP3    H247423   4.629   5.425   5.105 -1.7024  0.5729  1.1269
 8670TIP3   OH247424   2.169   4.873   1.201 -0.0234  0.4716 -0.0130
 8670TIP3    H147425   2.075   4.868   1.185  0.1346  0.1358 -0.8998
 8670TIP3    H247426   2.190   4.966   1.197  0.0047  0.4178 -1.8988
 8671TIP3   OH247427   3.492   0.738   4.704 -0.4318 -0.2775  0.3083
 8671TIP3    H147428   3.501   0.685   4.783  0.4057 -1.9320 -0.8223
 8671TIP3    H247429   3.468   0.825   4.735 -1.2721 -1.1610  2.2935
 8672TIP3   OH247430   5.483   4.604   5.398 -0.3247 -0.2090  0.2726
 8672TIP3    H147431   5.421   4.650   5.455  1.3155 -0.0739  2.0353
 8672TIP3    H247432   5.458   4.511   5.405 -2.1347  0.0811 -1.4092
 8673TIP3   OH247433   6.461   1.122   1.474  0.2597 -0.3496  0.2437
 8673TIP3    H147434   6.427   1.212   1.465 -0.5699 -0.8416 -2.6397
 8673TIP3    H247435   6.534   1.118   1.412  0.4645 -1.5866  0.5436
 8674TIP3   OH247436   3.209   5.234  14.850  0.2691  0.0752  0.1375
 8674TIP3    H147437   3.234   5.258  14.940  0.6133  0.7180 -0.1219
 8674TIP3    H247438   3.250   5.301  14.795 -0.1807 -0.1441 -0.4779
 8675TIP3   OH247439   4.598   1.599   0.139 -0.0815 -0.1354 -0.0275
 8675TIP3    H147440   4.603   1.692   0.120 -1.3597 -0.1072 -0.3162
 8675TIP3    H247441   4.512   1.572   0.108  0.0294 -1.2937  0.5856
 8676TIP3   OH247442   4.423   3.797   0.545  0.0321  0.2751  0.7143
 8676TIP3    H147443   4.334   3.775   0.519  0.1818  0.2506  0.1934
 8676TIP3    H247444   4.432   3.890   0.524  0.5382 -0.0173 -0.5022
 8677TIP3   OH247445   2.371   2.427   0.997 -0.3738 -0.9344  0.0203
 8677TIP3    H147446   2.397   2.431   0.905  0.1604 -3.0054  0.0299
 8677TIP3    H247447   2.451   2.447   1.045 -0.8988  1.2460  0.0926
 8678TIP3   OH247448   0.584   2.406   2.518 -0.3586 -0.4402 -0.7112
 8678TIP3    H147449   0.503   2.448   2.486 -0.6422 -1.7537 -1.8130
 8678TIP3    H247450   0.627   2.374   2.439  1.1014 -0.0708 -0.1066
 8679TIP3   OH247451   3.961   4.969  15.524  0.1401  0.0343 -0.3327
 8679TIP3    H147452   4.030   4.958  15.458  1.6660  0.8896  1.0523
 8679TIP3    H247453   3.970   4.891  15.580  1.1776  0.9504  0.8457
 8680TIP3   OH247454   3.512   0.267   5.608 -0.2343  0.5002  0.3417
 8680TIP3    H147455   3.503   0.192   5.666  2.5125  0.6968  1.1525
 8680TIP3    H247456   3.532   0.229   5.522  1.6361  0.2195  0.8466
 8681TIP3   OH247457   3.189   0.912   2.392  0.2278  0.3739  0.1700
 8681TIP3    H147458   3.247   0.966   2.339  0.6823  2.6995  2.8181
 8681TIP3    H247459   3.116   0.970   2.416 -2.1806 -1.8225 -1.2372
 8682TIP3   OH247460   1.676   0.461   2.327  0.5265 -0.4029 -0.0519
 8682TIP3    H147461   1.728   0.541   2.334  1.4191 -1.1188  2.1172
 8682TIP3    H247462   1.739   0.394   2.301  0.5279 -1.0790  1.6198
 8683TIP3   OH247463   1.068   6.269   5.521 -0.3716 -0.0009 -0.3310
 8683TIP3    H147464   0.979   6.286   5.492 -0.8476 -0.1620  0.9574
 8683TIP3    H247465   1.066   6.286   5.615  0.9570 -0.0173 -0.2830
 8684TIP3   OH247466   1.987   5.121  15.739 -0.1363 -0.1506  0.1147
 8684TIP3    H147467   1.961   5.114  15.647 -0.3235  0.1653  0.1425
 8684TIP3    H247468   2.082   5.123  15.737 -0.1123 -1.1161 -0.0027
 8685TIP3   OH247469   6.245   6.679   0.051  0.0267 -0.1211 -0.0923
 8685TIP3    H147470   6.191   6.744   0.097 -0.4658  0.9654 -2.0621
 8685TIP3    H247471   6.182   6.616   0.015 -0.0334  1.0741 -2.2839
 8686TIP3   OH247472   6.186   0.677  15.616  0.8954 -0.7971  0.8159
 8686TIP3    H147473   6.134   0.681  15.536  1.0428 -0.2012  0.7511
 8686TIP3    H247474   6.122   0.680  15.687  0.8112 -0.5956  0.7305
 8687TIP3   OH247475   6.164   1.246   5.110  0.3964 -0.3104  0.1589
 8687TIP3    H147476   6.143   1.258   5.018  1.5675  0.8049  0.0005
 8687TIP3    H247477   6.242   1.190   5.110  2.5002  2.4295  0.2201
 8688TIP3   OH247478   2.992   1.943   1.188 -0.1510 -0.1478  0.0310
 8688TIP3    H147479   2.900   1.916   1.187 -0.1149 -0.2600 -0.5795
 8688TIP3    H247480   2.996   2.013   1.253 -0.4818 -0.7824  0.7532
 8689TIP3   OH247481   5.445   1.233  16.811 -0.3169  0.5019  0.4592
 8689TIP3    H147482   5.458   1.231  16.905 -0.5432  0.7796  0.4978
 8689TIP3    H247483   5.531   1.256  16.775  0.2123 -1.3333  0.4801
 8690TIP3   OH247484   0.400   4.528  16.769  0.2281  0.0023  0.5630
 8690TIP3    H147485   0.430   4.618  16.765 -0.4083  0.1991  0.1057
 8690TIP3    H247486   0.305   4.534  16.773  0.2091 -0.5202  4.0823
 8691TIP3   OH247487   4.528   6.235   1.418  0.3074  0.2442 -0.1005
 8691TIP3    H147488   4.584   6.169   1.377  0.3356 -1.0146  1.8420
 8691TIP3    H247489   4.490   6.283   1.344  2.9316  0.3279 -1.5188
 8692TIP3   OH247490   2.472   2.126   1.846  0.0311  0.0160  0.4519
 8692TIP3    H147491   2.416   2.203   1.840  2.4386  1.9747  1.4719
 8692TIP3    H247492   2.448   2.085   1.929 -1.8013 -0.8717 -0.4619
 8693TIP3   OH247493   1.508   1.531  16.962 -0.4170 -0.0252  0.2053
 8693TIP3    H147494   1.540   1.467  17.026  1.7660  1.0312  0.2245
 8693TIP3    H247495   1.564   1.607  16.973 -1.0716  0.8196 -1.8425
 8694TIP3   OH247496   5.305   3.161   6.219 -0.2076 -0.1649 -0.2232
 8694TIP3    H147497   5.261   3.171   6.134 -0.7131  0.9497  0.1551
 8694TIP3    H247498   5.290   3.244   6.264  1.5233 -0.0922  0.2860
 8695TIP3   OH247499   1.303   0.796  16.787  0.1160  0.0953  0.1212
 8695TIP3    H147500   1.227   0.792  16.729 -0.0552 -1.0737  0.3929
 8695TIP3    H247501   1.371   0.839  16.735 -0.5215  0.5459 -0.3591
 8696TIP3   OH247502   0.528   3.103   0.909  0.4213  0.1420  0.6703
 8696TIP3    H147503   0.488   3.132   0.991 -1.8163  2.0325 -0.9561
 8696TIP3    H247504   0.454   3.080   0.853  1.8543 -0.5621 -1.0220
 8697TIP3   OH247505   3.861   3.316  14.811  0.0773  0.4569 -0.2650
 8697TIP3    H147506   3.913   3.283  14.738  0.3283  1.0921 -0.3738
 8697TIP3    H247507   3.900   3.274  14.888  0.8892  1.0873 -0.3240
 8698TIP3   OH247508   5.701   1.142  14.952 -0.7140 -0.4830 -0.3461
 8698TIP3    H147509   5.796   1.129  14.953 -0.7517 -0.7562 -0.3634
 8698TIP3    H247510   5.680   1.168  15.042 -0.6737 -0.7902 -0.2451
 8699TIP3   OH247511   0.343   6.484   1.199  0.3202 -0.1351 -0.2708
 8699TIP3    H147512   0.334   6.403   1.250  4.0574 -0.0691  0.8008
 8699TIP3    H247513   0.365   6.550   1.264  3.1421  0.4139 -1.6502
 8700TIP3   OH247514   1.851   3.231   3.344 -0.3376  0.0255  0.5627
 8700TIP3    H147515   1.832   3.324   3.345 -0.4471  0.0099 -0.0512
 8700TIP3    H247516   1.784   3.192   3.400 -0.0981  0.3430  1.0823
 8701TIP3   OH247517   1.938   6.587  13.063  0.0190 -0.0634  0.5273
 8701TIP3    H147518   1.938   6.681  13.045  0.5732  0.0079  0.8728
 8701TIP3    H247519   1.990   6.549  12.993 -2.7240 -0.5062 -1.4140
 8702TIP3   OH247520   0.925   4.516  17.345 -0.1990 -0.2802 -0.3117
 8702TIP3    H147521   0.862   4.539  17.413 -0.5751 -3.2569  0.4972
 8702TIP3    H247522   0.886   4.547  17.264 -0.1684  2.5316  0.6372
 8703TIP3   OH247523   0.349   4.113   1.395 -0.3113  0.2104 -0.0394
 8703TIP3    H147524   0.305   4.193   1.367 -1.4982  0.3024  1.8492
 8703TIP3    H247525   0.306   4.091   1.478 -0.1619 -2.4913 -0.5965
 8704TIP3   OH247526   2.754   5.300   1.630 -0.2555 -0.7553 -0.4732
 8704TIP3    H147527   2.842   5.333   1.648 -0.2065 -0.1926 -1.6368
 8704TIP3    H247528   2.746   5.220   1.682  0.5602 -0.2554  0.4334
 8705TIP3   OH247529   1.702   5.162  15.066 -0.3130 -0.6524 -0.7081
 8705TIP3    H147530   1.703   5.071  15.096  1.1102 -0.6832 -0.7634
 8705TIP3    H247531   1.752   5.209  15.133 -3.5260  0.6999  0.9620
 8706TIP3   OH247532   1.051   5.037   0.692  0.4599 -0.1650  0.3817
 8706TIP3    H147533   0.957   5.052   0.678  0.6966  1.1782  0.1128
 8706TIP3    H247534   1.077   5.107   0.752  1.2949 -0.5338  0.4588
 8707TIP3   OH247535   5.860   2.344  17.023  0.3395  0.2523 -0.1364
 8707TIP3    H147536   5.853   2.427  17.071  0.1192  0.3634 -0.3547
 8707TIP3    H247537   5.786   2.346  16.962  0.6650  0.1500 -0.5376
 8708TIP3   OH247538   5.202   2.039   0.509  0.4709 -0.1210  0.5145
 8708TIP3    H147539   5.225   2.122   0.466 -1.6264 -0.3978 -1.3477
 8708TIP3    H247540   5.204   2.060   0.602  0.4080  1.9587  0.1131
 8709TIP3   OH247541   6.070   2.952   0.012  0.3928 -0.0901 -0.5580
 8709TIP3    H147542   6.009   2.975  -0.059  1.4015 -1.2342 -1.8487
 8709TIP3    H247543   6.133   3.024   0.013 -0.0695  0.3199 -0.2698
 8710TIP3   OH247544   3.319   0.616  15.676  0.6137 -0.6645 -0.1819
 8710TIP3    H147545   3.237   0.625  15.628  0.3401  0.4536  0.4528
 8710TIP3    H247546   3.364   0.700  15.665 -0.0067  0.1253  2.4268
 8711TIP3   OH247547   0.580   5.600   3.117 -0.2209 -0.0466 -0.3400
 8711TIP3    H147548   0.627   5.562   3.191 -2.2443 -0.5215  0.7769
 8711TIP3    H247549   0.608   5.692   3.115  0.3418 -0.1874  0.6262
 8712TIP3   OH247550   6.158   3.666  13.155  0.2379 -0.1995  0.1718
 8712TIP3    H147551   6.191   3.649  13.243 -1.1911 -1.4739  0.5027
 8712TIP3    H247552   6.228   3.636  13.097  0.8857 -0.0420  0.8577
 8713TIP3   OH247553   3.491   6.056   3.699  0.0539 -0.0020 -0.1566
 8713TIP3    H147554   3.442   6.006   3.635 -1.0688 -1.5442  1.8062
 8713TIP3    H247555   3.425   6.107   3.746  0.7180  0.3838  0.3846
 8714TIP3   OH247556   0.734   1.828  11.479 -0.2073  0.9314 -0.5890
 8714TIP3    H147557   0.718   1.891  11.549 -1.1801 -1.1896  1.2386
 8714TIP3    H247558   0.647   1.798  11.454  0.2013  0.7452 -1.8449
 8715TIP3   OH247559   6.111   0.172  15.381 -0.1410  0.1071 -0.0773
 8715TIP3    H147560   6.023   0.207  15.396 -0.3989 -0.3819 -0.4010
 8715TIP3    H247561   6.148   0.164  15.469 -0.2591  0.7106  0.0336
 8716TIP3   OH247562   1.296   1.369  13.185  0.0120  0.4783 -0.4065
 8716TIP3    H147563   1.265   1.293  13.234  0.6705 -0.6767 -1.7199
 8716TIP3    H247564   1.296   1.440  13.249 -2.7564 -0.0458  0.3198
 8717TIP3   OH247565   4.854   0.759  14.528 -0.1626  0.2036  0.0599
 8717TIP3    H147566   4.893   0.714  14.603 -2.7010 -2.5935 -0.1202
 8717TIP3    H247567   4.862   0.852  14.549  3.6396 -0.2303  1.3915
 8718TIP3   OH247568   1.564   6.505   5.149 -0.1149  0.2096  0.2234
 8718TIP3    H147569   1.622   6.504   5.226 -1.6872  0.2343  1.4612
 8718TIP3    H247570   1.486   6.459   5.178 -0.4368 -0.4908 -1.6608
 8719TIP3   OH247571   4.467   2.575  11.462  0.0571 -0.0498  0.4447
 8719TIP3    H147572   4.384   2.534  11.487  0.5416 -1.2773  0.1472
 8719TIP3    H247573   4.442   2.650  11.408 -0.8583 -0.3469  0.4388
 8720TIP3   OH247574   2.807   4.782   1.666  0.0721  0.3607  0.0852
 8720TIP3    H147575   2.842   4.698   1.638  0.2850 -0.1755  1.8334
 8720TIP3    H247576   2.876   4.819   1.722 -0.8296  0.7695  0.9517
 8721TIP3   OH247577   3.478   4.812   6.323  0.8070 -0.1689  0.0309
 8721TIP3    H147578   3.446   4.898   6.351  0.0049 -0.5779  0.3766
 8721TIP3    H247579   3.573   4.823   6.319  0.8190  0.3906  1.2584
 8722TIP3   OH247580   5.216   0.397   3.060 -0.1141  0.1109  0.1443
 8722TIP3    H147581   5.256   0.481   3.038  1.7172 -0.5680  0.7040
 8722TIP3    H247582   5.236   0.341   2.985 -0.1948 -0.1926  0.3486
 8723TIP3   OH247583   1.714   3.813  12.048 -0.5279  0.9602 -0.2058
 8723TIP3    H147584   1.644   3.769  12.095  1.5001 -2.4301  0.0224
 8723TIP3    H247585   1.758   3.742  12.000  2.2023  3.0177 -0.9852
 8724TIP3   OH247586   4.754   0.148  11.903 -0.0987 -0.8761  0.0369
 8724TIP3    H147587   4.710   0.165  11.820 -0.2139 -1.6567 -0.0676
 8724TIP3    H247588   4.796   0.063  11.892  1.3924 -0.1976  0.1700
 8725TIP3   OH247589   0.674   5.666  11.432  0.1239  0.0707 -0.3016
 8725TIP3    H147590   0.654   5.706  11.347  0.8902  2.1654  0.4322
 8725TIP3    H247591   0.720   5.735  11.480  0.0513 -1.1992  1.6832
 8726TIP3   OH247592   5.362   0.128   5.737  0.3243 -0.3236  0.6289
 8726TIP3    H147593   5.445   0.119   5.690  0.4467 -0.2544  0.8314
 8726TIP3    H247594   5.386   0.168   5.820  0.0240  0.1971  0.4729
 8727TIP3   OH247595   4.497   4.491  11.287 -0.1168  0.1873 -0.0347
 8727TIP3    H147596   4.480   4.398  11.275  0.9461 -0.0730  0.3359
 8727TIP3    H247597   4.433   4.535  11.231 -0.9216 -0.7474  0.1303
 8728TIP3   OH247598   2.181   1.921  11.074  0.3734  0.1334 -0.4384
 8728TIP3    H147599   2.125   1.941  10.999  2.5999 -1.4814 -2.6756
 8728TIP3    H247600   2.155   1.985  11.141 -5.2854 -1.5362 -0.5339
 8729TIP3   OH247601   5.633   4.192  11.134 -0.0403  0.0537  0.3913
 8729TIP3    H147602   5.600   4.280  11.118 -0.1091  0.1931  1.2449
 8729TIP3    H247603   5.599   4.140  11.061  2.7413  1.3525 -2.0406
 8730TIP3   OH247604   4.684   3.010   6.799 -0.2043 -0.3033 -0.9648
 8730TIP3    H147605   4.662   3.093   6.841 -0.1974  0.4393 -2.3809
 8730TIP3    H247606   4.602   2.980   6.760  0.0282 -0.4252 -1.3648
 8731TIP3   OH247607   5.869   6.130   2.492 -0.3088 -0.8167 -0.2585
 8731TIP3    H147608   5.879   6.123   2.397  0.4490  0.3839 -0.2862
 8731TIP3    H247609   5.780   6.098   2.508  0.4179 -3.4737 -1.0418
 8732TIP3   OH247610   0.160   1.608  12.487  0.0849  0.6250  0.3703
 8732TIP3    H147611   0.162   1.521  12.527  3.0612  0.5087  0.1944
 8732TIP3    H247612   0.070   1.639  12.501 -0.0812 -0.9243  3.7757
 8733TIP3   OH247613   1.312   1.348   0.421  0.2511 -0.2910 -0.2084
 8733TIP3    H147614   1.392   1.304   0.449 -0.6079 -2.3471 -0.7836
 8733TIP3    H247615   1.342   1.422   0.368  1.7603 -0.0707  0.8817
 8734TIP3   OH247616   5.462   2.838  11.429  0.1182  0.3160 -0.2542
 8734TIP3    H147617   5.406   2.856  11.505  1.7640  0.6694  0.9097
 8734TIP3    H247618   5.412   2.872  11.355 -1.3697  0.2963  0.6908
 8735TIP3   OH247619   1.655   4.447  16.339 -0.5401  0.0439  0.4159
 8735TIP3    H147620   1.697   4.373  16.384 -0.9570  0.4546  1.5041
 8735TIP3    H247621   1.663   4.425  16.246  2.8384  0.4896  0.4681
 8736TIP3   OH247622   2.297   0.359  15.935  0.6090  0.3809  0.3958
 8736TIP3    H147623   2.259   0.286  15.887 -0.7399 -0.7637  2.9812
 8736TIP3    H247624   2.226   0.423  15.942  0.9013  0.6921  0.5539
 8737TIP3   OH247625   1.493   0.373  14.722  0.0989  0.3556  0.4921
 8737TIP3    H147626   1.536   0.357  14.806 -0.0456  1.4450  0.7956
 8737TIP3    H247627   1.527   0.305  14.664 -0.5327 -1.0159  1.6735
 8738TIP3   OH247628   4.400   5.732   4.387  0.0661  0.6170  0.0054
 8738TIP3    H147629   4.323   5.679   4.365  0.3694  0.6060 -1.0552
 8738TIP3    H247630   4.441   5.684   4.459  0.7024 -0.9924 -1.3606
 8739TIP3   OH247631   3.446   3.559  14.529  0.0018 -0.0734 -0.0262
 8739TIP3    H147632   3.397   3.555  14.447 -0.0667  1.8879 -0.1297
 8739TIP3    H247633   3.379   3.545  14.597 -0.8032  2.5215 -0.1712
 8740TIP3   OH247634   5.839   0.006   2.125 -0.5983  0.1663  0.0521
 8740TIP3    H147635   5.902   0.073   2.152  0.5922 -0.0004 -2.0659
 8740TIP3    H247636   5.759   0.055   2.106  0.3171  1.0700 -1.6663
 8741TIP3   OH247637   5.904   6.634   2.782  0.7887 -0.1442  0.4870
 8741TIP3    H147638   5.934   6.559   2.730 -1.2604 -1.1257  0.6508
 8741TIP3    H247639   5.970   6.701   2.765  0.4257 -0.4820 -3.1621
 8742TIP3   OH247640   4.934   1.996  17.124 -0.0428 -0.6911  0.4051
 8742TIP3    H147641   5.000   1.982  17.192 -0.2251  3.7557  1.7732
 8742TIP3    H247642   4.982   2.037  17.052 -0.7745 -0.3900  0.0733
 8743TIP3   OH247643   0.316   5.340  15.372  0.3445 -0.3554  0.4090
 8743TIP3    H147644   0.323   5.251  15.337  0.3933 -0.0181 -0.4679
 8743TIP3    H247645   0.404   5.359  15.406  0.7854 -0.0832 -0.8222
 8744TIP3   OH247646   2.650   0.526  10.673  0.4725  0.0982  0.8844
 8744TIP3    H147647   2.701   0.501  10.595  0.9119  1.0447  0.8650
 8744TIP3    H247648   2.593   0.450  10.688  2.8684 -1.6555  1.7816
 8745TIP3   OH247649   3.773   5.412   4.207 -0.0511  0.2190  0.2928
 8745TIP3    H147650   3.815   5.327   4.220 -0.2555  0.0106 -0.3652
 8745TIP3    H247651   3.833   5.475   4.247 -0.5982 -0.3594  2.1123
 8746TIP3   OH247652   3.585   4.756   5.616 -0.1344  0.4145 -0.0940
 8746TIP3    H147653   3.665   4.806   5.635 -0.2871  0.6216  0.0096
 8746TIP3    H247654   3.580   4.691   5.687  0.5548 -0.3527 -0.7357
 8747TIP3   OH247655   0.600   6.224   5.234  0.5204 -0.3790 -0.0786
 8747TIP3    H147656   0.688   6.207   5.268  0.9754 -0.4605 -1.2495
 8747TIP3    H247657   0.595   6.319   5.226  0.2866 -0.3355  0.5091
 8748TIP3   OH247658   3.382   3.562  13.198 -0.3640  0.0028  0.0220
 8748TIP3    H147659   3.337   3.505  13.261  0.5504 -2.2865 -1.2975
 8748TIP3    H247660   3.394   3.508  13.121  1.0598  1.8580 -1.1384
 8749TIP3   OH247661   2.078   0.199  15.849  0.0236  0.3495 -0.1659
 8749TIP3    H147662   2.097   0.113  15.886  3.0144  0.5660 -0.8983
 8749TIP3    H247663   2.002   0.231  15.898  0.3807 -1.6395  1.8443
 8750TIP3   OH247664   3.086   3.969   3.427  0.5211 -0.2392  0.0749
 8750TIP3    H147665   3.089   4.062   3.448 -0.2070 -0.1836 -0.0235
 8750TIP3    H247666   3.078   3.966   3.332 -1.4417 -0.3222  0.2015
 8751TIP3   OH247667   6.419   6.555  15.180  0.2085 -0.1414 -0.1776
 8751TIP3    H147668   6.388   6.600  15.259 -0.5696  1.5538 -1.3609
 8751TIP3    H247669   6.511   6.581  15.172 -0.3989  1.9351 -1.2051
 8752TIP3   OH247670   2.537   2.190  13.613  0.5429 -0.7574  0.6725
 8752TIP3    H147671   2.517   2.149  13.529  0.4693 -0.7851  0.7035
 8752TIP3    H247672   2.452   2.208  13.653  0.5278  0.8099  0.0061
 8753TIP3   OH247673   0.899   3.483  15.479  0.1320  0.4276  0.2727
 8753TIP3    H147674   0.967   3.538  15.440  1.7165 -0.3973  1.7570
 8753TIP3    H247675   0.897   3.405  15.424  0.9201  0.1440  0.6335
 8754TIP3   OH247676   1.644   2.998   5.337  0.4303  0.0357 -0.0044
 8754TIP3    H147677   1.580   2.928   5.349  0.1310 -0.2979 -2.7891
 8754TIP3    H247678   1.678   3.015   5.425 -0.6845 -2.4211  1.0048
 8755TIP3   OH247679   1.429   2.472   2.033 -0.1220  0.1449 -0.8016
 8755TIP3    H147680   1.342   2.493   2.066 -0.1912  0.0660 -0.9312
 8755TIP3    H247681   1.428   2.503   1.942  0.2311  0.8069 -0.5831
 8756TIP3   OH247682   5.993   0.680  13.174 -0.0487 -0.4014 -0.0947
 8756TIP3    H147683   5.949   0.604  13.137  0.5568 -1.0948  0.5840
 8756TIP3    H247684   5.926   0.749  13.175 -0.3340 -0.6286 -1.6033
 8757TIP3   OH247685   0.587   0.180   1.740  0.1290  0.7111 -0.2906
 8757TIP3    H147686   0.615   0.212   1.825  0.7556  2.2017 -1.0129
 8757TIP3    H247687   0.658   0.204   1.681  0.2734 -1.3948 -1.0456
 8758TIP3   OH247688   4.360   2.365   0.446 -0.4972 -0.3933 -0.0817
 8758TIP3    H147689   4.438   2.421   0.441 -1.0484  0.6009  1.5574
 8758TIP3    H247690   4.316   2.393   0.527 -2.1987 -1.3906 -0.6170
 8759TIP3   OH247691   1.629   5.444  12.029 -0.4925 -0.0919 -0.1331
 8759TIP3    H147692   1.562   5.383  12.000 -1.1828 -0.3983  1.9313
 8759TIP3    H247693   1.691   5.390  12.079  0.7579  0.3589 -1.1348
 8760TIP3   OH247694   0.545   3.646  12.058  0.5605  0.1746 -0.4411
 8760TIP3    H147695   0.541   3.618  12.149  1.3358  1.7015  0.0935
 8760TIP3    H247696   0.585   3.572  12.012  2.3867  0.2660  0.8889
 8761TIP3   OH247697   4.114   5.014  14.232  0.2687 -0.4292  0.1687
 8761TIP3    H147698   4.045   4.964  14.275  1.7273 -1.0213  1.9633
 8761TIP3    H247699   4.135   5.085  14.294  1.8165 -0.7728  0.0925
 8762TIP3   OH247700   4.512   2.424  13.283  0.2241 -0.2301 -0.4377
 8762TIP3    H147701   4.416   2.427  13.290  0.2745 -0.5793  0.5731
 8762TIP3    H247702   4.529   2.348  13.227 -0.0534 -1.3836  0.9775
 8763TIP3   OH247703   4.144   2.299  11.629 -0.2831  0.3191 -0.2868
 8763TIP3    H147704   4.188   2.316  11.546 -0.3748  0.4708 -0.3028
 8763TIP3    H247705   4.082   2.370  11.639 -1.4883 -0.5994 -0.9166
 8764TIP3   OH247706   0.759   3.007   1.319  0.2460  0.8594  0.0601
 8764TIP3    H147707   0.783   2.927   1.271 -0.8375  0.9454 -0.6473
 8764TIP3    H247708   0.820   3.073   1.287  0.4848  0.5614 -0.1062
 8765TIP3   OH247709   0.715   0.948  12.047 -0.0310 -0.0062 -0.3013
 8765TIP3    H147710   0.685   0.862  12.078  0.0706  0.1720  0.2817
 8765TIP3    H247711   0.806   0.954  12.075 -0.7555  1.3776  1.9828
 8766TIP3   OH247712   2.480   5.474   5.639 -0.4505 -0.5263 -0.2332
 8766TIP3    H147713   2.569   5.473   5.674 -1.1852 -1.8338  1.7211
 8766TIP3    H247714   2.427   5.430   5.705 -2.2128 -1.7080 -2.2918
 8767TIP3   OH247715   4.823   5.908   2.344  0.8628  0.0063  0.3007
 8767TIP3    H147716   4.787   5.954   2.268 -1.2227 -1.0546  0.5652
 8767TIP3    H247717   4.760   5.926   2.414  2.1518  0.0326  1.4905
 8768TIP3   OH247718   1.893   1.424  17.094 -0.0079 -0.1295 -0.2002
 8768TIP3    H147719   1.929   1.363  17.158 -0.3950  0.4279  0.5697
 8768TIP3    H247720   1.875   1.503  17.144  0.3106  0.5543 -1.1459
 8769TIP3   OH247721   6.683   6.347  11.219  0.1717  0.2131 -0.0146
 8769TIP3    H147722   6.590   6.334  11.203 -0.2061  1.9352  0.6493
 8769TIP3    H247723   6.711   6.264  11.259 -0.9559 -0.4918 -0.6177
 8770TIP3   OH247724   2.299   2.657  13.103  0.1959  0.1944 -0.5620
 8770TIP3    H147725   2.342   2.742  13.110  3.4143 -1.2559 -1.0608
 8770TIP3    H247726   2.298   2.638  13.009  1.0525 -1.0063 -0.3445
 8771TIP3   OH247727   6.210   0.394  16.624  0.7118 -0.1262  0.2354
 8771TIP3    H147728   6.300   0.425  16.630  0.3972  0.5130  3.5898
 8771TIP3    H247729   6.213   0.305  16.661 -0.0207 -0.1239  0.3177
 8772TIP3   OH247730   0.560   3.152   4.509 -0.0996  0.9063 -0.0525
 8772TIP3    H147731   0.598   3.230   4.467 -0.6661  1.1571 -0.1005
 8772TIP3    H247732   0.502   3.115   4.442 -0.1676  0.6880  0.1275
 8773TIP3   OH247733   0.991   0.702   3.916  0.2457 -0.4570 -0.3600
 8773TIP3    H147734   0.922   0.765   3.937  1.9294  1.7718 -1.1634
 8773TIP3    H247735   1.071   0.739   3.955  1.4274 -1.8137 -1.3505
 8774TIP3   OH247736   0.722   3.010  16.075  0.2376  0.7534  0.6471
 8774TIP3    H147737   0.777   3.088  16.080  1.1004  0.0924  2.4287
 8774TIP3    H247738   0.782   2.940  16.049 -0.4484  0.5804 -0.5457
 8775TIP3   OH247739   6.417   2.938  11.958 -0.4097 -0.4020  0.6587
 8775TIP3    H147740   6.442   2.882  11.885 -0.7288 -0.5582  0.6685
 8775TIP3    H247741   6.370   3.011  11.918  0.0142 -0.1332  0.6442
 8776TIP3   OH247742   4.374   6.692   1.982  0.1341 -0.1473  0.1111
 8776TIP3    H147743   4.280   6.677   1.978  0.0557  0.4429 -0.7122
 8776TIP3    H247744   4.386   6.755   2.053 -0.1822  0.3126 -0.2357
 8777TIP3   OH247745   5.634   0.514   1.296  0.3405  0.0820  0.1743
 8777TIP3    H147746   5.689   0.451   1.342  2.1559  1.1439 -0.4280
 8777TIP3    H247747   5.651   0.597   1.341 -1.0114  0.3948  0.1417
 8778TIP3   OH247748   4.446   0.849  13.854 -0.0436 -0.1587  0.1759
 8778TIP3    H147749   4.458   0.898  13.936 -0.2253  0.4471 -0.1476
 8778TIP3    H247750   4.468   0.759  13.876  1.0938  0.2099  0.5875
 8779TIP3   OH247751   4.537   3.579   1.631  0.1568 -0.3899 -0.1868
 8779TIP3    H147752   4.560   3.526   1.708  0.8451  0.7135  0.3960
 8779TIP3    H247753   4.611   3.566   1.571  0.1894 -0.3179 -0.1622
 8780TIP3   OH247754   2.962   3.784   1.367  0.4511 -0.7963  0.3382
 8780TIP3    H147755   2.892   3.760   1.307  0.6313  1.7203 -1.0343
 8780TIP3    H247756   2.916   3.815   1.445 -0.0034  0.2472 -0.3139
 8781TIP3   OH247757   6.585   3.124  15.674 -0.2394 -0.3100 -0.0586
 8781TIP3    H147758   6.589   3.207  15.721 -0.6849 -0.9932  1.2451
 8781TIP3    H247759   6.509   3.079  15.710  0.8891 -1.9404  0.4320
 8782TIP3   OH247760   5.601   3.712   4.501  0.2151 -0.6788  0.5227
 8782TIP3    H147761   5.641   3.799   4.500  1.3246 -1.1150 -2.0622
 8782TIP3    H247762   5.647   3.665   4.570  0.5166  0.3891  1.0718
 8783TIP3   OH247763   0.358   5.180   4.462 -0.4036  0.7501 -0.3262
 8783TIP3    H147764   0.313   5.140   4.536  0.9331  1.2179  0.7719
 8783TIP3    H247765   0.295   5.173   4.390 -0.4109 -2.9964 -0.1580
 8784TIP3   OH247766   6.144   5.880  14.376 -0.1839  0.3426 -0.1679
 8784TIP3    H147767   6.212   5.843  14.433 -2.2337 -1.4970  1.2136
 8784TIP3    H247768   6.125   5.966  14.414 -0.0406  0.0181  0.6655
 8785TIP3   OH247769   6.278   0.792  13.142 -0.3309  0.0500  0.1109
 8785TIP3    H147770   6.256   0.834  13.059  0.6985  1.0843  0.3410
 8785TIP3    H247771   6.194   0.759  13.175 -1.6872  3.9057  1.0216
 8786TIP3   OH247772   2.644   4.745   6.366  0.0920 -0.0893 -0.1338
 8786TIP3    H147773   2.699   4.681   6.412 -0.1608 -1.3697 -1.5633
 8786TIP3    H247774   2.595   4.787   6.436  1.7829  0.0515  1.0461
 8787TIP3   OH247775   0.438   4.299   3.519  0.6170  0.3893 -0.3433
 8787TIP3    H147776   0.468   4.389   3.504 -0.0343  0.6944  0.1410
 8787TIP3    H247777   0.347   4.299   3.490  0.6863 -0.1861 -0.5754
 8788TIP3   OH247778   6.157   1.903   6.295  0.0666 -0.3247 -0.4894
 8788TIP3    H147779   6.248   1.932   6.291  0.3053 -1.0121 -0.2789
 8788TIP3    H247780   6.161   1.810   6.273 -0.3801 -0.7264  1.0186
 8789TIP3   OH247781   3.228   0.229   2.482  0.2701  0.0244 -0.3801
 8789TIP3    H147782   3.135   0.212   2.465  0.5604 -0.1113 -2.0227
 8789TIP3    H247783   3.240   0.322   2.466  0.3827  0.0943  0.0782
 8790TIP3   OH247784   5.947   3.267   1.443 -0.1928 -0.3572  0.2548
 8790TIP3    H147785   6.033   3.228   1.457 -0.8375 -1.5074  1.2208
 8790TIP3    H247786   5.916   3.290   1.531 -1.5236 -1.4835  0.1300
 8791TIP3   OH247787   1.736   3.518  12.052  0.3387 -0.2099  0.1978
 8791TIP3    H147788   1.676   3.499  12.124 -1.9503  0.8700 -1.3066
 8791TIP3    H247789   1.699   3.472  11.977  1.7106  0.0506 -0.6628
 8792TIP3   OH247790   6.465   0.347   2.356 -0.8589  0.2909 -0.8981
 8792TIP3    H147791   6.532   0.286   2.389 -1.9179  0.0038  0.8038
 8792TIP3    H247792   6.515   0.418   2.315  0.4800 -0.0525  0.0908
 8793TIP3   OH247793   4.590   3.900  13.533  0.0323 -0.2587  0.3222
 8793TIP3    H147794   4.586   3.990  13.567  0.1819 -0.8283  1.9603
 8793TIP3    H247795   4.499   3.878  13.514  0.1570  0.7950 -1.7556
 8794TIP3   OH247796   1.435   4.251   4.355  0.2308  0.0024 -0.0233
 8794TIP3    H147797   1.401   4.167   4.326 -2.0246  1.2518 -1.2444
 8794TIP3    H247798   1.530   4.245   4.342 -0.0796 -1.6868 -1.8083
 8795TIP3   OH247799   1.254   5.247   2.477 -0.2884  0.3937  0.2823
 8795TIP3    H147800   1.293   5.307   2.540 -1.5911  0.1803  1.3321
 8795TIP3    H247801   1.241   5.166   2.526 -0.9630  0.0995 -0.3685
 8796TIP3   OH247802   4.658   0.686   3.689  0.3065  0.0606  0.6564
 8796TIP3    H147803   4.644   0.778   3.710 -1.6418  0.2236 -1.0637
 8796TIP3    H247804   4.693   0.687   3.600  1.4290 -0.8430  1.0682
 8797TIP3   OH247805   1.289   5.314   4.336  0.1191  0.0166 -0.2482
 8797TIP3    H147806   1.369   5.294   4.288  0.4412 -1.3348  0.7804
 8797TIP3    H247807   1.310   5.394   4.385  0.5108  0.2126 -0.7304
 8798TIP3   OH247808   5.172   3.832   5.670  0.1304  0.2352  0.1991
 8798TIP3    H147809   5.180   3.848   5.576  3.1019 -0.4844  0.2141
 8798TIP3    H247810   5.154   3.918   5.708 -0.4406  0.6459 -0.9761
 8799TIP3   OH247811   4.876   5.044  13.586  0.1537 -0.1786  0.3699
 8799TIP3    H147812   4.820   5.020  13.660 -0.0582  0.1435  0.3186
 8799TIP3    H247813   4.817   5.088  13.525  0.6377  1.0236  0.7347
 8800TIP3   OH247814   1.545   6.006   3.114  0.0331  0.2097  0.6594
 8800TIP3    H147815   1.516   5.946   3.182  0.3755 -1.0474 -0.2605
 8800TIP3    H247816   1.542   5.955   3.034  0.7329  1.3053 -0.1014
 8801TIP3   OH247817   0.226   3.171   1.310 -0.3919 -0.8512  0.2572
 8801TIP3    H147818   0.256   3.245   1.256 -2.1249  0.3526  0.8871
 8801TIP3    H247819   0.259   3.094   1.263  2.7709  0.2716  0.3548
 8802TIP3   OH247820   0.144   3.943  17.366  0.8860 -0.2314 -0.3010
 8802TIP3    H147821   0.203   3.976  17.434 -1.4048  3.5803  0.1123
 8802TIP3    H247822   0.171   3.987  17.286 -0.1519  0.0441 -0.5207
 8803TIP3   OH247823   1.272   4.804   4.014  0.4163 -0.3545  0.0772
 8803TIP3    H147824   1.226   4.757   3.945  1.9407  0.7797 -1.8338
 8803TIP3    H247825   1.312   4.736   4.068 -1.8755 -1.2987  0.7233
 8804TIP3   OH247826   0.510   3.305  11.950  0.0451  0.1502  0.8278
 8804TIP3    H147827   0.470   3.340  12.030 -1.6203  0.9213 -0.2810
 8804TIP3    H247828   0.436   3.287  11.892  1.1508 -1.2982 -0.2121
 8805TIP3   OH247829   6.629   1.714  11.952 -0.1715 -0.1821 -0.3264
 8805TIP3    H147830   6.576   1.636  11.967 -2.0638  1.2284  0.7531
 8805TIP3    H247831   6.701   1.706  12.015 -0.2821 -1.1003 -0.3045
 8806TIP3   OH247832   6.427   5.053  13.431  0.5338  0.0818  0.1326
 8806TIP3    H147833   6.411   5.014  13.517 -1.5899  1.0538  0.2645
 8806TIP3    H247834   6.500   5.113  13.445 -0.6601  1.2734  1.6803
 8807TIP3   OH247835   6.306   5.795  15.858  0.0065 -0.3023  0.2903
 8807TIP3    H147836   6.277   5.715  15.903  1.1570 -0.1418  1.3577
 8807TIP3    H247837   6.260   5.866  15.902 -0.4873 -0.3140 -0.2012
 8808TIP3   OH247838   2.079   6.255   4.035 -0.0907 -0.3352  0.0658
 8808TIP3    H147839   2.043   6.341   4.059  4.3177  1.5503  0.9697
 8808TIP3    H247840   2.089   6.259   3.940  0.5262  0.4036  0.1505
 8809TIP3   OH247841   2.506   5.887  17.192  0.0728 -0.1876  0.0283
 8809TIP3    H147842   2.594   5.875  17.155  0.4234 -1.6575  1.2226
 8809TIP3    H247843   2.519   5.943  17.268 -0.1695  0.2840 -0.2719
 8810TIP3   OH247844   4.039   0.612   2.600 -0.2252 -0.3610 -0.2442
 8810TIP3    H147845   4.079   0.675   2.661  2.6188 -1.5650 -0.6953
 8810TIP3    H247846   4.016   0.537   2.654 -2.0167  0.3432  0.0190
 8811TIP3   OH247847   4.383   6.205  16.857  0.1277 -0.0557 -0.2237
 8811TIP3    H147848   4.294   6.188  16.886  0.2720 -0.0375  0.2335
 8811TIP3    H247849   4.409   6.285  16.902  0.4498 -0.1800 -0.1782
 8812TIP3   OH247850   5.564   5.893   4.264  0.1649  0.3684 -0.1906
 8812TIP3    H147851   5.609   5.921   4.184 -1.0587 -0.4120 -1.1868
 8812TIP3    H247852   5.501   5.827   4.235 -1.7312  1.4938  1.0930
 8813TIP3   OH247853   4.939   3.343  15.492  0.3030 -0.0878 -0.1691
 8813TIP3    H147854   4.993   3.277  15.535  1.6470 -0.5747 -2.3939
 8813TIP3    H247855   4.849   3.320  15.515  0.9222  0.0598  2.7309
 8814TIP3   OH247856   1.725   5.892   5.055 -0.1429  0.6846  0.2728
 8814TIP3    H147857   1.777   5.845   5.120 -2.1510 -1.5318  0.3898
 8814TIP3    H247858   1.790   5.937   5.001  1.7427  0.0282  1.8451
 8815TIP3   OH247859   3.363   6.018  15.138 -0.4235  0.2109  0.2302
 8815TIP3    H147860   3.324   5.993  15.054 -1.0760 -0.5984  0.7527
 8815TIP3    H247861   3.374   6.113  15.132 -2.5204  0.4904  0.0566
 8816TIP3   OH247862   2.945   0.275   3.311  0.2667  0.0205  0.0189
 8816TIP3    H147863   2.941   0.195   3.259  0.1587 -1.1032  1.6646
 8816TIP3    H247864   2.863   0.321   3.291  0.3426 -0.2549 -0.9648
 8817TIP3   OH247865   4.128   2.432   1.211  0.2241 -0.5518  0.2905
 8817TIP3    H147866   4.138   2.470   1.299 -0.0561  1.5109 -0.5224
 8817TIP3    H247867   4.132   2.337   1.226  0.3462 -0.2584  2.5066
 8818TIP3   OH247868   5.578   4.929  10.650  0.3717 -0.3543  0.1608
 8818TIP3    H147869   5.655   4.923  10.594  1.4573 -1.2730  1.6633
 8818TIP3    H247870   5.614   4.944  10.738 -1.2698  1.2630  0.6122
 8819TIP3   OH247871   5.654   3.947  13.907  0.4299  0.3047 -0.6350
 8819TIP3    H147872   5.697   4.033  13.902 -1.2771  1.4568  2.1861
 8819TIP3    H247873   5.647   3.929  14.000 -1.8331 -1.5536 -1.0727
 8820TIP3   OH247874   0.130   0.182  12.170  0.2779 -0.0523  0.3934
 8820TIP3    H147875   0.035   0.176  12.164  0.0847  1.0988  1.6419
 8820TIP3    H247876   0.146   0.233  12.250  1.8953  1.0233 -0.5442
 8821TIP3   OH247877   0.919   0.004   0.705 -0.0142 -0.4216  0.4234
 8821TIP3    H147878   0.873   0.083   0.680 -0.9038 -1.3643 -1.0598
 8821TIP3    H247879   1.011   0.020   0.681 -0.0167  0.4657  0.9562
 8822TIP3   OH247880   3.211   1.659   5.391  0.0792  0.0464  0.4263
 8822TIP3    H147881   3.117   1.642   5.397  0.1392 -0.1832  0.7383
 8822TIP3    H247882   3.236   1.691   5.478  0.3794 -0.3743  0.5023
 8823TIP3   OH247883   2.685   3.826   1.299  0.7616  0.1049 -0.0658
 8823TIP3    H147884   2.616   3.858   1.358  1.1113  0.3417  0.2182
 8823TIP3    H247885   2.659   3.736   1.279  0.0286  0.4070 -0.4805
 8824TIP3   OH247886   4.678   4.335  14.328 -0.3384 -0.4835 -0.4628
 8824TIP3    H147887   4.672   4.424  14.293 -2.4592  0.2774  1.6337
 8824TIP3    H247888   4.589   4.314  14.356  0.3679 -2.7988  0.2348
 8825TIP3   OH247889   1.723   3.344   5.062  0.4535  0.7813 -0.0909
 8825TIP3    H147890   1.787   3.375   4.998  0.8236 -1.3543 -0.8504
 8825TIP3    H247891   1.776   3.315   5.136  0.3769 -0.5649 -0.5341
 8826TIP3   OH247892   2.146   6.669  15.955  0.1888 -0.0965  0.4321
 8826TIP3    H147893   2.078   6.649  16.019 -0.6236  0.9290 -0.0957
 8826TIP3    H247894   2.158   6.588  15.906 -1.5299  0.0509 -0.2824
 8827TIP3   OH247895   1.588   4.784  13.743 -0.1816  0.2385  0.1956
 8827TIP3    H147896   1.669   4.783  13.692 -0.3325  2.3609 -0.1737
 8827TIP3    H247897   1.596   4.709  13.803  2.3482  0.7530  0.6127
 8828TIP3   OH247898   2.726   1.787  16.028 -1.0972 -0.1753  0.2580
 8828TIP3    H147899   2.724   1.788  16.123 -0.6462  0.4136  0.2668
 8828TIP3    H247900   2.663   1.720  16.003  0.6978 -2.2455  1.0074
 8829TIP3   OH247901   3.268   3.091   3.353 -0.4008  0.7466 -0.1849
 8829TIP3    H147902   3.335   3.023   3.346 -1.4807 -0.8140  2.6962
 8829TIP3    H247903   3.316   3.174   3.349  1.4712 -0.2783 -0.0412
 8830TIP3   OH247904   4.047   5.672   1.028 -0.2208 -0.0695 -0.3516
 8830TIP3    H147905   4.072   5.752   0.980  2.8551 -0.1349  0.9250
 8830TIP3    H247906   4.094   5.602   0.983 -0.4748 -0.7161  0.3748
 8831TIP3   OH247907   3.547   6.597  12.694 -0.0459  0.0036 -0.7500
 8831TIP3    H147908   3.570   6.564  12.607  0.2864  0.1485 -0.7224
 8831TIP3    H247909   3.524   6.519  12.744 -0.6756 -0.0338 -1.0955
 8832TIP3   OH247910   0.877   2.558   1.678  0.2581 -0.4157 -0.5963
 8832TIP3    H147911   0.962   2.590   1.708  0.2215 -0.6467 -0.2512
 8832TIP3    H247912   0.886   2.463   1.674 -0.2857 -0.5189  0.3829
 8833TIP3   OH247913   6.447   1.875   2.384  0.1753  0.9582 -0.5967
 8833TIP3    H147914   6.415   1.947   2.438  0.7068 -0.0903  1.1674
 8833TIP3    H247915   6.513   1.916   2.327  0.4415  1.8892  0.3448
 8834TIP3   OH247916   3.696   1.616  10.890 -0.3063 -0.0600  0.1410
 8834TIP3    H147917   3.643   1.652  10.819  1.3817 -0.3180 -1.3396
 8834TIP3    H247918   3.786   1.627  10.860  0.4145 -1.5238  1.6124
 8835TIP3   OH247919   2.341   0.861   4.978  0.4982  0.1807 -0.0968
 8835TIP3    H147920   2.406   0.906   4.922  1.3691 -1.0806 -0.1360
 8835TIP3    H247921   2.318   0.926   5.044 -0.2449  1.5724 -1.6649
 8836TIP3   OH247922   1.367   6.652  13.710 -0.2857  0.5030 -0.3915
 8836TIP3    H147923   1.387   6.745  13.720  0.5251  0.3223 -0.2109
 8836TIP3    H247924   1.442   6.607  13.749 -0.8578 -0.2290 -0.1028
 8837TIP3   OH247925   5.231   4.567  14.782 -0.1988  0.0569 -0.4253
 8837TIP3    H147926   5.311   4.515  14.773  1.1522  0.7071  4.7012
 8837TIP3    H247927   5.260   4.657  14.772 -0.3097  0.2729  0.9928
 8838TIP3   OH247928   4.501   5.651   2.364  0.1934 -0.9035  0.3130
 8838TIP3    H147929   4.479   5.732   2.318  1.5581 -0.8510 -0.3034
 8838TIP3    H247930   4.418   5.621   2.402 -0.2043  1.1419  1.1525
 8839TIP3   OH247931   4.849   6.716   1.734  0.1767 -0.2934 -0.0255
 8839TIP3    H147932   4.823   6.676   1.650  1.8012  0.3233 -0.8608
 8839TIP3    H247933   4.942   6.696   1.742  0.9612  2.8271 -0.2317
 8840TIP3   OH247934   3.614   3.255   4.583  0.1204 -0.3168 -0.2751
 8840TIP3    H147935   3.623   3.291   4.671  0.6535 -2.4790  0.6337
 8840TIP3    H247936   3.654   3.168   4.589 -0.5010 -0.8173 -2.4733
 8841TIP3   OH247937   3.905   5.155  12.200 -0.0104  0.6298  0.0895
 8841TIP3    H147938   3.976   5.124  12.257 -0.0288 -0.7383 -0.5924
 8841TIP3    H247939   3.838   5.088  12.207 -0.3469  0.8507 -0.9334
 8842TIP3   OH247940   0.825   5.704  12.920 -0.0570  0.3025  0.7317
 8842TIP3    H147941   0.845   5.784  12.871  1.5904  0.3249  1.3782
 8842TIP3    H247942   0.864   5.633  12.868 -2.7929 -0.3269 -0.6167
 8843TIP3   OH247943   3.105   6.204   1.139 -0.0686 -0.4098  0.0517
 8843TIP3    H147944   3.105   6.165   1.226  0.0380  1.5738  1.0014
 8843TIP3    H247945   3.179   6.264   1.140 -1.0274  0.8467 -0.8169
 8844TIP3   OH247946   3.318   0.385  14.911 -0.0409  0.4329 -0.2490
 8844TIP3    H147947   3.394   0.405  14.966 -0.2834  0.7191 -0.0187
 8844TIP3    H247948   3.323   0.447  14.839  0.5537 -0.2621 -0.8242
 8845TIP3   OH247949   0.529   0.939  11.825 -0.2887  0.5869 -0.3551
 8845TIP3    H147950   0.606   0.909  11.872 -0.5063 -0.4351 -0.6224
 8845TIP3    H247951   0.563   0.980  11.746 -0.0450 -2.9970 -2.2804
 8846TIP3   OH247952   4.215   5.265   3.529  0.4968  0.4587  0.4244
 8846TIP3    H147953   4.163   5.185   3.526 -0.3848  0.9598  1.4409
 8846TIP3    H247954   4.229   5.288   3.437 -0.5792 -0.0260  0.1150
 8847TIP3   OH247955   6.520   0.816  13.307 -0.5101 -0.3009 -0.2639
 8847TIP3    H147956   6.587   0.873  13.270 -0.4065  0.2925  0.8081
 8847TIP3    H247957   6.463   0.795  13.233  1.3101 -1.5209 -1.4119
 8848TIP3   OH247958   3.784   5.622  14.716  0.2942  0.3575 -0.1956
 8848TIP3    H147959   3.805   5.669  14.797  1.3916 -1.3162  0.5546
 8848TIP3    H247960   3.816   5.679  14.646  1.7365  0.6851  0.6777
 8849TIP3   OH247961   3.573   2.369   4.915  0.0826  0.6867  0.6229
 8849TIP3    H147962   3.638   2.347   4.849 -0.6463  0.8065 -0.1493
 8849TIP3    H247963   3.558   2.287   4.962 -1.9712 -0.3783 -1.6635
 8850TIP3   OH247964   3.047   4.268  14.461  0.0351  0.5716 -0.2365
 8850TIP3    H147965   3.140   4.254  14.443  0.0712  0.6489 -0.1072
 8850TIP3    H247966   3.034   4.235  14.550 -0.2750 -0.3983 -0.6207
 8851TIP3   OH247967   2.772   2.045   3.607  0.2630  0.3118  0.4852
 8851TIP3    H147968   2.756   2.033   3.513 -0.2437  0.3189  0.5689
 8851TIP3    H247969   2.786   2.139   3.617  2.1541  0.1057  0.1462
 8852TIP3   OH247970   2.463   3.038  17.521  0.4392  0.5142  0.6886
 8852TIP3    H147971   2.444   3.029  17.428  2.8111 -1.1868  0.2747
 8852TIP3    H247972   2.547   3.084  17.524  1.4789 -1.3410  1.8271
 8853TIP3   OH247973   0.269   4.117   0.772  0.4739 -0.2584  0.1271
 8853TIP3    H147974   0.316   4.115   0.689  0.7547 -1.8756  0.2835
 8853TIP3    H247975   0.185   4.074   0.753  0.0871  0.3573  0.4244
 8854TIP3   OH247976   1.231   2.598  17.491 -0.4160 -0.4711  0.5852
 8854TIP3    H147977   1.233   2.602  17.586 -0.4730 -1.8383  0.6617
 8854TIP3    H247978   1.139   2.611  17.467 -0.1192  2.0550  0.5544
 8855TIP3   OH247979   4.543   0.344  17.129 -0.2062 -0.4069  0.1700
 8855TIP3    H147980   4.550   0.282  17.201 -0.6779 -0.0670  0.5210
 8855TIP3    H247981   4.631   0.351  17.093 -0.4445 -2.5734 -0.9832
 8856TIP3   OH247982   5.735   3.370  12.016 -0.4159 -0.3249  0.7395
 8856TIP3    H147983   5.827   3.351  11.996 -0.4074 -1.2955  1.6021
 8856TIP3    H247984   5.732   3.465  12.025  0.0318 -0.0404 -1.5003
 8857TIP3   OH247985   5.769   3.664  14.064  0.0766  0.2595  0.3166
 8857TIP3    H147986   5.823   3.655  13.985  0.0319 -0.9829  0.4148
 8857TIP3    H247987   5.824   3.631  14.135 -0.6548 -0.6908  0.4694
 8858TIP3   OH247988   2.499   3.971   6.427  0.1269 -0.0247  0.6111
 8858TIP3    H147989   2.410   3.995   6.403 -0.4400 -0.8762  1.7670
 8858TIP3    H247990   2.490   3.926   6.511  1.7275  0.5212  1.1046
 8859TIP3   OH247991   3.071   2.276  16.516  0.0785 -0.3384  0.6423
 8859TIP3    H147992   3.032   2.234  16.592  1.1009  1.7507  2.4552
 8859TIP3    H247993   3.027   2.361  16.510  2.7450  1.2474  1.5385
 8860TIP3   OH247994   5.355   0.626   0.049 -0.0187  0.1284  0.5622
 8860TIP3    H147995   5.420   0.571   0.006  0.0669  0.3386  0.4197
 8860TIP3    H247996   5.304   0.664  -0.023 -1.0490 -0.9360  0.7102
 8861TIP3   OH247997   1.573   5.591   4.400 -0.2387  0.0534  0.3743
 8861TIP3    H147998   1.486   5.592   4.440 -0.2541 -1.0353  0.3888
 8861TIP3    H247999   1.567   5.526   4.331  0.0140  1.3790 -0.9456
 8862TIP3   OH248000   0.884   0.346   4.843 -0.0000 -0.2749 -0.2900
 8862TIP3    H148001   0.904   0.418   4.903 -0.3173  0.8083 -1.4330
 8862TIP3    H248002   0.800   0.312   4.872  0.9473 -1.3732  1.3167
 8863TIP3   OH248003   1.934   0.598   2.295 -0.3396  0.1837 -0.3773
 8863TIP3    H148004   1.985   0.665   2.250 -1.4327  1.8431  0.7276
 8863TIP3    H248005   1.957   0.516   2.251  0.9874  1.2804 -1.8321
 8864TIP3   OH248006   1.386   2.546   2.502 -0.4970  0.2565 -0.2308
 8864TIP3    H148007   1.384   2.548   2.598  1.4534  0.6739 -0.1551
 8864TIP3    H248008   1.390   2.639   2.477  0.3341  0.1156 -0.6481
 8865TIP3   OH248009   0.412   2.092   4.759 -0.5877 -0.1082 -0.6370
 8865TIP3    H148010   0.385   2.092   4.851  2.4285  0.4007  0.3595
 8865TIP3    H248011   0.426   2.184   4.738  3.3418 -0.3696  0.0480
 8866TIP3   OH248012   2.536   4.160   2.900 -0.1297  0.6852 -0.4160
 8866TIP3    H148013   2.556   4.189   2.811 -0.9913  2.0764 -0.1742
 8866TIP3    H248014   2.576   4.225   2.957 -0.9389  0.6808  0.1763
 8867TIP3   OH248015   4.590   6.412   2.986  0.1539 -0.0533  0.4467
 8867TIP3    H148016   4.591   6.442   3.077  0.2417 -0.0749  0.4529
 8867TIP3    H248017   4.551   6.324   2.990  1.3258 -0.5800  0.6245
 8868TIP3   OH248018   5.339   6.414   0.567  0.1442 -0.1982  0.1925
 8868TIP3    H148019   5.358   6.500   0.605  0.7443 -0.2777  0.0822
 8868TIP3    H248020   5.373   6.351   0.632  1.4876 -0.3352 -0.5942
 8869TIP3   OH248021   2.323   6.479   0.025  0.2899  0.0358 -0.0667
 8869TIP3    H148022   2.228   6.474   0.010  0.2577  0.7276 -0.1611
 8869TIP3    H248023   2.362   6.432  -0.049  0.0324  0.3364 -0.3996
 8870TIP3   OH248024   3.971   0.657  12.231 -0.0830 -0.0915 -0.4663
 8870TIP3    H148025   3.959   0.670  12.136 -0.2023 -0.0917 -0.4512
 8870TIP3    H248026   4.065   0.644  12.241  0.0936  1.1160 -0.4443
 8871TIP3   OH248027   3.981   2.349   0.540 -0.5557  0.0864 -0.4953
 8871TIP3    H148028   3.929   2.371   0.463 -0.9502  2.5429  0.3742
 8871TIP3    H248029   4.065   2.391   0.525  0.3760 -1.7935 -0.7929
 8872TIP3   OH248030   1.900   5.112  14.873 -0.2231 -0.2041  0.2026
 8872TIP3    H148031   1.824   5.109  14.932 -0.4938 -0.1473 -0.1392
 8872TIP3    H248032   1.912   5.204  14.853  0.4041 -0.1367  0.8428
 8873TIP3   OH248033   3.695   5.002   3.303  0.7383 -0.2815  0.3291
 8873TIP3    H148034   3.679   4.934   3.368  1.7132  0.3012  1.2025
 8873TIP3    H248035   3.611   5.046   3.292  0.6289 -0.1860  1.4439
 8874TIP3   OH248036   6.599   0.770   1.672 -0.3653 -0.1133  0.1413
 8874TIP3    H148037   6.512   0.771   1.633 -0.6423 -0.7082  0.7154
 8874TIP3    H248038   6.607   0.854   1.717  0.6108  1.3343 -2.5061
 8875TIP3   OH248039   1.517   3.081  13.853 -0.0651 -0.3600  0.5215
 8875TIP3    H148040   1.527   2.990  13.880 -0.2463 -0.3363  0.6712
 8875TIP3    H248041   1.493   3.128  13.933  0.7731 -0.0471  0.5907
 8876TIP3   OH248042   2.429   6.445  17.070  0.5754  0.3733  0.3800
 8876TIP3    H148043   2.516   6.410  17.087  0.3612  0.3541  1.4967
 8876TIP3    H248044   2.432   6.536  17.099 -0.3212 -0.1705  2.3629
 8877TIP3   OH248045   1.512   1.272  14.626  0.7491  0.2955  0.0869
 8877TIP3    H148046   1.433   1.295  14.676  2.0018  1.1217  1.7543
 8877TIP3    H248047   1.478   1.249  14.539 -1.2068  2.0273  0.3011
 8878TIP3   OH248048   3.140   2.261  12.521 -0.0206 -0.4754  0.3133
 8878TIP3    H148049   3.165   2.185  12.468 -2.3607 -0.0661 -1.5620
 8878TIP3    H248050   3.219   2.315  12.525  1.2641 -2.2728  0.4425
 8879TIP3   OH248051   0.147   1.933  15.837 -0.0771 -0.4309  0.0859
 8879TIP3    H148052   0.197   1.857  15.866 -0.3886 -0.7854 -0.2793
 8879TIP3    H248053   0.144   1.991  15.913  1.6029 -0.0104 -0.1349
 8880TIP3   OH248054   2.823   3.769  15.834  0.0329  1.0873 -0.3108
 8880TIP3    H148055   2.756   3.709  15.868 -0.0517  1.4420  0.1535
 8880TIP3    H248056   2.859   3.724  15.758 -0.5188  0.7560 -0.3772
 8881TIP3   OH248057   1.141   0.494   0.459  0.0993 -0.3113  0.6217
 8881TIP3    H148058   1.144   0.446   0.541  1.5660 -2.1564 -0.4239
 8881TIP3    H248059   1.232   0.495   0.429 -0.3843  0.4053 -0.9329
 8882TIP3   OH248060   2.988   4.726   4.655 -0.1222  0.5593 -0.1429
 8882TIP3    H148061   2.906   4.754   4.615  0.2126 -1.4153 -2.4576
 8882TIP3    H248062   2.975   4.632   4.671  2.0663 -0.0993 -1.7953
 8883TIP3   OH248063   0.781   0.153   3.269 -0.2001  0.0621 -0.6309
 8883TIP3    H148064   0.794   0.108   3.353  0.1428  0.5009 -0.4447
 8883TIP3    H248065   0.848   0.221   3.268 -0.0701 -0.0681 -1.3510
 8884TIP3   OH248066   3.540   0.692  11.750  0.2590 -0.2070  0.2716
 8884TIP3    H148067   3.486   0.759  11.792  0.4275  0.2570 -0.2346
 8884TIP3    H248068   3.478   0.625  11.721 -0.2244  0.8819 -1.3689
 8885TIP3   OH248069   6.411   2.293  14.389 -0.4216  0.3855  0.0009
 8885TIP3    H148070   6.326   2.249  14.382 -1.0961  1.4666  1.0638
 8885TIP3    H248071   6.475   2.223  14.377 -1.4671 -0.8125  1.0785
 8886TIP3   OH248072   5.206   0.694  15.324 -0.6107 -0.2238 -0.2931
 8886TIP3    H148073   5.115   0.718  15.307 -1.5773 -2.4700  1.3533
 8886TIP3    H248074   5.236   0.757  15.390 -1.5168 -0.4789  0.3767
 8887TIP3   OH248075   5.212   2.811   7.125  0.6576 -0.1442 -0.8396
 8887TIP3    H148076   5.141   2.750   7.108  2.0394 -2.6623  1.5508
 8887TIP3    H248077   5.288   2.774   7.079  1.7451 -0.9216  1.4017
 8888TIP3   OH248078   1.974   3.813  10.620 -0.2320  0.0479  0.3731
 8888TIP3    H148079   1.904   3.844  10.562 -1.8439 -1.0518  1.6446
 8888TIP3    H248080   2.028   3.757  10.564 -1.7769 -1.0266 -0.1065
 8889TIP3   OH248081   6.458   4.221  14.330 -0.0508  0.1434 -0.3973
 8889TIP3    H148082   6.458   4.171  14.248 -0.2717 -1.9858  0.8221
 8889TIP3    H248083   6.530   4.183  14.381 -0.3452  0.9553  0.6650
 8890TIP3   OH248084   5.851   0.373   0.206 -0.4272 -0.0116  0.3222
 8890TIP3    H148085   5.900   0.452   0.182  1.1405 -0.6537  1.2680
 8890TIP3    H248086   5.849   0.374   0.302 -0.1016 -1.2924  0.3541
 8891TIP3   OH248087   1.608   4.635  12.249 -0.2737  0.1617 -0.1474
 8891TIP3    H148088   1.638   4.564  12.193 -0.3457  0.1190 -0.1313
 8891TIP3    H248089   1.676   4.642  12.317  0.8209  1.5010 -1.3139
 8892TIP3   OH248090   1.044   6.068  11.769 -0.3508  0.3132  0.4510
 8892TIP3    H148091   1.095   5.992  11.799  1.3193  1.2486  0.1256
 8892TIP3    H248092   0.955   6.035  11.760 -0.1261 -1.0519  2.4562
 8893TIP3   OH248093   4.919   0.832  16.952  0.0417 -0.6505  0.1897
 8893TIP3    H148094   4.933   0.859  17.043  0.5712 -1.4337  0.3463
 8893TIP3    H248095   4.932   0.913  16.902 -0.3375 -0.1912  0.8017
 8894TIP3   OH248096   0.906   1.674   4.127 -0.6167 -0.2241  0.1047
 8894TIP3    H148097   0.828   1.710   4.170 -1.1700 -0.2916 -0.8178
 8894TIP3    H248098   0.960   1.750   4.107 -1.9799  0.2454 -2.2333
 8895TIP3   OH248099   2.967   1.844   2.792  0.0109 -0.4013 -0.4515
 8895TIP3    H148100   2.957   1.889   2.876  1.6890 -0.4617 -0.1784
 8895TIP3    H248101   2.878   1.834   2.759 -0.5603  1.0976  0.5412
 8896TIP3   OH248102   5.291   5.725   5.185 -0.5110 -0.7183  0.4107
 8896TIP3    H148103   5.274   5.818   5.198 -0.9055 -0.7684  0.2542
 8896TIP3    H248104   5.386   5.716   5.195 -0.4316 -0.2425  0.0803
 8897TIP3   OH248105   3.333   0.401   5.784  0.3944 -0.2363 -0.4152
 8897TIP3    H148106   3.240   0.381   5.795  0.4182 -0.6305 -0.8659
 8897TIP3    H248107   3.372   0.318   5.755  0.9302 -0.1410  0.0151
 8898TIP3   OH248108   1.228   0.920   6.310  0.0062  0.2885 -0.0312
 8898TIP3    H148109   1.141   0.962   6.310 -0.3667 -0.4589 -0.8251
 8898TIP3    H248110   1.250   0.912   6.402  0.4879  3.0025  0.1888
 8899TIP3   OH248111   4.880   5.752  11.341 -0.2036  0.2790 -0.2912
 8899TIP3    H148112   4.918   5.667  11.319  0.4054  0.5615 -0.3353
 8899TIP3    H248113   4.841   5.783  11.259 -0.0347  0.2463 -0.3835
 8900TIP3   OH248114   4.160   4.909  15.369 -0.5450 -0.4340 -0.1988
 8900TIP3    H148115   4.172   4.899  15.274 -0.9231 -1.1022 -0.1844
 8900TIP3    H248116   4.213   4.838  15.406  0.8683  0.7819  0.1690
 8901TIP3   OH248117   3.667   3.604  15.070  0.2796  0.5347 -0.7312
 8901TIP3    H148118   3.576   3.614  15.098  0.7122  1.8394  0.3268
 8901TIP3    H248119   3.716   3.591  15.151  1.2258  1.4939 -1.1168
 8902TIP3   OH248120   3.922   6.071   6.212  0.3607 -0.7751  0.8875
 8902TIP3    H148121   3.878   5.998   6.168 -1.3141  0.7617 -0.1178
 8902TIP3    H248122   4.003   6.083   6.163 -1.4345  0.8724 -1.9289
 8903TIP3   OH248123   0.624   0.963   1.756 -0.0845  0.4971 -0.2728
 8903TIP3    H148124   0.584   0.935   1.674 -1.8793  1.6639  0.1311
 8903TIP3    H248125   0.704   1.009   1.730  1.1702 -2.0192 -1.1096
 8904TIP3   OH248126   3.003   2.391  16.133  0.0752 -0.2771 -0.6941
 8904TIP3    H148127   2.968   2.422  16.216  0.9345  1.7565 -1.0286
 8904TIP3    H248128   3.019   2.298  16.147  1.5441  0.2739  1.9341
 8905TIP3   OH248129   5.918   3.257  14.535 -0.8636 -0.3330  0.7230
 8905TIP3    H148130   5.836   3.250  14.486 -1.4927 -0.4599  1.7556
 8905TIP3    H248131   5.891   3.252  14.627  0.1404  1.2580  1.1418
 8906TIP3   OH248132   3.927   3.485  15.645 -0.0055 -0.5052 -0.2749
 8906TIP3    H148133   3.925   3.389  15.644  0.9170 -0.5784  1.4425
 8906TIP3    H248134   3.835   3.510  15.653 -0.3367 -1.2085 -1.6627
 8907TIP3   OH248135   5.423   6.664   2.410 -0.1357  0.6049  0.5499
 8907TIP3    H148136   5.418   6.639   2.318 -2.4981 -0.1738  0.8282
 8907TIP3    H248137   5.445   6.582   2.455 -1.9543  0.2643  0.9030
 8908TIP3   OH248138   1.979   1.310  11.877 -0.0206 -0.0892 -0.2651
 8908TIP3    H148139   2.040   1.244  11.843 -1.1355 -1.6824  0.6741
 8908TIP3    H248140   1.907   1.259  11.913 -1.9577  1.7124 -1.3500
 8909TIP3   OH248141   0.936   4.455  13.753 -0.5063  0.0198 -0.0463
 8909TIP3    H148142   0.969   4.399  13.823 -1.2920 -1.9804 -1.2142
 8909TIP3    H248143   0.844   4.431  13.744 -1.1007  2.0684 -0.1092
 8910TIP3   OH248144   1.790   1.793  12.292 -0.1583  0.1316  0.3364
 8910TIP3    H148145   1.867   1.832  12.251 -0.6189 -0.3557 -1.0579
 8910TIP3    H248146   1.766   1.853  12.362  2.5870 -0.6156  2.0712
 8911TIP3   OH248147   1.009   0.428   3.980 -0.1201  0.3757 -0.2115
 8911TIP3    H148148   1.063   0.392   3.908 -1.0152 -0.0524 -0.6857
 8911TIP3    H248149   1.026   0.522   3.978 -0.1172  0.3667 -0.9798
 8912TIP3   OH248150   4.367   0.878  14.693 -0.1692 -0.3222 -0.4511
 8912TIP3    H148151   4.295   0.825  14.659  0.1187 -1.0960  0.1039
 8912TIP3    H248152   4.446   0.827  14.671  0.0943 -0.2702  0.3396
 8913TIP3   OH248153   3.608   2.249  15.102  0.3633 -0.4488 -0.7493
 8913TIP3    H148154   3.636   2.226  15.013  0.9432  0.3486 -0.7837
 8913TIP3    H248155   3.685   2.235  15.156  0.0776 -0.7058 -0.4022
 8914TIP3   OH248156   2.360   4.384  11.558  0.2311  0.4521 -0.2319
 8914TIP3    H148157   2.385   4.382  11.466  0.2363  0.6959 -0.2365
 8914TIP3    H248158   2.431   4.337  11.603  0.8714  1.4188 -0.2074
 8915TIP3   OH248159   4.540   2.983   6.098  0.4567 -0.6377 -0.3677
 8915TIP3    H148160   4.507   3.071   6.081 -0.2467 -0.4743  1.5613
 8915TIP3    H248161   4.579   2.955   6.015  0.4266  1.3537 -1.1012
 8916TIP3   OH248162   3.364   3.606   5.161  0.1904 -0.4566  0.3963
 8916TIP3    H148163   3.431   3.603   5.092 -1.0181  0.1814 -0.8731
 8916TIP3    H248164   3.335   3.516   5.170 -0.0694 -0.4630 -0.3953
 8917TIP3   OH248165   1.894   5.523   4.446 -0.3576  0.0071 -0.2619
 8917TIP3    H148166   1.812   5.549   4.487  0.8538 -1.8479  3.9121
 8917TIP3    H248167   1.952   5.599   4.456 -0.7754  0.4119 -0.8575
 8918TIP3   OH248168   2.470   6.526   2.142 -0.0462  0.2315 -0.0463
 8918TIP3    H148169   2.395   6.469   2.158  1.0815 -1.9502 -1.8562
 8918TIP3    H248170   2.511   6.536   2.228 -0.6851 -1.1422  0.4520
 8919TIP3   OH248171   2.758   3.234   3.299 -0.0618 -0.0839  0.1061
 8919TIP3    H148172   2.744   3.147   3.261 -1.1441  0.1500 -0.0638
 8919TIP3    H248173   2.851   3.235   3.322  0.3576 -0.6868 -1.4078
 8920TIP3   OH248174   0.203   3.110   0.721 -0.3030  0.2436 -0.0058
 8920TIP3    H148175   0.200   3.158   0.803  0.3274 -1.8977  1.3614
 8920TIP3    H248176   0.117   3.068   0.715  0.3918 -1.3937  0.7787
 8921TIP3   OH248177   2.178   5.141   5.601  0.2467 -0.5873 -0.0133
 8921TIP3    H148178   2.170   5.156   5.506 -1.0947 -0.7549  0.0597
 8921TIP3    H248179   2.264   5.176   5.623 -0.9425  3.0772 -0.6034
 8922TIP3   OH248180   5.659   3.138  15.773  0.6211 -0.1144 -0.0305
 8922TIP3    H148181   5.616   3.088  15.703  1.2212  0.1771 -0.6099
 8922TIP3    H248182   5.670   3.226  15.737 -0.5942  0.5141  1.0546
 8923TIP3   OH248183   6.373   2.547   4.943  0.2557 -0.2487 -0.2931
 8923TIP3    H148184   6.410   2.585   4.863  1.7963 -0.1669  0.4183
 8923TIP3    H248185   6.351   2.457   4.919  0.7188 -0.2305 -0.7971
 8924TIP3   OH248186   4.191   6.066  12.578 -0.2248  0.3153 -0.2615
 8924TIP3    H148187   4.140   6.117  12.640  1.0130  1.0713  0.1749
 8924TIP3    H248188   4.215   6.129  12.510  1.3597  0.3589  0.3038
 8925TIP3   OH248189   2.700   5.808  11.907 -0.2680 -0.7495 -0.1068
 8925TIP3    H148190   2.782   5.758  11.899  0.2494  0.0815 -0.0843
 8925TIP3    H248191   2.721   5.894  11.873 -0.0846  0.6251  3.1335
 8926TIP3   OH248192   4.957   3.897   2.024  0.2054  0.2113  0.5537
 8926TIP3    H148193   4.914   3.916   1.941 -0.0485  0.1217  0.6638
 8926TIP3    H248194   4.921   3.962   2.084 -1.5302 -1.2839  1.2214
 8927TIP3   OH248195   6.348   0.837   1.544  0.2536  0.8822 -0.1001
 8927TIP3    H148196   6.375   0.928   1.535 -3.3461  2.0829 -0.5037
 8927TIP3    H248197   6.324   0.810   1.456  0.9960 -0.4149  0.0678
 8928TIP3   OH248198   3.990   5.139  12.810 -0.3859 -0.1422 -0.1462
 8928TIP3    H148199   3.902   5.116  12.780 -0.8551  0.3973  0.7855
 8928TIP3    H248200   4.017   5.066  12.865 -0.0056 -0.5720 -0.8792
 8929TIP3   OH248201   4.884   4.027  12.609 -0.1691 -0.3556 -0.1387
 8929TIP3    H148202   4.924   4.024  12.696 -1.1413 -0.0851  0.3317
 8929TIP3    H248203   4.887   3.936  12.579 -0.7969 -0.6493  0.6442
 8930TIP3   OH248204   3.025   5.762  16.890 -0.7391  0.2815 -0.0951
 8930TIP3    H148205   2.977   5.681  16.878  1.8862 -1.1552 -1.8831
 8930TIP3    H248206   3.054   5.787  16.802 -1.2334  3.0574  0.4359
 8931TIP3   OH248207   0.442   0.716  13.539 -0.0256 -0.7586  0.2754
 8931TIP3    H148208   0.455   0.787  13.602  1.3170 -0.6654 -0.0657
 8931TIP3    H248209   0.438   0.760  13.454  0.1713 -1.0368  0.1207
 8932TIP3   OH248210   3.952   4.930  17.275  0.2704  0.0448 -0.1529
 8932TIP3    H148211   3.942   4.971  17.189  0.4769 -1.1976 -0.8089
 8932TIP3    H248212   3.891   4.976  17.332  0.0150  0.7894 -1.0116
 8933TIP3   OH248213   0.046   0.832  14.793  0.0360 -0.2628 -0.0115
 8933TIP3    H148214   0.007   0.899  14.736 -0.4002  0.5674  1.2326
 8933TIP3    H248215  -0.028   0.776  14.818 -0.1516  0.5731  1.3486
 8934TIP3   OH248216   5.508   0.685   4.714  0.3242  0.1805 -0.5814
 8934TIP3    H148217   5.507   0.613   4.777  1.3632  0.2106 -0.5247
 8934TIP3    H248218   5.503   0.764   4.767  1.8166  0.2267 -0.4859
 8935TIP3   OH248219   0.844   5.997  12.681 -0.3698  0.2190 -0.3637
 8935TIP3    H148220   0.898   5.920  12.700 -2.7332 -1.4237  0.1670
 8935TIP3    H248221   0.874   6.063  12.745  1.4855 -0.3162 -0.6118
 8936TIP3   OH248222   6.141   5.036   3.997 -0.4544  0.0503 -0.2901
 8936TIP3    H148223   6.160   5.127   4.019 -0.4649  0.2146 -0.9263
 8936TIP3    H248224   6.166   5.029   3.905  1.0711 -1.0159  0.1667
 8937TIP3   OH248225   6.525   6.604   6.177 -0.5380 -0.0841 -0.1097
 8937TIP3    H148226   6.584   6.534   6.148  0.9551  1.1855 -0.2449
 8937TIP3    H248227   6.455   6.558   6.223  1.5205 -1.5815  1.7623
 8938TIP3   OH248228   6.096   2.138  13.076  0.1529 -0.4558  0.0587
 8938TIP3    H148229   6.008   2.150  13.112  0.4910 -2.0541  1.5724
 8938TIP3    H248230   6.153   2.135  13.152  1.7532  1.8256 -0.9587
 8939TIP3   OH248231   6.500   1.331  13.991 -0.5300 -0.0421 -0.2355
 8939TIP3    H148232   6.569   1.330  14.057 -0.6856 -0.3561 -0.0741
 8939TIP3    H248233   6.478   1.239  13.978 -0.5598  0.0244 -0.6654
 8940TIP3   OH248234   6.608   4.808   0.864  0.7055  0.0122  0.1515
 8940TIP3    H148235   6.534   4.806   0.924  1.7057  1.8970  1.5563
 8940TIP3    H248236   6.570   4.828   0.779 -0.6054 -1.3389  0.3876
 8941TIP3   OH248237   2.035   3.692   5.304 -0.6167  0.0739  0.0026
 8941TIP3    H148238   1.954   3.661   5.345 -1.1947  2.0094  0.4255
 8941TIP3    H248239   2.096   3.703   5.377  0.1195 -1.5455 -0.3360
 8942TIP3   OH248240   4.202   3.750   5.951  0.2320 -0.2865 -0.4474
 8942TIP3    H148241   4.173   3.720   5.864 -2.3873  3.1392 -0.9822
 8942TIP3    H248242   4.120   3.764   5.999  1.1717  3.7919  0.3148
 8943TIP3   OH248243   4.417   4.322   6.527  0.5449  0.2168 -0.0514
 8943TIP3    H148244   4.361   4.387   6.572  0.8729  0.7126 -0.3502
 8943TIP3    H248245   4.442   4.365   6.446 -1.4268 -1.3085 -1.5624
 8944TIP3   OH248246   4.529   0.712  12.675 -0.2262  0.4954  0.3989
 8944TIP3    H148247   4.469   0.760  12.732  1.3790  3.1435  0.0389
 8944TIP3    H248248   4.501   0.735  12.586  0.3611  0.4825  0.2100
 8945TIP3   OH248249   4.663   1.882  16.150  0.1290  0.1248 -0.2180
 8945TIP3    H148250   4.663   1.926  16.235 -0.9131 -2.3535  1.1946
 8945TIP3    H248251   4.753   1.852  16.138  0.1580 -0.0240  0.3409
 8946TIP3   OH248252   6.415   6.341   2.528  0.0856  0.2489 -0.2009
 8946TIP3    H148253   6.369   6.398   2.590  1.0162 -0.0384  0.7765
 8946TIP3    H248254   6.348   6.315   2.465 -0.4765  2.0436 -0.4080
 8947TIP3   OH248255   4.035   0.022  15.597  1.0808  0.5051 -0.1830
 8947TIP3    H148256   3.984  -0.027  15.662 -0.7275  2.6250  0.0886
 8947TIP3    H248257   4.001  -0.007  15.513 -0.2213  1.4725 -0.0150
 8948TIP3   OH248258   2.195   2.253   0.880 -0.2779  0.0584  0.4757
 8948TIP3    H148259   2.267   2.210   0.834 -0.1879  0.4636  0.2331
 8948TIP3    H248260   2.237   2.305   0.948 -0.2837  0.8330 -0.0980
 8949TIP3   OH248261   0.740   1.062   0.189 -0.5532  0.1248 -0.1131
 8949TIP3    H148262   0.722   1.121   0.263 -1.1392 -0.3831  0.1625
 8949TIP3    H248263   0.726   1.116   0.111 -2.5910 -0.0020  0.0911
 8950TIP3   OH248264   0.688   0.041   3.051 -0.3820  0.3695 -0.1716
 8950TIP3    H148265   0.713   0.096   3.124 -0.4992 -0.0593  0.1963
 8950TIP3    H248266   0.633   0.097   2.996  0.2216  0.8829 -0.2587
 8951TIP3   OH248267   4.303   5.273  13.898  0.0950 -0.1174  0.3413
 8951TIP3    H148268   4.338   5.186  13.916  0.5593  0.1350  0.6813
 8951TIP3    H248269   4.368   5.333  13.934 -0.1334  0.3742 -0.0539
 8952TIP3   OH248270   6.457   5.895  15.345 -0.1358 -0.9057 -0.1468
 8952TIP3    H148271   6.382   5.905  15.286 -1.0044 -0.2593  1.0293
 8952TIP3    H248272   6.425   5.841  15.417  0.8659 -1.5647 -0.1752
 8953TIP3   OH248273   0.381   6.488   5.031  0.1566 -0.5276  0.5925
 8953TIP3    H148274   0.296   6.501   4.990  0.8823  0.4034 -0.7027
 8953TIP3    H248275   0.363   6.487   5.125 -1.0013  2.0498  0.4711
 8954TIP3   OH248276   6.119   4.996  14.043 -0.2255  0.7056  0.0724
 8954TIP3    H148277   6.045   4.971  13.988  1.2198 -0.5497 -1.3956
 8954TIP3    H248278   6.088   4.981  14.133 -0.5835 -3.4610 -0.5663
 8955TIP3   OH248279   3.012   0.516  13.009 -0.6859 -0.4500 -0.7218
 8955TIP3    H148280   3.089   0.462  13.028  0.9232  2.1144  0.6317
 8955TIP3    H248281   3.044   0.581  12.946 -1.7594  0.5255 -0.3028
 8956TIP3   OH248282   0.198   5.006   2.387  0.3978 -0.3248 -0.1374
 8956TIP3    H148283   0.160   4.925   2.352 -0.8546  0.7785 -1.4254
 8956TIP3    H248284   0.293   4.990   2.385  0.2108 -1.5438 -0.9123
 8957TIP3   OH248285   2.322   5.689   4.747 -0.0691 -0.1292  1.2026
 8957TIP3    H148286   2.388   5.757   4.757  0.1659 -0.0765 -0.4482
 8957TIP3    H248287   2.372   5.607   4.745  0.2461  0.0278 -2.0349
 8958TIP3   OH248288   3.949   1.169  15.731  0.2591 -0.0515 -0.2318
 8958TIP3    H148289   3.938   1.131  15.819 -2.5909  2.1132  0.4874
 8958TIP3    H248290   3.999   1.249  15.747 -1.4766  1.0937 -0.2724
 8959TIP3   OH248291   5.346   2.007  13.909 -0.8266  0.3916  0.5378
 8959TIP3    H148292   5.416   2.040  13.852  0.9609 -1.2187  1.7016
 8959TIP3    H248293   5.321   2.082  13.962 -1.1534  1.4108 -1.0044
 8960TIP3   OH248294   5.276   6.285   1.631 -0.0130 -0.1727  0.1395
 8960TIP3    H148295   5.250   6.363   1.583 -1.1910 -0.4522  0.2835
 8960TIP3    H248296   5.228   6.214   1.588 -0.0415 -0.6132  0.8909
 8961TIP3   OH248297   1.295   3.856  15.389 -0.7558  0.0485  0.2042
 8961TIP3    H148298   1.355   3.879  15.319 -0.3253 -1.6395 -0.0257
 8961TIP3    H248299   1.230   3.926  15.389  1.5554  2.3440  0.9612
 8962TIP3   OH248300   6.077   1.730   3.449 -0.5433  0.0276 -0.0172
 8962TIP3    H148301   6.052   1.781   3.526  1.3012  0.2531  0.4667
 8962TIP3    H248302   6.077   1.639   3.479 -2.7589 -0.2383 -0.5974
 8963TIP3   OH248303   6.569   3.334   0.762  0.1827 -0.1745 -0.1764
 8963TIP3    H148304   6.645   3.391   0.757  0.8630 -1.0198  0.2902
 8963TIP3    H248305   6.529   3.355   0.847 -1.1303  1.4856 -1.1279
 8964TIP3   OH248306   3.223   5.625  14.761  0.4183  0.2306 -0.9359
 8964TIP3    H148307   3.185   5.641  14.847  0.2725  0.1653 -0.9886
 8964TIP3    H248308   3.153   5.583  14.711  0.4183  0.5068 -1.1678
 8965TIP3   OH248309   1.317   0.631  11.012  0.5617  0.2127  0.1657
 8965TIP3    H148310   1.397   0.581  10.998  1.5065  1.8784 -0.7856
 8965TIP3    H248311   1.257   0.600  10.945  0.7409 -0.3945  0.2790
 8966TIP3   OH248312   2.876   1.624  12.185  0.6811 -0.2923  0.5672
 8966TIP3    H148313   2.923   1.541  12.178 -2.3338 -2.1910  0.9792
 8966TIP3    H248314   2.904   1.660  12.269  2.7655 -0.3056 -0.0547
 8967TIP3   OH248315   5.786   3.635  15.721  0.4767  0.0852 -0.2032
 8967TIP3    H148316   5.742   3.575  15.661  0.7201 -1.0075  0.6582
 8967TIP3    H248317   5.875   3.599  15.730  0.2578 -0.1593  1.2749
 8968TIP3   OH248318   2.184   6.126   3.268  0.0996 -0.3086  0.1161
 8968TIP3    H148319   2.233   6.156   3.191 -0.3700  1.0348  0.3140
 8968TIP3    H248320   2.244   6.138   3.341 -0.4002  1.1212  0.3267
 8969TIP3   OH248321   1.221   5.915   1.300 -0.0965 -0.1239 -0.2960
 8969TIP3    H148322   1.253   5.907   1.210  0.0108  1.6401 -0.4483
 8969TIP3    H248323   1.158   5.843   1.310  2.8623 -2.9761 -0.3836
 8970TIP3   OH248324   3.557   5.987   1.960 -0.1596  0.7075 -0.3070
 8970TIP3    H148325   3.623   5.929   1.920  0.6666  1.3206  0.1343
 8970TIP3    H248326   3.475   5.937   1.954 -0.0540  0.6931 -2.5697
 8971TIP3   OH248327   2.157   6.622   5.391  0.1726 -0.3978 -0.1229
 8971TIP3    H148328   2.142   6.537   5.433  0.2331 -1.2298 -1.7165
 8971TIP3    H248329   2.253   6.629   5.387  0.1713 -0.6025 -0.6281
 8972TIP3   OH248330   5.297   2.317   3.897  0.4627  0.4280 -0.3882
 8972TIP3    H148331   5.324   2.404   3.869 -1.2900  0.7349 -1.2547
 8972TIP3    H248332   5.254   2.279   3.821 -2.1784  0.2989  1.0594
 8973TIP3   OH248333   6.203   5.563   0.211 -0.0406  0.4377 -0.4791
 8973TIP3    H148334   6.204   5.594   0.120  0.2196  1.2233 -0.2151
 8973TIP3    H248335   6.224   5.470   0.204 -0.3299  0.4166 -1.2488
 8974TIP3   OH248336   6.445   5.501   0.001 -0.2839  0.3185 -0.3349
 8974TIP3    H148337   6.538   5.485   0.018 -0.1774  0.0366 -1.1491
 8974TIP3    H248338   6.400   5.444   0.063  0.0823  0.3194 -0.0608
 8975TIP3   OH248339   0.589   1.227  11.705 -0.0245 -0.1036 -0.3914
 8975TIP3    H148340   0.580   1.194  11.794  0.0966 -0.5201 -0.5301
 8975TIP3    H248341   0.567   1.320  11.711  0.1779 -0.0868  0.1068
 8976TIP3   OH248342   4.645   5.289  15.858  0.1283  0.3354  0.4336
 8976TIP3    H148343   4.631   5.208  15.809 -1.3912  1.0742 -0.4445
 8976TIP3    H248344   4.667   5.260  15.947 -0.8501 -1.0562  0.2620
 8977TIP3   OH248345   4.041   2.657   1.105 -0.1289 -0.0327 -0.2765
 8977TIP3    H148346   3.961   2.607   1.119 -1.3866  1.3180 -2.0619
 8977TIP3    H248347   4.112   2.595   1.120 -1.5023 -1.3913  0.9257
 8978TIP3   OH248348   3.322   1.626   2.580  0.6555  0.2518 -0.0892
 8978TIP3    H148349   3.345   1.718   2.590  0.7684  0.0351  2.0994
 8978TIP3    H248350   3.357   1.601   2.495  0.9541  2.1272 -0.5473
 8979TIP3   OH248351   0.465   4.953  12.406  0.2573  0.1646 -0.5957
 8979TIP3    H148352   0.408   5.028  12.422 -1.6514 -1.2738 -0.3174
 8979TIP3    H248353   0.522   4.950  12.482 -0.8067  0.3254  0.2233
 8980TIP3   OH248354   3.049   2.460   5.899 -0.1840 -0.4563  0.1421
 8980TIP3    H148355   3.039   2.436   5.991  3.0433  0.9356  1.0320
 8980TIP3    H248356   3.112   2.397   5.864  0.1003  0.1814 -0.5382
 8981TIP3   OH248357   5.208   2.541   3.693 -0.4296 -0.1641  0.2239
 8981TIP3    H148358   5.184   2.560   3.602 -1.6992  2.7757  1.0552
 8981TIP3    H248359   5.125   2.543   3.741  0.4871  1.4363  1.8716
 8982TIP3   OH248360   5.702   4.044  12.028 -0.4876 -0.1732 -0.6667
 8982TIP3    H148361   5.738   4.083  12.107 -2.2395  0.1587  0.0286
 8982TIP3    H248362   5.757   4.077  11.957  2.1000 -1.7112  0.4977
 8983TIP3   OH248363   6.225   4.957   6.106 -0.5388 -0.4360 -0.4037
 8983TIP3    H148364   6.309   4.943   6.063 -0.4908  0.0887 -0.4803
 8983TIP3    H248365   6.173   5.006   6.042 -0.3319  0.7081  0.2777
 8984TIP3   OH248366   5.148   4.928   1.106  0.2905 -0.1186 -0.3001
 8984TIP3    H148367   5.164   4.988   1.033  0.4857  1.6173  1.0875
 8984TIP3    H248368   5.089   4.976   1.164 -0.5703 -1.8049  0.2810
 8985TIP3   OH248369   2.741   2.690  16.979 -0.2747  0.3661 -0.2543
 8985TIP3    H148370   2.830   2.671  17.010  0.1316 -0.5135 -1.8415
 8985TIP3    H248371   2.687   2.620  17.016  0.0112 -0.0773 -0.6673
 8986TIP3   OH248372   0.031   1.524   4.561  0.4821 -0.4723  1.0993
 8986TIP3    H148373  -0.060   1.498   4.576  0.3508 -1.2094 -0.6140
 8986TIP3    H248374   0.082   1.473   4.625 -0.2847 -0.2149  1.9252
 8987TIP3   OH248375   5.222   6.113  11.365 -0.5495  0.1600  0.1438
 8987TIP3    H148376   5.201   6.019  11.361  1.9864 -0.4819 -0.0976
 8987TIP3    H248377   5.229   6.132  11.458  0.7042 -0.3752  0.1756
 8988TIP3   OH248378   0.067   0.666  13.147  0.1444 -0.0560  0.0069
 8988TIP3    H148379   0.047   0.755  13.176  0.1034  0.0151 -0.2371
 8988TIP3    H248380   0.064   0.614  13.227 -1.8433 -0.2055 -0.1035
 8989TIP3   OH248381   4.020   5.939  11.417 -0.9214  0.2982 -0.2057
 8989TIP3    H148382   4.114   5.920  11.417 -0.4105  2.4955  0.5731
 8989TIP3    H248383   3.989   5.913  11.504 -0.6081  1.2150  0.1997
 8990TIP3   OH248384   1.158   1.955  17.064 -0.2141 -0.2531 -0.7506
 8990TIP3    H148385   1.081   1.935  17.117 -0.1339  0.8217 -0.2013
 8990TIP3    H248386   1.123   1.984  16.980 -0.3691 -0.9615 -0.9365
 8991TIP3   OH248387   4.922   2.320   4.455 -0.7253 -0.1097 -0.1088
 8991TIP3    H148388   4.861   2.345   4.386 -0.8347  1.4009  0.4984
 8991TIP3    H248389   4.920   2.393   4.516  0.5176 -0.7399  0.7229
 8992TIP3   OH248390   3.149   3.015   6.685  0.1453 -0.5186  0.4185
 8992TIP3    H148391   3.078   2.953   6.702  0.0292 -0.4364  0.2401
 8992TIP3    H248392   3.171   3.051   6.770 -0.8176  0.3136  0.3347
 8993TIP3   OH248393   2.362   1.039  10.422 -0.1541  0.2922  0.0415
 8993TIP3    H148394   2.400   0.959  10.385 -1.0823 -0.3095  0.3473
 8993TIP3    H248395   2.276   1.012  10.453 -1.0681  1.7185 -1.1079
 8994TIP3   OH248396   5.026   2.793  14.653 -0.3011 -0.2887 -0.1429
 8994TIP3    H148397   5.032   2.767  14.561  0.3633 -2.1599  0.3861
 8994TIP3    H248398   4.949   2.747  14.685 -1.1278  1.1467  0.0458
 8995TIP3   OH248399   5.470   5.274   0.051  0.2003 -0.1950  0.3684
 8995TIP3    H148400   5.483   5.368   0.046  0.2028 -0.1424  1.2863
 8995TIP3    H248401   5.549   5.241   0.096  0.5522 -0.7245 -0.6020
 8996TIP3   OH248402   6.141   0.385  14.246  0.0830  0.8136 -0.2025
 8996TIP3    H148403   6.163   0.296  14.276  2.4755  0.4941 -2.4637
 8996TIP3    H248404   6.209   0.440  14.285 -0.1494  1.2913 -0.4731
 8997TIP3   OH248405   2.017   1.887   5.181  0.0541  0.3995  0.7079
 8997TIP3    H148406   2.095   1.860   5.230 -0.2471 -0.2971  0.8232
 8997TIP3    H248407   1.977   1.805   5.152 -0.5932  0.7466  0.5803
 8998TIP3   OH248408   1.615   6.132  14.181 -0.2239  0.1087  0.0279
 8998TIP3    H148409   1.592   6.050  14.137 -1.1947 -0.5223  1.6249
 8998TIP3    H248410   1.540   6.190  14.166 -0.6257 -0.1594  0.9231
 8999TIP3   OH248411   4.967   4.246  13.991  0.1772 -0.0348  0.2499
 8999TIP3    H148412   4.994   4.192  13.917  0.5414  2.2420 -1.3955
 8999TIP3    H248413   5.049   4.265  14.037  0.1242 -0.4540  0.5161
 9000TIP3   OH248414   4.987   2.168   3.033 -0.2122  0.5534  0.4743
 9000TIP3    H148415   4.968   2.202   2.946  2.0954  1.8643  0.3861
 9000TIP3    H248416   4.987   2.245   3.089 -0.4474 -0.1057  1.4065
 9001TIP3   OH248417   0.555   0.524   2.535  0.2252 -0.0849 -0.0006
 9001TIP3    H148418   0.536   0.525   2.442 -0.8689 -0.5167  0.1980
 9001TIP3    H248419   0.503   0.596   2.571 -0.1053 -0.5191  0.4019
 9002TIP3   OH248420   3.753   6.196   1.048 -0.1186 -0.5498  0.1592
 9002TIP3    H148421   3.788   6.108   1.031 -0.7810 -1.0120  1.0278
 9002TIP3    H248422   3.795   6.223   1.130  1.3064  0.6497 -0.9249
 9003TIP3   OH248423   3.832   3.877   4.991  0.2823 -0.0243  0.5295
 9003TIP3    H148424   3.830   3.831   5.075  2.3998  0.5859  0.9792
 9003TIP3    H248425   3.841   3.807   4.925  1.1454 -0.3956  1.0234
 9004TIP3   OH248426   3.938   0.045   0.148 -1.0126 -0.2031  0.3703
 9004TIP3    H148427   3.952   0.134   0.113  0.1522  0.1942  1.7780
 9004TIP3    H248428   4.020   0.023   0.191 -0.2073 -3.1526 -2.3159
 9005TIP3   OH248429   3.329   2.910  14.945  0.1062  0.1585  0.3855
 9005TIP3    H148430   3.251   2.939  14.993 -0.2171 -1.0985  0.6831
 9005TIP3    H248431   3.297   2.892  14.857 -0.4022 -2.1022  0.9655
 9006TIP3   OH248432   5.180   1.633  13.758  0.0806  0.1616 -0.1314
 9006TIP3    H148433   5.228   1.551  13.770 -0.2068  0.2029  1.4412
 9006TIP3    H248434   5.232   1.698  13.805 -0.6497  0.5224  0.1924
 9007TIP3   OH248435   1.986   0.397  11.131 -0.1843 -0.1782  0.5556
 9007TIP3    H148436   2.067   0.347  11.135 -1.1173 -1.7411  0.5093
 9007TIP3    H248437   1.978   0.423  11.039  0.9512  1.2475  0.8061
 9008TIP3   OH248438   0.896   5.005   0.122  0.2596  0.1964  0.1140
 9008TIP3    H148439   0.943   4.967   0.197  0.2630 -0.0815 -0.0294
 9008TIP3    H248440   0.806   4.974   0.131  0.4365 -0.4907 -0.4388
 9009TIP3   OH248441   6.671   3.770   2.126  0.0703  0.6052  0.2572
 9009TIP3    H148442   6.715   3.739   2.205 -1.1710  2.3289  1.7036
 9009TIP3    H248443   6.716   3.725   2.054  1.3478 -0.8925  1.9080
 9010TIP3   OH248444   6.155   6.632  12.607  0.5421  0.4875 -0.5269
 9010TIP3    H148445   6.239   6.678  12.616  1.2724 -0.9252  0.2871
 9010TIP3    H248446   6.174   6.558  12.550  0.1909 -0.5618  0.6592
 9011TIP3   OH248447   2.772   2.326   3.576 -0.0801 -0.2028 -0.0771
 9011TIP3    H148448   2.732   2.335   3.489 -2.1620 -0.0957  0.8165
 9011TIP3    H248449   2.849   2.383   3.573 -0.9548  0.9864 -1.3808
 9012TIP3   OH248450   5.018   2.083  12.099  0.1886 -0.5776 -0.2062
 9012TIP3    H148451   4.973   2.056  12.178  0.3066 -1.2131 -0.3539
 9012TIP3    H248452   5.050   2.171  12.119 -1.2823 -0.0217 -0.1737
 9013TIP3   OH248453   4.035   0.157   5.140  0.3232 -0.0518 -0.0002
 9013TIP3    H148454   3.946   0.151   5.106 -0.4419 -0.0877  1.8844
 9013TIP3    H248455   4.071   0.237   5.102 -0.4184 -0.1663 -0.9664
 9014TIP3   OH248456   3.975   3.010  13.408 -0.0549  0.2725 -0.3658
 9014TIP3    H148457   3.931   2.938  13.362 -0.1881 -0.1815  0.4518
 9014TIP3    H248458   3.913   3.082  13.405 -1.2352 -0.5978  1.4475
 9015TIP3   OH248459   0.277   5.087  16.337 -0.3008  0.1302 -0.0014
 9015TIP3    H148460   0.345   5.087  16.404 -0.4026  0.2773  0.1006
 9015TIP3    H248461   0.253   5.179  16.327 -0.7384  0.0432  0.2216
 9016TIP3   OH248462   5.892   5.962  17.026  0.5858 -0.0001  0.1883
 9016TIP3    H148463   5.973   5.922  17.056  1.0274 -0.6548 -1.7486
 9016TIP3    H248464   5.831   5.889  17.017  0.3542  0.2298 -0.1275
 9017TIP3   OH248465   3.137   3.408  15.353 -0.7333  0.6681  0.6772
 9017TIP3    H148466   3.085   3.488  15.365  0.5271  1.8567 -1.1412
 9017TIP3    H248467   3.104   3.370  15.271 -1.6782 -1.0328  1.7884
 9018TIP3   OH248468   1.238   6.216  14.295  0.4954 -0.3633  1.0661
 9018TIP3    H148469   1.146   6.202  14.277  0.7684  0.3347 -1.1320
 9018TIP3    H248470   1.266   6.281  14.230  3.2749 -2.9315 -0.5627
 9019TIP3   OH248471   6.626   2.621  13.005 -0.5849 -0.2783  0.1229
 9019TIP3    H148472   6.555   2.619  12.941 -1.7242  3.4545  1.0023
 9019TIP3    H248473   6.701   2.656  12.957 -0.4424 -0.6798  0.0530
 9020TIP3   OH248474   4.920   5.642   3.249 -0.1451  0.1127  0.1829
 9020TIP3    H148475   4.968   5.560   3.263  0.0415  0.4007  1.3392
 9020TIP3    H248476   4.988   5.706   3.230 -0.1346  0.3450  0.9782
 9021TIP3   OH248477   2.612   4.410  13.553  0.4310  0.8319 -0.0518
 9021TIP3    H148478   2.619   4.479  13.619 -2.6511 -0.1349  1.4697
 9021TIP3    H248479   2.651   4.333  13.596 -1.0464  0.3498  0.4832
 9022TIP3   OH248480   0.223   2.269   3.411  0.1121 -0.3518 -0.0473
 9022TIP3    H148481   0.258   2.358   3.417 -0.9222  0.0491  0.1675
 9022TIP3    H248482   0.128   2.279   3.416 -0.0303 -1.4641 -0.1071
 9023TIP3   OH248483   6.553   2.483   4.247  0.3816 -0.1417  0.0332
 9023TIP3    H148484   6.527   2.440   4.165 -0.8880 -0.2544  0.4725
 9023TIP3    H248485   6.554   2.576   4.226 -1.2333 -0.0577  0.1910
 9024TIP3   OH248486   5.802   0.574   4.028 -0.0751  0.5223 -0.3730
 9024TIP3    H148487   5.720   0.530   4.049 -0.0868 -0.0497 -1.5116
 9024TIP3    H248488   5.847   0.584   4.112  0.0426 -1.9198 -0.0787
 9025TIP3   OH248489   2.584   1.653   5.618 -0.0805  0.4215 -0.0649
 9025TIP3    H148490   2.623   1.737   5.642 -0.9606  0.9774 -0.5278
 9025TIP3    H248491   2.606   1.595   5.691  1.4250  0.7497 -0.2108
 9026TIP3   OH248492   2.931   4.476   1.869 -0.0371  0.2784  0.6089
 9026TIP3    H148493   2.984   4.396   1.867 -0.1673  0.1256  2.0304
 9026TIP3    H248494   2.935   4.505   1.960 -0.5256  1.5385  0.2481
 9027TIP3   OH248495   6.402   5.143   4.815 -0.4837  0.2564 -0.4164
 9027TIP3    H148496   6.430   5.215   4.759  0.9832  1.0188  1.1939
 9027TIP3    H248497   6.449   5.066   4.783  1.8110  1.0634  0.8272
 9028TIP3   OH248498   1.219   5.521  13.471  0.0480  0.0786 -0.3267
 9028TIP3    H148499   1.289   5.464  13.438 -0.0400  0.6270 -1.5113
 9028TIP3    H248500   1.219   5.506  13.566  1.8354  0.1370 -0.2869
 9029TIP3   OH248501   4.634   0.241   4.633  0.1127  0.0101 -0.0339
 9029TIP3    H148502   4.550   0.287   4.641  0.8795  1.2234  1.4784
 9029TIP3    H248503   4.613   0.162   4.583 -1.4619  1.4778 -1.8739
 9030TIP3   OH248504   2.581   5.590  15.156 -0.6257  0.1816 -0.1502
 9030TIP3    H148505   2.574   5.546  15.240 -0.9603  1.6652  0.6330
 9030TIP3    H248506   2.598   5.520  15.093  2.6221 -0.7024  1.5088
 9031TIP3   OH248507   0.264   4.462   5.494  0.5331  0.0682 -0.6029
 9031TIP3    H148508   0.200   4.519   5.537  0.4331  0.1765 -0.8897
 9031TIP3    H248509   0.251   4.376   5.535 -2.5256 -0.9445 -3.2535
 9032TIP3   OH248510   0.930   3.316   5.765 -0.0591 -0.4383 -0.1790
 9032TIP3    H148511   0.932   3.225   5.736  0.7374 -0.6513  0.5072
 9032TIP3    H248512   0.982   3.317   5.845 -1.2755  0.3530  0.6249
 9033TIP3   OH248513   5.817   0.912   5.896 -0.0412 -0.0721 -0.1754
 9033TIP3    H148514   5.857   0.874   5.974  1.9628  0.2766 -0.9788
 9033TIP3    H248515   5.856   0.999   5.888 -0.3692 -0.0181 -1.4353
 9034TIP3   OH248516   6.057   5.672   3.446  0.5131  0.3399  0.3224
 9034TIP3    H148517   6.088   5.585   3.418  0.3583  0.6474 -0.8569
 9034TIP3    H248518   5.977   5.654   3.494 -0.4013 -0.0865 -1.2961
 9035TIP3   OH248519   2.618   6.370  15.263  0.0663 -0.1578 -0.1740
 9035TIP3    H148520   2.609   6.459  15.227 -2.7433 -0.9670 -1.7054
 9035TIP3    H248521   2.601   6.312  15.188  1.6863 -2.0526  0.8297
 9036TIP3   OH248522   0.929   3.056   5.256 -0.0794  0.0278 -0.1787
 9036TIP3    H148523   0.874   2.982   5.280  0.6044 -0.7579 -0.9808
 9036TIP3    H248524   1.013   3.038   5.298 -0.3365  1.1397  0.9020
 9037TIP3   OH248525   2.883   4.722  12.567 -0.0864 -0.2100  0.2139
 9037TIP3    H148526   2.845   4.810  12.557  2.2387  1.1815  2.3549
 9037TIP3    H248527   2.829   4.681  12.635 -0.1629  0.2309  0.4280
 9038TIP3   OH248528   5.733   5.312   6.233  0.9749  0.7532 -0.4793
 9038TIP3    H148529   5.654   5.265   6.206  0.3785  1.4235  0.0289
 9038TIP3    H248530   5.805   5.254   6.210  0.3009 -0.1361 -0.4151
 9039TIP3   OH248531   5.118   1.511  15.954  0.3162 -0.2282 -0.4088
 9039TIP3    H148532   5.064   1.435  15.931 -0.1831  0.5645 -1.9936
 9039TIP3    H248533   5.082   1.543  16.037 -0.6985 -0.5906 -0.7040
 9040TIP3   OH248534   4.948   0.085   3.606  0.0195  0.1610 -0.7631
 9040TIP3    H148535   4.858   0.111   3.629  0.1150  1.9768 -2.1474
 9040TIP3    H248536   4.945   0.072   3.511  1.2051  0.2579 -0.8256
 9041TIP3   OH248537   3.210   0.479   0.365 -0.1321 -0.6838 -0.1417
 9041TIP3    H148538   3.178   0.564   0.333 -0.1918 -0.0387  1.5067
 9041TIP3    H248539   3.131   0.433   0.393 -0.0020 -0.8606 -0.0705
 9042TIP3   OH248540   1.922   5.073  13.703 -0.1698  0.4340 -0.8417
 9042TIP3    H148541   1.840   5.070  13.654 -0.3763 -0.3702 -0.4734
 9042TIP3    H248542   1.895   5.062  13.795  0.2633  1.2510 -0.6095
 9043TIP3   OH248543   2.766   3.815   5.863  0.2684 -0.4246  0.2545
 9043TIP3    H148544   2.807   3.902   5.860  1.3986 -0.8915  1.4196
 9043TIP3    H248545   2.786   3.782   5.951 -0.7730 -1.5748  0.0846
 9044TIP3   OH248546   0.120   6.649  11.820  0.3397 -0.2425 -0.0289
 9044TIP3    H148547   0.117   6.596  11.740 -0.1353  1.0673 -0.9175
 9044TIP3    H248548   0.060   6.606  11.880 -1.3422  0.1789 -1.3318
 9045TIP3   OH248549   4.701   5.195  16.145  0.1230 -0.2321  0.1060
 9045TIP3    H148550   4.753   5.127  16.186 -0.6071 -0.1859  1.1546
 9045TIP3    H248551   4.619   5.197  16.195 -0.7910 -0.1237 -1.3204
 9046TIP3   OH248552   2.605   2.174  14.657 -0.1195  0.2782 -0.8089
 9046TIP3    H148553   2.599   2.235  14.584  0.2589  2.1452  0.6269
 9046TIP3    H248554   2.696   2.183  14.688  1.5201 -4.4334 -3.2533
 9047TIP3   OH248555   2.619   0.602   4.494  0.9224  0.0405  0.0863
 9047TIP3    H148556   2.616   0.519   4.541  1.5312 -0.2351 -0.3496
 9047TIP3    H248557   2.701   0.642   4.523 -0.0215  1.1400  1.3619
 9048TIP3   OH248558   4.710   4.616  15.574  1.0088 -0.2041  0.4588
 9048TIP3    H148559   4.616   4.623  15.594  1.0829 -2.3745  1.9045
 9048TIP3    H248560   4.713   4.574  15.489  0.7258  1.7217 -0.5718
 9049TIP3   OH248561   0.073   5.498  10.703 -0.0563  0.2472  0.0623
 9049TIP3    H148562   0.075   5.580  10.753 -0.7323  0.0293  0.4634
 9049TIP3    H248563   0.165   5.472  10.696  0.3007  1.6923 -1.1958
 9050TIP3   OH248564   2.270   2.680  14.439  0.5025  0.2711  0.1464
 9050TIP3    H148565   2.304   2.734  14.368  0.6718  1.4856  1.1324
 9050TIP3    H248566   2.190   2.724  14.466  0.1218 -0.5177  0.3242
 9051TIP3   OH248567   1.974   5.178   1.944  0.0963  0.2520 -0.4476
 9051TIP3    H148568   1.974   5.159   1.850 -0.3218 -1.0218 -0.2244
 9051TIP3    H248569   2.030   5.110   1.982 -2.0557 -1.1461  0.4938
 9052TIP3   OH248570   5.650   6.624  15.065 -0.0779 -0.8301  0.2784
 9052TIP3    H148571   5.683   6.714  15.058  0.4532 -0.9965  0.6911
 9052TIP3    H248572   5.571   6.632  15.118 -0.6501 -0.4533 -0.6043
 9053TIP3   OH248573   4.021   0.791  11.542  0.3267  0.1012  0.3296
 9053TIP3    H148574   3.925   0.789  11.532  0.4881 -1.3765 -1.5043
 9053TIP3    H248575   4.052   0.837  11.465  1.1030  1.0724  1.1999
 9054TIP3   OH248576   3.670   2.327   6.240 -0.1162  0.5384  0.6850
 9054TIP3    H148577   3.604   2.396   6.234 -2.0604 -1.1226  1.8683
 9054TIP3    H248578   3.746   2.371   6.280 -0.6828  2.3498 -0.1131
 9055TIP3   OH248579   3.955   3.181  15.732 -0.1974 -0.7592 -0.2610
 9055TIP3    H148580   3.948   3.193  15.827  2.2980  1.4548 -0.2475
 9055TIP3    H248581   4.048   3.170  15.716 -0.1134  2.2378 -2.6961
 9056TIP3   OH248582   0.214   3.534  16.211 -0.3735  0.9899 -0.8016
 9056TIP3    H148583   0.260   3.508  16.131 -1.2566  0.4382 -1.1371
 9056TIP3    H248584   0.188   3.625  16.196 -0.4820  0.9079 -1.1132
 9057TIP3   OH248585   5.064   1.850  15.457  0.2976  0.1366  1.1718
 9057TIP3    H148586   5.120   1.927  15.444 -0.1576  0.3953  0.7062
 9057TIP3    H248587   5.034   1.858  15.548 -1.3429  1.6125  0.5688
 9058TIP3   OH248588   3.721   1.552   0.462  0.2835 -0.0975  0.0934
 9058TIP3    H148589   3.712   1.472   0.513  1.3425 -1.0936 -1.2060
 9058TIP3    H248590   3.815   1.569   0.460  0.1045  0.9107 -0.0419
 9059TIP3   OH248591   6.230   5.866  13.195 -0.2747 -0.5102  0.2361
 9059TIP3    H148592   6.211   5.772  13.185 -2.7088 -0.2027  1.1569
 9059TIP3    H248593   6.211   5.903  13.109  1.5334 -0.9264 -0.3837
 9060TIP3   OH248594   1.058   3.389  16.162 -1.5949  0.2716  0.0914
 9060TIP3    H148595   1.050   3.461  16.100 -0.3561  0.2804 -0.0776
 9060TIP3    H248596   1.104   3.320  16.113  0.2992  0.6365  1.2444
 9061TIP3   OH248597   2.516   5.864  15.128 -0.1028  0.1042 -0.0076
 9061TIP3    H148598   2.514   5.779  15.172  1.4804 -0.6783 -1.3596
 9061TIP3    H248599   2.444   5.913  15.168  1.0876 -0.5999  3.3335
 9062TIP3   OH248600   1.875   5.048  14.295  0.0042 -0.2441  0.5462
 9062TIP3    H148601   1.812   4.989  14.336  0.3397 -1.4031 -0.5426
 9062TIP3    H248602   1.835   5.074  14.212 -0.3538  1.4957  1.2164
 9063TIP3   OH248603   5.263   2.736  13.555  0.6045  0.0327  0.0007
 9063TIP3    H148604   5.188   2.777  13.511  0.1104  0.2827  1.0595
 9063TIP3    H248605   5.285   2.796  13.626  1.5844 -0.2246 -0.0703
 9064TIP3   OH248606   0.818   6.112  15.954 -0.0047 -0.3020 -0.1442
 9064TIP3    H148607   0.815   6.179  16.022 -0.1092  1.4873 -1.8486
 9064TIP3    H248608   0.763   6.146  15.883  0.1857 -2.0496 -1.1899
 9065TIP3   OH248609   3.968   4.850   0.672 -0.3826 -0.4555  0.2211
 9065TIP3    H148610   3.983   4.756   0.668  2.2678 -0.1370 -4.0140
 9065TIP3    H248611   4.041   4.884   0.723  0.3558 -0.5781 -0.7150
 9066TIP3   OH248612   4.023   4.508  15.296 -0.3450 -0.3178  0.6183
 9066TIP3    H148613   4.023   4.596  15.259  0.2256 -0.3514  0.5278
 9066TIP3    H248614   3.935   4.474  15.278 -0.7412  0.4181  1.1117
 9067TIP3   OH248615   4.673   3.241  12.317 -0.3780  0.1960 -0.2649
 9067TIP3    H148616   4.742   3.273  12.374 -1.3309 -1.8473  2.2076
 9067TIP3    H248617   4.597   3.295  12.339 -1.4472 -2.1721  2.4755
 9068TIP3   OH248618   3.996   3.905  16.208 -0.5914  0.2197  0.1242
 9068TIP3    H148619   3.940   3.979  16.184 -2.1756 -0.7688  0.6257
 9068TIP3    H248620   3.961   3.831  16.158  1.2117 -0.1466 -0.6740
 9069TIP3   OH248621   1.747   3.121   2.877  0.0373  0.5247  0.6063
 9069TIP3    H148622   1.670   3.135   2.933 -0.0955  0.5264  0.4250
 9069TIP3    H248623   1.820   3.155   2.928 -0.0213  0.1309  0.9619
 9070TIP3   OH248624   4.870   0.655   0.284  0.2827 -0.4553 -0.2760
 9070TIP3    H148625   4.878   0.620   0.373 -0.3378 -0.9205 -0.3933
 9070TIP3    H248626   4.907   0.743   0.289  0.8787 -0.7284  0.2817
 9071TIP3   OH248627   5.646   6.179  11.355  0.2059 -0.5832 -0.1107
 9071TIP3    H148628   5.586   6.252  11.337  1.2385  0.0739 -1.0155
 9071TIP3    H248629   5.627   6.155  11.446 -0.4207  0.5634  0.0877
 9072TIP3   OH248630   2.650   4.925  16.866 -0.3143 -0.2003  0.5132
 9072TIP3    H148631   2.710   4.953  16.935 -0.3466 -1.6590  1.1686
 9072TIP3    H248632   2.622   4.837  16.892 -0.8543 -0.5188 -1.0103
 9073TIP3   OH248633   5.941   2.059   1.729 -0.2032 -0.0656 -0.7415
 9073TIP3    H148634   5.994   2.032   1.654 -0.1775  0.0245 -0.7559
 9073TIP3    H248635   5.902   2.142   1.701  1.0012  0.7619 -0.1015
 9074TIP3   OH248636   6.128   0.889   4.356 -0.0098  0.2650  0.2917
 9074TIP3    H148637   6.091   0.955   4.297 -0.8968 -1.5087 -1.2520
 9074TIP3    H248638   6.221   0.886   4.333 -0.4390 -0.7986 -1.5248
 9075TIP3   OH248639   5.679   0.295  12.954 -0.7705 -0.2833  0.2972
 9075TIP3    H148640   5.591   0.303  12.989 -1.7151 -2.7876 -1.1765
 9075TIP3    H248641   5.669   0.311  12.860  0.3261 -0.6080  0.1088
 9076TIP3   OH248642   2.258   0.590  13.479 -0.2254  0.3651 -0.0896
 9076TIP3    H148643   2.308   0.589  13.560  0.9942  1.4015 -0.7842
 9076TIP3    H248644   2.169   0.565  13.504  0.3788 -0.4260  1.3619
 9077TIP3   OH248645   2.167   1.263   2.420  0.2364 -0.5427 -0.6293
 9077TIP3    H148646   2.219   1.216   2.355  1.9239  0.7689 -0.3126
 9077TIP3    H248647   2.161   1.352   2.386 -1.2557 -0.4960 -0.3072
 9078TIP3   OH248648   2.408   3.846   4.819 -0.4870 -0.1617  0.2064
 9078TIP3    H148649   2.351   3.885   4.753 -0.0015 -0.1509 -0.2175
 9078TIP3    H248650   2.380   3.884   4.902 -1.3435 -0.4448  0.0525
 9079TIP3   OH248651   1.005   2.579  15.872 -0.6344  0.5817  0.6866
 9079TIP3    H148652   1.059   2.607  15.799 -0.0205 -1.2056  0.3971
 9079TIP3    H248653   1.005   2.483  15.867 -0.4315  0.3738  3.0981
 9080TIP3   OH248654   4.743   3.091  17.575 -0.4127  0.7016 -0.2491
 9080TIP3    H148655   4.692   3.144  17.513 -1.2799  0.6724  0.4195
 9080TIP3    H248656   4.810   3.050  17.521  0.5704  2.7883 -0.7431
 9081TIP3   OH248657   3.697   5.855  11.134  0.0953  0.8658  0.3468
 9081TIP3    H148658   3.685   5.947  11.111 -0.2327  0.4935 -1.0336
 9081TIP3    H248659   3.682   5.807  11.053  1.8934 -0.3019  0.6329
 9082TIP3   OH248660   6.037   1.792  17.421  0.0510  0.1398 -0.7997
 9082TIP3    H148661   6.104   1.785  17.353 -0.2199  1.4132 -1.2059
 9082TIP3    H248662   6.046   1.881  17.455  0.5507 -0.6352  1.2327
 9083TIP3   OH248663   3.315   6.246  16.728 -0.1880 -0.3408 -0.3826
 9083TIP3    H148664   3.305   6.158  16.766 -0.1967  0.1619  0.8496
 9083TIP3    H248665   3.225   6.279  16.724 -0.0718  0.1049  0.4369
 9084TIP3   OH248666   1.387   4.550   3.741 -0.0245  0.2219  0.1559
 9084TIP3    H148667   1.427   4.627   3.782  0.3325  0.1854 -0.1199
 9084TIP3    H248668   1.293   4.571   3.738 -0.0229  0.3423  0.7310
 9085TIP3   OH248669   0.237   4.053  12.001  0.1328 -0.0256 -0.5384
 9085TIP3    H148670   0.203   4.023  11.917 -1.1358  1.2208 -0.5057
 9085TIP3    H248671   0.169   4.029  12.064  0.5653  0.0467 -0.0405
 9086TIP3   OH248672   1.827   6.052  12.358  0.4276  0.1140  0.1103
 9086TIP3    H148673   1.815   6.124  12.296 -0.4986  0.6233  0.8641
 9086TIP3    H248674   1.751   6.057  12.416  0.0606 -1.8154 -0.1465
 9087TIP3   OH248675   2.769   3.298   2.509 -0.0155  0.4766 -0.3199
 9087TIP3    H148676   2.859   3.326   2.529  0.1343 -0.1054 -0.1388
 9087TIP3    H248677   2.728   3.375   2.470  0.8500  0.4637 -1.3013
 9088TIP3   OH248678   6.294   0.750   2.068 -0.2895 -0.1994 -0.1755
 9088TIP3    H148679   6.326   0.678   2.014  1.5862  1.0354 -0.7958
 9088TIP3    H248680   6.214   0.716   2.108  0.7880 -2.7983 -0.0400
 9089TIP3   OH248681   5.856   1.300  17.337  0.7647  0.6754  0.6863
 9089TIP3    H148682   5.781   1.249  17.307  1.2011  0.9048 -0.8951
 9089TIP3    H248683   5.844   1.386  17.295  1.2956  1.0952  1.3709
 9090TIP3   OH248684   6.390   3.019   4.465 -0.6254 -0.5198 -0.6687
 9090TIP3    H148685   6.326   3.009   4.536 -1.7823  0.3878 -1.5440
 9090TIP3    H248686   6.454   2.950   4.481 -1.4274 -0.9970  0.6605
 9091TIP3   OH248687   1.118   4.059   3.096 -0.3379 -0.1836  0.3751
 9091TIP3    H148688   1.080   4.100   3.174 -1.3164 -0.3953  0.0206
 9091TIP3    H248689   1.139   3.970   3.125 -2.1623 -0.7804  0.0022
 9092TIP3   OH248690   2.424   2.848  12.255 -0.2274 -0.3018 -0.4804
 9092TIP3    H148691   2.444   2.940  12.237  0.0803 -0.2165  0.2577
 9092TIP3    H248692   2.372   2.850  12.335 -1.2463 -0.6969 -1.1074
 9093TIP3   OH248693   6.182   6.169  12.388 -0.1758  0.2470  0.4667
 9093TIP3    H148694   6.089   6.163  12.366 -0.1465  1.0933  0.0222
 9093TIP3    H248695   6.192   6.116  12.466 -0.5644 -1.8026 -0.7881
 9094TIP3   OH248696   1.888   6.197   5.758 -0.2764 -0.0732 -0.2014
 9094TIP3    H148697   1.910   6.268   5.697 -1.7091  0.7114  0.1548
 9094TIP3    H248698   1.834   6.238   5.825  1.2447 -0.9156  1.6538
 9095TIP3   OH248699   1.458   1.025  14.354  0.4728 -0.1923 -0.2407
 9095TIP3    H148700   1.450   0.930  14.351 -0.2630 -0.1185 -1.8164
 9095TIP3    H248701   1.371   1.056  14.376  0.2271  0.1422 -1.5565
 9096TIP3   OH248702   2.132   5.697   5.976  0.0739 -0.0499 -0.5656
 9096TIP3    H148703   2.080   5.634   6.025 -0.7829  0.9140 -0.2043
 9096TIP3    H248704   2.223   5.675   5.997 -0.2192 -0.9934 -0.2479
 9097TIP3   OH248705   0.511   3.067   5.309  0.7676 -0.2816 -0.0275
 9097TIP3    H148706   0.545   3.083   5.221  0.2353 -0.3735 -0.2529
 9097TIP3    H248707   0.543   3.141   5.360 -1.3737  1.4053 -0.9729
 9098TIP3   OH248708   3.290   4.343   0.760  0.5186  0.2223 -0.0487
 9098TIP3    H148709   3.313   4.289   0.684 -2.4762 -1.1540 -0.1247
 9098TIP3    H248710   3.278   4.280   0.831  0.3724  1.1747  0.7890
 9099TIP3   OH248711   1.573   2.385  12.664 -0.0138  0.1193  0.2439
 9099TIP3    H148712   1.500   2.342  12.619  1.6588 -1.9939 -0.6786
 9099TIP3    H248713   1.568   2.476  12.636 -1.5551 -0.2366 -0.7861
 9100TIP3   OH248714   4.120   2.815   2.676 -0.0874 -0.2193 -0.2227
 9100TIP3    H148715   4.156   2.859   2.599  0.7409 -0.4385  0.0235
 9100TIP3    H248716   4.074   2.884   2.724  0.1801  0.1224 -0.4516
 9101TIP3   OH248717   3.875   5.211  16.638 -0.1361 -0.3457  0.8203
 9101TIP3    H148718   3.936   5.283  16.622 -0.2256 -0.1721  1.2397
 9101TIP3    H248719   3.800   5.252  16.680 -0.0272 -0.7364  1.4117
 9102TIP3   OH248720   3.992   4.823  12.169 -0.6653 -0.3846 -0.2809
 9102TIP3    H148721   4.033   4.805  12.254 -1.5191 -1.4919 -0.0806
 9102TIP3    H248722   3.911   4.869  12.190  0.4419  1.9276 -0.6856
 9103TIP3   OH248723   6.189   3.882  15.170  0.6157 -0.4856  0.5609
 9103TIP3    H148724   6.161   3.823  15.240 -1.9791 -1.0509 -0.8264
 9103TIP3    H248725   6.120   3.947  15.164  2.4466  1.5854  0.6952
 9104TIP3   OH248726   2.422   4.091   5.109 -0.6944  0.0085  0.1850
 9104TIP3    H148727   2.424   4.175   5.063 -1.3346 -0.0822 -0.0255
 9104TIP3    H248728   2.504   4.088   5.158  0.7979 -0.5864 -2.1660
 9105TIP3   OH248729   6.086   3.767  11.500  0.2247 -0.6243 -0.0492
 9105TIP3    H148730   6.048   3.854  11.486  0.7864 -0.4484 -0.5302
 9105TIP3    H248731   6.128   3.745  11.417 -1.2243 -2.0421 -0.4487
 9106TIP3   OH248732   4.271   1.858  16.868  0.5329 -0.5697 -0.0554
 9106TIP3    H148733   4.208   1.820  16.929 -1.4402 -0.3449 -1.8543
 9106TIP3    H248734   4.344   1.796  16.868 -0.5742 -1.9359  0.5624
 9107TIP3   OH248735   3.536   0.033   5.716 -0.2804  0.1006 -0.1588
 9107TIP3    H148736   3.587  -0.015   5.782  2.1232  2.6457  0.0225
 9107TIP3    H248737   3.559  -0.010   5.634  1.1262  0.3053  0.0908
 9108TIP3   OH248738   1.055   6.238   3.584  0.6313 -0.4790  0.1499
 9108TIP3    H148739   1.121   6.223   3.517  3.7232  1.6900  2.4321
 9108TIP3    H248740   1.060   6.161   3.640  2.6490  0.3824  1.2687
 9109TIP3   OH248741   5.999   0.336  17.143 -0.1994 -0.5070  0.5015
 9109TIP3    H148742   6.061   0.343  17.215  0.1417 -4.1419  0.7466
 9109TIP3    H248743   6.054   0.339  17.064 -0.0232 -1.0458  0.6014
 9110TIP3   OH248744   4.405   3.714  14.341 -0.7035  0.2962 -0.2311
 9110TIP3    H148745   4.460   3.792  14.337  0.1357 -0.1278  1.7195
 9110TIP3    H248746   4.448   3.657  14.405 -1.6449 -1.5010 -1.1002
 9111TIP3   OH248747   1.429   0.394  17.476 -0.0162 -0.3038 -0.4035
 9111TIP3    H148748   1.338   0.368  17.463 -0.3965  0.7966 -0.0209
 9111TIP3    H248749   1.479   0.312  17.467 -1.1005 -1.0428  0.0706
 9112TIP3   OH248750   0.504   4.134  14.529  0.1154  0.0735  0.2808
 9112TIP3    H148751   0.475   4.196  14.463 -0.2225 -1.0159 -0.6246
 9112TIP3    H248752   0.450   4.154  14.606 -1.6825 -0.6110 -0.7480
 9113TIP3   OH248753   5.784   3.472   2.422  0.3922 -0.3874  0.4401
 9113TIP3    H148754   5.849   3.470   2.493  1.6257  0.2858 -0.6243
 9113TIP3    H248755   5.774   3.381   2.396  1.4323 -0.4431  0.1860
 9114TIP3   OH248756   1.430   1.567  14.069  0.6422 -0.0814  0.2172
 9114TIP3    H148757   1.515   1.546  14.107  0.5543  0.3333  0.6522
 9114TIP3    H248758   1.383   1.484  14.066  1.4146 -0.5026 -0.9401
 9115TIP3   OH248759   4.321   6.518  14.478 -0.3968 -0.4894 -0.0157
 9115TIP3    H148760   4.371   6.534  14.398 -2.3974 -0.4976 -1.3293
 9115TIP3    H248761   4.233   6.496  14.447 -1.6288  0.9717  2.2135
 9116TIP3   OH248762   6.614   5.104   3.546 -0.3881  0.4248 -0.3666
 9116TIP3    H148763   6.704   5.080   3.568  0.7614  2.3898 -2.4640
 9116TIP3    H248764   6.563   5.025   3.565  1.7820 -0.8335  0.6790
 9117TIP3   OH248765   6.060   3.123  12.369  0.0709 -0.3957 -0.2270
 9117TIP3    H148766   5.974   3.118  12.328 -1.2667 -3.1476  2.4675
 9117TIP3    H248767   6.112   3.058  12.322 -0.4170 -1.1153  0.1927
 9118TIP3   OH248768   5.603   1.890  15.102 -0.2970  0.0376  1.2865
 9118TIP3    H148769   5.688   1.849  15.119 -0.4480 -0.8290  0.0627
 9118TIP3    H248770   5.551   1.870  15.180  0.0260 -1.0581  1.2346
 9119TIP3   OH248771   6.321   1.488   5.483  0.0791 -0.5285 -0.1660
 9119TIP3    H148772   6.416   1.489   5.468  0.2778 -1.9650  0.7285
 9119TIP3    H248773   6.309   1.540   5.563  0.0445  0.1187 -0.5925
 9120TIP3   OH248774   3.761   2.575   4.972 -0.1154  0.4012 -0.5083
 9120TIP3    H148775   3.712   2.632   5.032 -0.2179  0.7176 -0.8878
 9120TIP3    H248776   3.710   2.494   4.970 -1.2194  1.0862 -1.7015
 9121TIP3   OH248777   1.242   0.787   2.666  0.1618  0.2422  0.2964
 9121TIP3    H148778   1.208   0.869   2.630  2.5676  0.3041 -2.1301
 9121TIP3    H248779   1.309   0.815   2.729 -1.5241  0.0771  2.2793
 9122TIP3   OH248780   2.148   5.353  13.884 -0.3049 -0.4011 -0.1164
 9122TIP3    H148781   2.094   5.289  13.930  1.1085 -1.3902  0.2104
 9122TIP3    H248782   2.237   5.336  13.915  0.1839  1.3314 -0.4793
 9123TIP3   OH248783   0.001   1.343  12.774  0.5292 -0.4013  0.1315
 9123TIP3    H148784  -0.043   1.349  12.858  0.4178 -0.3442  0.0698
 9123TIP3    H248785  -0.069   1.350  12.709  0.7348  0.7404  0.0144
 9124TIP3   OH248786   3.665   3.146   1.937 -0.3836  0.2932  0.0679
 9124TIP3    H148787   3.637   3.181   1.852  0.2213  0.3846 -0.0925
 9124TIP3    H248788   3.677   3.223   1.992  1.0488  0.3652 -0.3156
 9125TIP3   OH248789   1.309   4.153   0.947 -0.1635  0.8317 -0.4376
 9125TIP3    H148790   1.225   4.162   0.991  0.7785  0.6074  1.5123
 9125TIP3    H248791   1.319   4.060   0.931  0.4963  0.6311  1.0212
 9126TIP3   OH248792   4.247   1.856   4.042  0.6392  0.3107 -0.2315
 9126TIP3    H148793   4.161   1.895   4.026  0.5795  0.1578 -0.2853
 9126TIP3    H248794   4.255   1.855   4.137  0.8652  0.9359 -0.2419
 9127TIP3   OH248795   2.241   6.014   1.309  0.0522  0.4769 -0.0606
 9127TIP3    H148796   2.163   6.065   1.288  0.8156  1.5058 -0.4877
 9127TIP3    H248797   2.209   5.943   1.365 -1.1867  0.8448 -0.2724
 9128TIP3   OH248798   1.462   0.975   3.480  0.1489  0.4800  0.0081
 9128TIP3    H148799   1.511   0.961   3.399  1.5021  0.5769  0.7822
 9128TIP3    H248800   1.449   1.070   3.483  1.6881  0.6878  0.7753
 9129TIP3   OH248801   2.965   3.201   5.147 -0.7851  0.2644 -0.1216
 9129TIP3    H148802   2.941   3.220   5.057 -0.9678  0.2490 -0.0753
 9129TIP3    H248803   2.978   3.106   5.149  2.6756  0.5680 -0.9941
 9130TIP3   OH248804   0.382   0.219   4.564  0.3608 -0.0784  0.4412
 9130TIP3    H148805   0.352   0.153   4.627  0.1365 -0.4643 -0.0555
 9130TIP3    H248806   0.308   0.230   4.504  0.0395  1.3318  1.0608
 9131TIP3   OH248807   1.834   3.163   5.571 -0.6751 -0.0827  0.1769
 9131TIP3    H148808   1.828   3.259   5.572  0.9160  0.1084  3.4377
 9131TIP3    H248809   1.749   3.134   5.604 -0.5898  0.2791  0.7200
 9132TIP3   OH248810   5.395   3.172   0.643  0.6160  0.6444 -0.2421
 9132TIP3    H148811   5.406   3.239   0.711  0.1670 -0.3803  0.8829
 9132TIP3    H248812   5.476   3.176   0.592  1.9808 -0.0485  1.7397
 9133TIP3   OH248813   1.494   4.335   1.032 -0.1340 -0.1934 -0.6634
 9133TIP3    H148814   1.457   4.415   0.994  0.5512  0.6301  0.3223
 9133TIP3    H248815   1.423   4.271   1.030 -0.9160  0.6624 -0.8424
 9134TIP3   OH248816   2.218   1.780  15.241  0.4319  0.2110 -0.0945
 9134TIP3    H148817   2.141   1.834  15.227 -0.8262 -1.1246  1.3681
 9134TIP3    H248818   2.287   1.841  15.267 -0.5355  1.2604  0.0318
 9135TIP3   OH248819   5.792   0.635  14.347  0.9638 -0.3517  0.4247
 9135TIP3    H148820   5.751   0.648  14.262 -1.7160 -1.2231  1.4779
 9135TIP3    H248821   5.838   0.717  14.365  0.7951  0.1942 -1.4113
 9136TIP3   OH248822   1.783   4.083  15.292 -0.0334  0.1960  0.2411
 9136TIP3    H148823   1.767   4.110  15.382  1.3969 -1.2567  0.9867
 9136TIP3    H248824   1.802   4.165  15.245 -0.4402  0.9344  1.3362
 9137TIP3   OH248825   2.195   0.588  16.949  0.5298  0.0739  0.1091
 9137TIP3    H148826   2.144   0.628  17.019 -0.7030 -1.4033  0.0980
 9137TIP3    H248827   2.249   0.660  16.915 -0.9726  1.5182  0.6211
 9138TIP3   OH248828   0.064   5.055  12.294 -0.8317  0.3829 -0.2314
 9138TIP3    H148829   0.007   5.053  12.370  0.4868  0.0748  0.8002
 9138TIP3    H248830   0.129   5.123  12.313  1.0475 -1.3946  0.1605
 9139TIP3   OH248831   5.496   5.021  11.378 -0.6813 -0.8938 -0.3295
 9139TIP3    H148832   5.410   4.981  11.390 -1.9542  1.7052  0.0083
 9139TIP3    H248833   5.509   5.073  11.457  0.0894  0.5722 -1.3674
 9140TIP3   OH248834   2.947   2.473   2.568 -0.0632 -0.9169  0.1950
 9140TIP3    H148835   2.987   2.472   2.481 -0.9358 -1.1276 -0.2204
 9140TIP3    H248836   3.020   2.470   2.628  0.6051  0.2717 -0.5226
 9141TIP3   OH248837   5.067   5.814   2.445 -0.7611  0.5109 -0.3290
 9141TIP3    H148838   5.054   5.814   2.540  0.6963  2.2417 -0.0780
 9141TIP3    H248839   4.979   5.827   2.409 -0.9557  3.5359  0.9526
 9142TIP3   OH248840   1.899   4.840  14.060 -0.3122 -0.0062 -0.6154
 9142TIP3    H148841   1.914   4.749  14.033  3.2552  0.1263  0.4304
 9142TIP3    H248842   1.843   4.832  14.138 -1.8983 -1.0825 -1.7950
 9143TIP3   OH248843   5.776   5.965   4.743 -0.5238 -0.2029  0.2754
 9143TIP3    H148844   5.847   5.962   4.679 -0.7222 -0.2367  0.0555
 9143TIP3    H248845   5.696   5.960   4.690 -0.6869 -0.3412  0.5339
 9144TIP3   OH248846   3.901   4.997   1.802 -0.1359 -0.0186  0.5927
 9144TIP3    H148847   3.890   5.075   1.856 -1.1408 -0.5802  1.2215
 9144TIP3    H248848   3.995   4.994   1.783 -0.0678  1.2566  0.6782
 9145TIP3   OH248849   1.419   4.116  16.713  0.2110 -0.2451 -0.0704
 9145TIP3    H148850   1.364   4.182  16.670  0.1316 -0.4927 -0.3523
 9145TIP3    H248851   1.372   4.095  16.794  0.3869  0.2630  0.1684
 9146TIP3   OH248852   4.687   6.642  14.114 -0.2085 -0.4194  0.5204
 9146TIP3    H148853   4.776   6.664  14.142 -0.6224  1.3727  0.5759
 9146TIP3    H248854   4.687   6.547  14.106  1.8381 -0.4404  0.1121
 9147TIP3   OH248855   5.455   5.115  13.382  0.0159  0.0383 -0.2328
 9147TIP3    H148856   5.432   5.045  13.443 -2.0770  1.0539  0.2389
 9147TIP3    H248857   5.451   5.195  13.434  1.0199  0.6680 -1.0731
 9148TIP3   OH248858   0.160   3.020   4.812  0.0043 -0.4747  0.7158
 9148TIP3    H148859   0.253   2.995   4.805 -0.0131 -1.5301  3.0769
 9148TIP3    H248860   0.139   3.004   4.904 -1.4737  3.5696  1.2539
 9149TIP3   OH248861   1.234   6.531  14.015  0.5935 -0.0507 -0.1876
 9149TIP3    H148862   1.146   6.529  14.052  0.2596 -1.8403 -1.0118
 9149TIP3    H248863   1.221   6.527  13.921  1.5485 -0.9063 -0.3004
 9150TIP3   OH248864   6.114   3.056   3.897  0.1499 -0.5097  0.1260
 9150TIP3    H148865   6.074   3.037   3.982 -1.0005 -0.3424 -0.3613
 9150TIP3    H248866   6.171   3.132   3.914 -0.3743 -0.2283  0.6631
 9151TIP3   OH248867   1.826   1.747   3.635 -0.3685  0.6182 -0.1745
 9151TIP3    H148868   1.758   1.783   3.692 -1.5892  0.7380 -1.6208
 9151TIP3    H248869   1.824   1.653   3.652 -0.9119  0.6189 -0.1932
 9152TIP3   OH248870   6.654   1.233  14.237  0.0029 -0.0742  0.5729
 9152TIP3    H148871   6.697   1.316  14.219 -0.7420 -0.0111 -1.0749
 9152TIP3    H248872   6.725   1.171  14.251  0.5820  0.9296  2.5425
 9153TIP3   OH248873   1.631   1.582  13.185 -0.2159 -0.5648  0.0362
 9153TIP3    H148874   1.550   1.625  13.157  1.3638  1.5728 -1.4685
 9153TIP3    H248875   1.620   1.571  13.280 -1.9496  0.3814 -0.0136
 9154TIP3   OH248876   1.572   3.396  15.523  0.6758 -0.1160 -0.1715
 9154TIP3    H148877   1.577   3.459  15.451  1.6401  0.5377  0.4418
 9154TIP3    H248878   1.623   3.321  15.493  2.1375  0.6470  0.2718
 9155TIP3   OH248879   5.853   5.954  15.522 -0.2699  0.1970  0.1373
 9155TIP3    H148880   5.910   5.902  15.466 -1.4351  0.3724 -1.2900
 9155TIP3    H248881   5.872   6.045  15.497  0.1279  0.3502  0.9769
 9156TIP3   OH248882   5.543   5.048   4.801 -0.4424 -0.5972 -0.1617
 9156TIP3    H148883   5.497   5.128   4.773  0.5142 -0.8158 -2.5660
 9156TIP3    H248884   5.523   5.041   4.894 -0.1679  2.7291  0.2704
 9157TIP3   OH248885   1.447   4.037  11.492  0.1872 -0.0381  1.0837
 9157TIP3    H148886   1.485   4.107  11.545 -0.5343 -0.0191  1.5876
 9157TIP3    H248887   1.362   4.021  11.531  0.5377 -1.5558  1.2847
 9158TIP3   OH248888   4.751   2.310   5.087  0.3419 -0.2310 -0.5117
 9158TIP3    H148889   4.720   2.374   5.151  1.7369 -2.8647  3.1485
 9158TIP3    H248890   4.841   2.339   5.067  1.2691 -1.3187  1.7634
 9159TIP3   OH248891   2.421   0.585   5.032 -0.3340  0.0805 -0.5742
 9159TIP3    H148892   2.421   0.678   5.011 -1.4844  0.4943  1.0685
 9159TIP3    H248893   2.345   0.550   4.984 -0.2425  0.0999 -0.7342
 9160TIP3   OH248894   4.817   5.729  13.945 -0.0943 -0.4954  0.2298
 9160TIP3    H148895   4.812   5.729  14.040 -0.0266 -1.5221  0.2470
 9160TIP3    H248896   4.760   5.657  13.918 -1.8295  1.1282 -0.6316
 9161TIP3   OH248897   1.439   5.769   2.743 -0.6280 -0.8555 -0.6329
 9161TIP3    H148898   1.381   5.726   2.806 -0.5285 -0.0714  0.0109
 9161TIP3    H248899   1.498   5.823   2.797 -1.4026  0.8849 -1.4393
 9162TIP3   OH248900   4.648   5.889   3.998  0.0960 -0.4184  0.2962
 9162TIP3    H148901   4.707   5.958   4.029 -1.0769  0.6499  0.2204
 9162TIP3    H248902   4.561   5.921   4.019 -0.6468 -0.5164 -2.3521
 9163TIP3   OH248903   5.941   0.357  12.011  0.5897  0.0807  0.0544
 9163TIP3    H148904   5.895   0.418  11.953  0.1100 -0.4421 -0.1213
 9163TIP3    H248905   6.034   0.368  11.989  0.4260  0.0129 -0.6937
 9164TIP3   OH248906   2.099   4.362   5.429  0.0285 -0.2894 -0.3428
 9164TIP3    H148907   2.139   4.416   5.497  0.2718  1.5321 -1.8653
 9164TIP3    H248908   2.172   4.333   5.375 -0.3883  0.8328 -1.5729
 9165TIP3   OH248909   3.274   3.123  15.230  0.0759 -0.1231 -0.0960
 9165TIP3    H148910   3.330   3.131  15.307  0.6645 -0.7334 -0.4505
 9165TIP3    H248911   3.282   3.208  15.185 -0.0278  0.1215  0.3409
 9166TIP3   OH248912   3.239   5.580   6.017  0.3790 -0.2598 -0.2217
 9166TIP3    H148913   3.332   5.567   6.038  0.4069  0.5987  0.2276
 9166TIP3    H248914   3.201   5.611   6.099 -0.1247  0.2705 -0.6562
 9167TIP3   OH248915   5.809   1.441  12.953 -0.5080  0.0728  0.0131
 9167TIP3    H148916   5.748   1.396  12.895  0.3615 -0.8411 -0.2109
 9167TIP3    H248917   5.757   1.463  13.030 -1.0588 -0.9159 -0.0702
 9168TIP3   OH248918   4.635   6.069   3.098 -0.3658 -0.6739 -0.1282
 9168TIP3    H148919   4.633   6.032   3.187 -0.9504 -0.3675 -0.0009
 9168TIP3    H248920   4.543   6.087   3.079 -0.1111  0.6526 -0.1991
 9169TIP3   OH248921   6.075   2.140  16.153  0.0943 -0.1034  0.6106
 9169TIP3    H148922   6.078   2.236  16.154  1.3027 -0.1065 -0.0710
 9169TIP3    H248923   6.040   2.116  16.238  2.9612  0.9089  2.2132
 9170TIP3   OH248924   2.903   3.317   4.903 -0.1848 -0.2221  0.1125
 9170TIP3    H148925   2.970   3.298   4.837 -1.0049 -2.3827 -0.1717
 9170TIP3    H248926   2.824   3.274   4.870 -0.4222 -2.1567  2.8506
 9171TIP3   OH248927   1.304   4.073  12.847  0.0813 -0.0299 -0.0246
 9171TIP3    H148928   1.230   4.131  12.828  0.1909  0.2319  0.3257
 9171TIP3    H248929   1.362   4.126  12.902  0.0782 -0.5487  0.4901
 9172TIP3   OH248930   5.791   6.696  13.733 -0.0083 -0.4164 -0.1299
 9172TIP3    H148931   5.841   6.646  13.798  0.0284  0.7629  0.7947
 9172TIP3    H248932   5.804   6.787  13.759 -1.4554 -0.0146 -0.7370
 9173TIP3   OH248933   0.583   0.245  15.021 -0.1276 -0.1064 -0.0216
 9173TIP3    H148934   0.652   0.299  15.059 -0.6789  0.8239 -0.3061
 9173TIP3    H248935   0.503   0.274  15.063 -0.5104 -0.2944 -0.6025
 9174TIP3   OH248936   5.825   6.146  12.498 -0.0053 -0.2474 -0.3917
 9174TIP3    H148937   5.730   6.150  12.482  0.1615 -0.7738 -1.5584
 9174TIP3    H248938   5.833   6.157  12.593 -1.2627 -0.6159 -0.2224
 9175TIP3   OH248939   0.073   2.033   4.967  0.4145 -0.2045  0.1682
 9175TIP3    H148940   0.030   2.097   5.024  1.5032  1.9081 -1.2528
 9175TIP3    H248941   0.036   2.050   4.880  2.2526  0.0027 -0.6284
 9176TIP3   OH248942   0.378   2.847   0.871  0.5501 -0.2418 -0.4894
 9176TIP3    H148943   0.304   2.797   0.837  0.2048  0.4775 -0.8159
 9176TIP3    H248944   0.453   2.818   0.819  0.0256  0.8761 -1.9374
 9177TIP3   OH248945   0.374   3.700   2.491 -0.3219 -0.1210  0.5937
 9177TIP3    H148946   0.466   3.718   2.511  0.2444 -1.3210 -0.7423
 9177TIP3    H248947   0.341   3.782   2.454 -0.4758  1.0551  3.0874
 9178TIP3   OH248948   3.957   1.494  15.153 -0.2205  0.0027  0.4664
 9178TIP3    H148949   3.874   1.536  15.132 -0.4840 -0.9268 -0.3645
 9178TIP3    H248950   3.958   1.413  15.102  1.3300  0.1483  0.2046
 9179TIP3   OH248951   0.914   5.304   5.994 -0.2146  0.1312 -0.4737
 9179TIP3    H148952   0.820   5.287   6.001  0.4977 -4.0390  3.9052
 9179TIP3    H248953   0.939   5.335   6.081  2.4592  1.8525 -1.7299
 9180TIP3   OH248954   1.578   0.058  16.572  0.2841 -0.5100  0.3495
 9180TIP3    H148955   1.595  -0.030  16.605 -1.9181 -0.7361  0.9843
 9180TIP3    H248956   1.556   0.045  16.480  1.0335 -0.4671  0.1525
 9181TIP3   OH248957   2.919   2.741  15.275  0.0327 -0.7807 -0.6687
 9181TIP3    H148958   2.949   2.717  15.362 -0.7761  0.6638  0.0411
 9181TIP3    H248959   2.996   2.780  15.233 -0.1547  0.6285  0.2444
 9182TIP3   OH248960   6.100   4.329  17.169  0.1918 -0.4891 -0.0392
 9182TIP3    H148961   6.100   4.407  17.113 -0.2564 -1.5455 -1.5994
 9182TIP3    H248962   6.095   4.256  17.107  0.3422 -1.7553  1.3844
 9183TIP3   OH248963   1.789   6.414  17.306  1.0362 -0.4480  0.9220
 9183TIP3    H148964   1.835   6.363  17.372 -1.7476 -1.0410  2.5841
 9183TIP3    H248965   1.757   6.492  17.353 -2.6290 -1.7901  0.9773
 9184TIP3   OH248966   6.630   0.666   2.688  0.6650  0.2328 -0.2531
 9184TIP3    H148967   6.667   0.686   2.602 -0.4339 -2.5258 -1.5153
 9184TIP3    H248968   6.703   0.630   2.738  1.4826  2.5246  0.3184
 9185TIP3   OH248969   1.638   5.106  13.650 -0.3471 -0.3617 -0.0541
 9185TIP3    H148970   1.603   5.055  13.722  0.4750  0.9334  1.3235
 9185TIP3    H248971   1.590   5.189  13.653 -0.2222 -0.2431 -0.9235
 9186TIP3   OH248972   0.023   4.877  12.921  0.3180 -0.4107 -0.2266
 9186TIP3    H148973  -0.000   4.810  12.985 -0.0334  1.6446  1.9611
 9186TIP3    H248974   0.089   4.930  12.965 -0.9518  1.9133 -0.9446
 9187TIP3   OH248975   2.392   3.999  12.989 -0.5184  0.0396  0.0997
 9187TIP3    H148976   2.443   4.069  13.029 -0.6887  0.1398  0.1437
 9187TIP3    H248977   2.327   3.974  13.055 -0.2024 -0.4370  0.2345
 9188TIP3   OH248978   5.392   4.401  13.994 -0.7767 -0.3860  0.4002
 9188TIP3    H148979   5.311   4.374  14.038 -1.4450  0.3354 -0.3633
 9188TIP3    H248980   5.368   4.406  13.901  0.5468 -1.6682 -0.0514
 9189TIP3   OH248981   1.569   0.523   1.354  0.1254 -0.0208  0.2223
 9189TIP3    H148982   1.510   0.448   1.343  0.4348 -0.6541  2.3574
 9189TIP3    H248983   1.645   0.503   1.298 -0.3698 -0.6557 -0.2316
 9190TIP3   OH248984   0.872   0.339  13.862  0.1614  0.0821  0.3745
 9190TIP3    H148985   0.780   0.364  13.877  0.1717 -0.5965  1.8086
 9190TIP3    H248986   0.920   0.383  13.932  0.8382 -0.1318  0.0492
 9191TIP3   OH248987   3.116   6.437  16.511  0.4977 -0.1746  0.0029
 9191TIP3    H148988   3.085   6.447  16.601 -1.0745  2.3292 -0.7130
 9191TIP3    H248989   3.036   6.426  16.459  1.0625  1.8781 -1.4187
 9192TIP3   OH248990   4.233   1.957   0.681 -0.2522 -0.5605 -0.1010
 9192TIP3    H148991   4.177   1.937   0.756 -1.2097  0.8590 -0.4049
 9192TIP3    H248992   4.306   2.007   0.718 -0.4075 -0.3843 -0.0333
 9193TIP3   OH248993   5.844   1.785   3.886 -0.1664  0.5385  0.3922
 9193TIP3    H148994   5.752   1.760   3.884  0.1014 -0.8343  2.0379
 9193TIP3    H248995   5.858   1.821   3.974  0.5965  1.9926 -0.2848
 9194TIP3   OH248996   3.612   5.782  17.218  0.0683  0.4732  0.5465
 9194TIP3    H148997   3.609   5.729  17.297 -1.0629 -1.3661 -0.6695
 9194TIP3    H248998   3.667   5.732  17.157  0.6194  1.6677  0.0201
 9195TIP3   OH248999   0.455   5.162  14.397 -0.9793 -0.1216 -0.6787
 9195TIP3    H149000   0.542   5.137  14.367  0.0554  0.0936  1.8889
 9195TIP3    H249001   0.429   5.233  14.340  1.7954  1.7389  0.1721
 9196TIP3   OH249002   2.941   3.128  15.908 -0.5277  0.8115  0.0656
 9196TIP3    H149003   2.898   3.134  15.822  0.1750 -0.2430 -0.3884
 9196TIP3    H249004   2.941   3.034  15.928  2.8494  0.5148 -0.6887
 9197TIP3   OH249005   3.366   0.696  12.235  0.4830 -0.5181  0.9207
 9197TIP3    H149006   3.434   0.726  12.175 -1.0797 -0.9724 -1.2136
 9197TIP3    H249007   3.351   0.605  12.210 -0.2217 -0.7116  2.0022
 9198TIP3   OH249008   4.327   0.536  13.328  0.1695  0.1839 -0.8464
 9198TIP3    H149009   4.258   0.601  13.320 -1.2491 -1.2738 -0.9125
 9198TIP3    H249010   4.361   0.547  13.416  1.5789  2.5120 -1.5921
 9199TIP3   OH249011   2.311   1.483   4.273 -0.6651 -0.3550 -0.2139
 9199TIP3    H149012   2.278   1.400   4.306 -0.9275  0.8227  2.8071
 9199TIP3    H249013   2.246   1.548   4.300  1.5232  1.3498  1.4451
 9200TIP3   OH249014   0.399   5.542  14.736  0.4719  0.3639  0.0303
 9200TIP3    H149015   0.342   5.525  14.811  0.9720 -0.0065  0.3303
 9200TIP3    H249016   0.445   5.624  14.759  0.2095  0.5546 -0.1224
 9201TIP3   OH249017   1.763   3.578  13.620 -0.2228 -0.4789 -0.4664
 9201TIP3    H149018   1.823   3.618  13.557  1.4026 -1.4714  0.3821
 9201TIP3    H249019   1.802   3.493  13.639 -0.6477 -0.1940  1.8973
 9202TIP3   OH249020   5.021   0.956   1.936 -0.3397 -0.3591 -0.4526
 9202TIP3    H149021   5.114   0.944   1.954 -0.2789  0.1727 -0.3796
 9202TIP3    H249022   5.001   0.893   1.867  0.0830 -0.4553 -0.4888
 9203TIP3   OH249023   1.875   4.932   2.095  0.1587 -0.4422 -0.0940
 9203TIP3    H149024   1.952   4.977   2.131 -0.4845 -0.0558  0.8607
 9203TIP3    H249025   1.838   4.884   2.170  0.5599 -2.2255 -0.9823
 9204TIP3   OH249026   5.940   6.381   2.613  0.6219 -0.6446 -0.6026
 9204TIP3    H149027   5.945   6.355   2.705  1.2147 -1.2903 -0.8067
 9204TIP3    H249028   5.897   6.308   2.569  0.9347 -0.6310 -0.9432
 9205TIP3   OH249029   1.908   5.925   3.468 -0.8957  0.0235  0.1211
 9205TIP3    H149030   1.858   5.858   3.515 -0.3972  0.1215  0.8126
 9205TIP3    H249031   1.877   6.008   3.505 -1.4052  0.1717 -0.6294
 9206TIP3   OH249032   5.350   6.488   2.791  0.0799  0.0616  0.0723
 9206TIP3    H149033   5.438   6.523   2.802  0.8200 -1.5045 -0.4593
 9206TIP3    H249034   5.293   6.550   2.836  1.5132  0.7830  0.9616
 9207TIP3   OH249035   1.363   1.279  11.891 -0.2062  0.4187  0.3440
 9207TIP3    H149036   1.284   1.278  11.945 -0.1747 -0.1132  0.3823
 9207TIP3    H249037   1.333   1.253  11.804 -0.2315  1.1365  0.1302
 9208TIP3   OH249038   1.429   1.260  12.765  0.0415 -0.3623 -0.3428
 9208TIP3    H149039   1.446   1.275  12.859  1.0245 -1.7233 -0.2771
 9208TIP3    H249040   1.412   1.166  12.758 -1.1330 -0.0952 -1.3953
 9209TIP3   OH249041   4.658   1.713   0.538  0.1560 -0.5373  0.3260
 9209TIP3    H149042   4.750   1.706   0.515  0.5515  0.4593  1.5681
 9209TIP3    H249043   4.620   1.767   0.468  0.4347 -1.1388 -0.3103
 9210TIP3   OH249044   1.837   5.360   1.701  0.0615 -0.6625  0.7792
 9210TIP3    H149045   1.790   5.282   1.732 -0.9041 -0.0150  0.9815
 9210TIP3    H249046   1.797   5.380   1.617 -2.1154  1.5526  2.1797
 9211TIP3   OH249047   4.098   5.667   2.953  0.2288 -0.1470 -0.4296
 9211TIP3    H149048   4.060   5.727   2.888  0.0647  1.0191  0.6966
 9211TIP3    H249049   4.033   5.665   3.023  0.9884 -0.3820  0.2702
 9212TIP3   OH249050   0.203   1.668   4.081 -0.7478  0.4178  0.0874
 9212TIP3    H149051   0.273   1.693   4.020 -2.6578  0.0475 -2.4547
 9212TIP3    H249052   0.245   1.610   4.144  1.0777 -0.5690 -1.9095
 9213TIP3   OH249053   6.363   0.417  11.209  0.4149 -0.7769 -0.1589
 9213TIP3    H149054   6.321   0.425  11.123 -0.9312  0.1463  0.5428
 9213TIP3    H249055   6.292   0.393  11.268  1.0129  0.1466  0.9702
 9214TIP3   OH249056   2.874   3.597   0.236  0.3729  0.9640  0.3274
 9214TIP3    H149057   2.863   3.503   0.247  2.7774  0.5321 -0.3580
 9214TIP3    H249058   2.847   3.634   0.320 -1.2474 -0.2183  0.3879
 9215TIP3   OH249059   5.872   1.252   1.501  0.2983  0.7560  0.1533
 9215TIP3    H149060   5.940   1.306   1.461 -0.6382  3.1666  1.5883
 9215TIP3    H249061   5.900   1.240   1.591 -0.2284  0.0666  0.2369
 9216TIP3   OH249062   1.448   5.980  16.524 -0.5630 -0.0712 -0.0190
 9216TIP3    H149063   1.384   5.909  16.523 -1.2936  0.5509 -1.6843
 9216TIP3    H249064   1.514   5.952  16.588 -2.5787 -0.6145  1.9428
 9217TIP3   OH249065   1.360   2.721  12.366 -0.3834  0.3649 -0.1710
 9217TIP3    H149066   1.415   2.799  12.357  0.2245  0.2037  1.6740
 9217TIP3    H249067   1.419   2.648  12.347 -0.1988  0.2402  0.8296
 9218TIP3   OH249068   5.435   4.033   3.420 -0.1315  0.3452 -0.4602
 9218TIP3    H149069   5.495   4.000   3.487 -2.4315 -0.8458  1.1747
 9218TIP3    H249070   5.461   4.124   3.406 -0.2357  1.0614  3.0312
 9219TIP3   OH249071   4.235   5.170  15.408 -0.6151  0.0798  0.1497
 9219TIP3    H149072   4.213   5.077  15.401 -1.2522  0.3370 -1.4529
 9219TIP3    H249073   4.177   5.203  15.476 -0.7515 -0.5739  0.3608
 9220TIP3   OH249074   1.263   4.719  15.929 -0.2422 -0.0569  0.1308
 9220TIP3    H149075   1.349   4.761  15.931 -1.4108  2.7211 -2.0571
 9220TIP3    H249076   1.219   4.750  16.007  0.2635 -0.4519  0.5826
 9221TIP3   OH249077   1.187   0.608  17.349 -0.2482  0.5817  0.2451
 9221TIP3    H149078   1.219   0.688  17.307 -0.0839  0.5942  0.3934
 9221TIP3    H249079   1.248   0.593  17.421  1.1546 -0.9414 -1.1516
 9222TIP3   OH249080   6.634   1.874  17.270  0.4439  0.0378  0.4234
 9222TIP3    H149081   6.561   1.920  17.311 -0.0581 -1.3501  1.1616
 9222TIP3    H249082   6.640   1.912  17.182 -0.9114  0.4579  0.4862
 9223TIP3   OH249083   5.258   1.005  12.279  0.1855 -0.9008  0.2801
 9223TIP3    H149084   5.347   1.016  12.246  1.2172 -1.1588  2.7298
 9223TIP3    H249085   5.213   1.086  12.255  1.9578  0.5157  1.4094
 9224TIP3   OH249086   4.280   2.287  11.063  0.2770 -0.1668  0.0924
 9224TIP3    H149087   4.283   2.239  11.145 -1.3675 -0.0142  0.2764
 9224TIP3    H249088   4.228   2.365  11.082 -0.1414 -0.1290 -1.0824
 9225TIP3   OH249089   1.855   2.463  13.593  0.0705  0.2192  0.4986
 9225TIP3    H149090   1.838   2.382  13.641 -0.4914  0.7139  1.1428
 9225TIP3    H249091   1.796   2.527  13.632  0.8525  1.0686  0.3182
 9226TIP3   OH249092   3.047   6.181  15.837 -0.0739 -0.3422  0.0845
 9226TIP3    H149093   3.128   6.222  15.806 -0.8804  1.1767 -0.1482
 9226TIP3    H249094   3.070   6.139  15.919  0.7689  0.7864  0.4442
 9227TIP3   OH249095   6.696   0.046  10.845 -0.5408  0.1506 -0.1064
 9227TIP3    H149096   6.643   0.051  10.765 -1.3031 -0.4517  0.3427
 9227TIP3    H249097   6.632   0.050  10.916  0.2808  3.3990  0.5800
 9228TIP3   OH249098   2.451   2.197   0.119  0.2673  0.2311 -0.3843
 9228TIP3    H149099   2.477   2.280   0.159 -0.0797 -0.4286  1.2822
 9228TIP3    H249100   2.532   2.165   0.077  1.1773  0.0445  1.4349
 9229TIP3   OH249101   0.808   5.182  13.370  0.1768 -0.3551 -0.4187
 9229TIP3    H149102   0.716   5.196  13.348  0.1774 -0.4342 -0.4714
 9229TIP3    H249103   0.828   5.095  13.336 -0.2079 -1.0624  1.0799
 9230TIP3   OH249104   4.498   3.290  15.191 -0.4307  0.2593 -0.1650
 9230TIP3    H149105   4.583   3.293  15.236 -0.3138  0.6652 -0.4029
 9230TIP3    H249106   4.450   3.365  15.224 -1.2881 -0.7980  1.0859
 9231TIP3   OH249107   2.995   0.779  16.305 -0.2401 -0.1264  0.0226
 9231TIP3    H149108   2.917   0.744  16.348 -0.3154  1.7721  1.6424
 9231TIP3    H249109   2.973   0.783  16.212 -1.4176 -1.2114  0.2411
 9232TIP3   OH249110   6.035   0.341   2.770  0.1228  0.3203 -0.4034
 9232TIP3    H149111   6.067   0.413   2.716 -1.7845  1.4481 -0.1271
 9232TIP3    H249112   5.998   0.279   2.707  0.4708  0.2576 -0.5506
 9233TIP3   OH249113   3.252   3.281   3.861 -0.1987  0.1177 -0.2005
 9233TIP3    H149114   3.307   3.205   3.882 -0.5249 -0.1993 -0.4865
 9233TIP3    H249115   3.312   3.355   3.863  0.0592 -0.1019  0.4157
 9234TIP3   OH249116   0.014   2.999   6.497  0.1024 -0.1485 -0.1822
 9234TIP3    H149117   0.080   2.930   6.490 -0.6230 -0.7692 -1.0741
 9234TIP3    H249118  -0.024   2.986   6.584  2.2007  1.2134  1.0149
 9235TIP3   OH249119   0.340   2.564  13.389  0.5279 -0.1721 -0.0272
 9235TIP3    H149120   0.383   2.631  13.442  1.8652 -1.5332  0.7136
 9235TIP3    H249121   0.383   2.569  13.304 -0.2138  0.6759 -0.3679
 9236TIP3   OH249122   1.268   5.241  12.416  0.2155 -0.3509 -0.3203
 9236TIP3    H149123   1.173   5.254  12.408  0.5080  1.6211 -1.1678
 9236TIP3    H249124   1.281   5.222  12.509 -0.8838  0.8110  0.1009
 9237TIP3   OH249125   1.658   5.452  13.430 -0.5299  0.2632  0.1867
 9237TIP3    H149126   1.607   5.372  13.414 -2.8325  2.1016 -2.7609
 9237TIP3    H249127   1.609   5.497  13.498  0.9813 -0.8723  2.1295
 9238TIP3   OH249128   3.883   5.010   0.213 -0.2688  0.5559  0.5882
 9238TIP3    H149129   3.838   4.928   0.233  1.9185 -0.8244  0.2015
 9238TIP3    H249130   3.822   5.058   0.157 -0.5354 -2.1055 -1.6235
 9239TIP3   OH249131   0.346   0.199  14.451 -0.1681  0.3804  0.0379
 9239TIP3    H149132   0.359   0.175  14.359  0.0171 -1.1908  0.4469
 9239TIP3    H249133   0.280   0.268  14.448 -1.4207 -0.8014 -1.1828
 9240TIP3   OH249134   5.981   4.674   4.239  0.7945  0.1534 -0.0585
 9240TIP3    H149135   5.939   4.684   4.324  2.2615 -2.8922  1.1446
 9240TIP3    H249136   6.049   4.742   4.238 -0.3931  1.4094  0.3478
 9241TIP3   OH249137   4.499   4.351  11.724  0.2007 -0.0857 -0.1137
 9241TIP3    H149138   4.587   4.383  11.744 -0.3943  0.9711  0.9732
 9241TIP3    H249139   4.513   4.269  11.677  1.7680  0.3893 -0.5400
 9242TIP3   OH249140   2.542   6.445   3.222 -0.3554  0.4565  0.4081
 9242TIP3    H149141   2.629   6.446   3.262  0.2962 -0.6566 -0.8746
 9242TIP3    H249142   2.486   6.491   3.284  0.7883 -0.3141  2.0935
 9243TIP3   OH249143   4.681   5.704   1.834 -0.3587  0.0569 -0.2017
 9243TIP3    H149144   4.629   5.703   1.915  0.1943  0.7838  0.1741
 9243TIP3    H249145   4.762   5.660   1.858 -0.4950 -0.4177 -0.5872
 9244TIP3   OH249146   4.330   3.896  14.799  0.2898  0.3283  0.4764
 9244TIP3    H149147   4.244   3.877  14.761  0.1575 -0.5518  1.1802
 9244TIP3    H249148   4.324   3.987  14.826  0.3816  0.9852 -1.5572
 9245TIP3   OH249149   0.895   6.001  13.831  0.1106 -0.0829 -0.0005
 9245TIP3    H149150   0.967   6.052  13.868  0.3910 -0.0791 -0.5297
 9245TIP3    H249151   0.903   6.016  13.736 -2.0210  1.8638  0.0301
 9246TIP3   OH249152   3.023   4.736   5.079 -0.1028 -0.4275 -0.6000
 9246TIP3    H149153   3.036   4.641   5.086 -2.2453 -0.7120  0.2582
 9246TIP3    H249154   2.929   4.746   5.068 -0.0377  1.6534  0.3381
 9247TIP3   OH249155   3.457   6.305   1.362  0.5282  0.2585  0.3899
 9247TIP3    H149156   3.458   6.244   1.288  1.3783 -1.1803  1.5409
 9247TIP3    H249157   3.549   6.319   1.382  0.3089  1.0295  0.8617
 9248TIP3   OH249158   3.604   0.315   0.021 -0.5949  0.3150 -0.1245
 9248TIP3    H149159   3.668   0.379  -0.010 -1.1750  0.6119 -0.7288
 9248TIP3    H249160   3.533   0.368   0.057 -0.4303 -0.0146  0.7059
 9249TIP3   OH249161   5.716   4.131   2.078  0.3880  0.9718 -0.2029
 9249TIP3    H149162   5.762   4.056   2.117  2.2221  1.6231 -1.0234
 9249TIP3    H249163   5.625   4.100   2.069 -0.4167  0.9373  4.9631
 9250TIP3   OH249164   2.097   0.165   3.666  0.5213 -0.1488 -0.5893
 9250TIP3    H149165   2.157   0.224   3.713 -0.8128  1.4453 -0.7857
 9250TIP3    H249166   2.031   0.141   3.731 -0.4918  0.8571 -1.2094
 9251TIP3   OH249167   5.657   2.866   6.837 -0.3436 -0.2939 -0.3095
 9251TIP3    H149168   5.601   2.849   6.913  0.4419 -0.4759  0.2415
 9251TIP3    H249169   5.666   2.781   6.794 -1.1741 -0.0980 -0.8825
 9252TIP3   OH249170   1.739   5.711   3.543  0.6903  0.1232  0.2070
 9252TIP3    H149171   1.702   5.623   3.551  0.7205  0.2264  1.7420
 9252TIP3    H249172   1.667   5.770   3.563  0.4591  0.5109 -1.5958
 9253TIP3   OH249173   3.990   6.653  15.971  0.2553  0.0844 -0.3158
 9253TIP3    H149174   3.987   6.591  15.898  2.6245 -0.5165  0.0209
 9253TIP3    H249175   4.042   6.726  15.938  0.5884  0.2073  0.4640
 9254TIP3   OH249176   0.339   4.952  17.000 -0.6442 -0.4585 -0.1819
 9254TIP3    H149177   0.395   4.962  17.078 -0.7851 -2.0103  0.1450
 9254TIP3    H249178   0.260   4.911  17.033 -0.6269 -1.3244 -1.1846
 9255TIP3   OH249179   4.449   0.112  14.062 -0.0627 -0.2548 -0.0633
 9255TIP3    H149180   4.533   0.067  14.073  0.0394  0.2285  1.2892
 9255TIP3    H249181   4.410   0.070  13.985  1.3336 -0.6025 -0.6159
 9256TIP3   OH249182   2.199   5.618   0.323  0.1104 -0.4666 -0.4760
 9256TIP3    H149183   2.248   5.643   0.401 -0.7765 -0.7531  0.1794
 9256TIP3    H249184   2.115   5.586   0.356 -0.2677 -0.6100 -1.5442
 9257TIP3   OH249185   1.297   3.575   4.167 -0.5674  0.5903 -0.2191
 9257TIP3    H149186   1.210   3.597   4.136 -1.0590 -0.7200  0.1505
 9257TIP3    H249187   1.346   3.550   4.089 -1.2077 -0.7974 -0.2086
 9258TIP3   OH249188   2.317   2.982  13.983 -0.7690 -0.3233  0.4081
 9258TIP3    H149189   2.227   2.997  14.010 -1.2759 -1.1779 -0.7012
 9258TIP3    H249190   2.310   2.960  13.890  0.5456 -0.7579  0.3932
 9259TIP3   OH249191   1.444   0.859  16.563 -0.4773 -0.1169  0.2489
 9259TIP3    H149192   1.480   0.927  16.506  0.3844 -0.3367  0.5149
 9259TIP3    H249193   1.365   0.830  16.517 -1.2706  1.5447  0.4988
 9260TIP3   OH249194   0.498   0.534  10.744 -0.4102  0.1042 -0.1984
 9260TIP3    H149195   0.475   0.443  10.726 -0.3804 -0.0630  0.6034
 9260TIP3    H249196   0.432   0.585  10.695  0.9502 -0.2716 -2.6021
 9261TIP3   OH249197   2.653   4.054  13.789 -0.3731 -0.0036  0.0239
 9261TIP3    H149198   2.672   3.965  13.818 -0.5563 -1.3434 -3.3956
 9261TIP3    H249199   2.559   4.065  13.804 -0.6531 -1.0249 -0.8142
 9262TIP3   OH249200   1.998   5.766  14.445 -0.1728  0.3655  0.1991
 9262TIP3    H149201   1.979   5.857  14.464  0.7271  0.7531 -0.6469
 9262TIP3    H249202   2.092   5.765  14.427 -0.0486 -0.8379  0.7966
 9263TIP3   OH249203   2.897   1.869   4.861  0.1782 -0.1026 -0.4491
 9263TIP3    H149204   2.992   1.879   4.850  0.2384 -0.9952 -0.8659
 9263TIP3    H249205   2.870   1.947   4.910  1.3339 -0.4836  0.8621
 9264TIP3   OH249206   1.843   0.052  17.089  0.2191  0.3361 -0.0743
 9264TIP3    H149207   1.878   0.060  17.000  0.8641  1.1587  0.2375
 9264TIP3    H249208   1.762   0.003  17.079  0.7393 -0.3538 -1.0083
 9265TIP3   OH249209   5.524   2.796  15.043  0.4821 -0.1390 -0.2979
 9265TIP3    H149210   5.543   2.748  14.963 -0.0344  0.7765 -0.9851
 9265TIP3    H249211   5.593   2.861  15.051  0.1127  0.2795 -0.4285
 9266TIP3   OH249212   4.475   0.115   3.538 -0.1955  0.1527 -0.0040
 9266TIP3    H149213   4.513   0.031   3.514 -0.1791 -0.3663  1.6762
 9266TIP3    H249214   4.381   0.098   3.546 -0.1549  0.1995  0.6367
 9267TIP3   OH249215   1.484   4.922   0.780 -0.4742 -0.4340  0.2909
 9267TIP3    H149216   1.518   5.006   0.812 -0.9413 -0.6083  1.2891
 9267TIP3    H249217   1.446   4.943   0.695  1.7365 -0.1673 -0.6942
 9268TIP3   OH249218   0.556   4.520  13.389  0.2352  0.1335  0.6440
 9268TIP3    H149219   0.603   4.511  13.472  1.7409 -0.2295 -0.2194
 9268TIP3    H249220   0.547   4.431  13.356 -0.4443  0.2672  0.4613
 9269TIP3   OH249221   5.579   4.514  17.355 -0.5484  0.2226  0.3847
 9269TIP3    H149222   5.536   4.583  17.304 -0.3819  1.1698  1.5041
 9269TIP3    H249223   5.662   4.552  17.383 -0.4202 -0.4563  0.9674
 9270TIP3   OH249224   6.095   4.718  13.045  0.2189 -0.2722 -1.2238
 9270TIP3    H149225   6.178   4.745  13.083 -0.2634 -1.6466  1.0342
 9270TIP3    H249226   6.118   4.659  12.974  1.1567  0.0786 -1.2182
 9271TIP3   OH249227   2.367   2.217  11.688 -0.1342  0.1230 -0.2492
 9271TIP3    H149228   2.458   2.245  11.697  0.0519 -0.0527 -1.4027
 9271TIP3    H249229   2.316   2.297  11.700  0.1436  0.1641  0.7223
 9272TIP3   OH249230   0.771   6.014   2.023  0.1446 -0.2428  0.5640
 9272TIP3    H149231   0.688   5.984   1.986  0.3591 -0.2069  0.0470
 9272TIP3    H249232   0.775   6.107   2.001  1.0335 -0.5741 -0.7825
 9273TIP3   OH249233   5.977   5.673   1.833 -0.0994  0.1586  0.0110
 9273TIP3    H149234   5.895   5.625   1.823 -0.0114 -0.2500  1.0684
 9273TIP3    H249235   5.950   5.765   1.840 -0.5727 -0.0606  1.3498
 9274TIP3   OH249236   0.162   2.629   3.653 -0.4845 -0.2137  0.3628
 9274TIP3    H149237   0.091   2.568   3.667 -2.0961  1.2180 -1.0471
 9274TIP3    H249238   0.188   2.658   3.740 -2.1576 -0.1989  0.8751
 9275TIP3   OH249239   0.185   6.615   6.404 -0.4857 -0.6052 -0.4458
 9275TIP3    H149240   0.263   6.559   6.409 -0.7326 -0.8460  1.9948
 9275TIP3    H249241   0.210   6.685   6.345  0.5495 -2.2043 -2.0005
 9276TIP3   OH249242   4.923   0.063   3.330  0.0248  0.1852 -0.8618
 9276TIP3    H149243   4.911  -0.001   3.260 -2.6320  0.1984 -0.5484
 9276TIP3    H249244   4.980   0.130   3.292  1.7092 -1.6091 -1.6747
 9277TIP3   OH249245   4.521   0.226  17.389 -0.2596 -0.5213  0.0450
 9277TIP3    H149246   4.607   0.218  17.430 -0.0807  1.5131  0.1544
 9277TIP3    H249247   4.463   0.257  17.459 -0.4279  0.8790 -0.6771
 9278TIP3   OH249248   5.201   6.437   4.512  0.3031 -0.2711  0.2297
 9278TIP3    H149249   5.166   6.527   4.513  1.5341  0.2454 -0.7376
 9278TIP3    H249250   5.289   6.446   4.550 -0.2983 -1.4276  1.9981
 9279TIP3   OH249251   3.471   5.629   4.931  0.1846  0.6179  0.0163
 9279TIP3    H149252   3.492   5.637   5.025 -0.3751  1.9734  0.0609
 9279TIP3    H249253   3.380   5.600   4.930  0.9016 -1.7843 -0.1516
 9280TIP3   OH249254   6.622   5.262  16.340 -0.0204  0.2625  0.0993
 9280TIP3    H149255   6.595   5.353  16.329 -1.1522 -0.2113 -1.3816
 9280TIP3    H249256   6.670   5.242  16.260  0.9120 -0.2265  0.7668
 9281TIP3   OH249257   5.261   5.615   0.321  0.5537 -0.0514 -0.1029
 9281TIP3    H149258   5.208   5.648   0.249  1.3015 -0.1074 -0.6953
 9281TIP3    H249259   5.324   5.556   0.279  0.1564 -1.1235  0.7599
 9282TIP3   OH249260   3.720   3.727  12.970  0.0057 -0.1738  0.0640
 9282TIP3    H149261   3.785   3.781  13.014 -0.0492  1.2520 -1.4897
 9282TIP3    H249262   3.758   3.640  12.968  1.2789  0.3535  0.3687
 9283TIP3   OH249263   1.400   2.454   5.632  0.1165  0.4768  0.5620
 9283TIP3    H149264   1.312   2.443   5.596  0.4634  1.0120 -0.4729
 9283TIP3    H249265   1.387   2.451   5.727 -1.0431  0.7440  0.4313
 9284TIP3   OH249266   6.693   6.219   2.540  0.2246  0.0626 -0.1593
 9284TIP3    H149267   6.678   6.297   2.593 -0.4836 -0.7722  0.9235
 9284TIP3    H249268   6.619   6.162   2.560  0.6910 -0.8671 -0.9848
 9285TIP3   OH249269   4.574   2.060  15.483  0.5574  0.5447 -0.2750
 9285TIP3    H149270   4.638   2.049  15.553  1.5870 -0.7470 -1.3696
 9285TIP3    H249271   4.490   2.037  15.523  1.2096 -0.7351  0.3910
 9286TIP3   OH249272   2.509   2.305   0.782 -0.1163  0.4282  0.0389
 9286TIP3    H149273   2.574   2.291   0.851 -1.1738  0.8919  1.1687
 9286TIP3    H249274   2.504   2.222   0.736  1.1404  0.3352  0.0441
 9287TIP3   OH249275   1.583   5.463  15.190  0.0791  0.7671  0.5493
 9287TIP3    H149276   1.656   5.405  15.168 -1.3443 -1.4545  1.3757
 9287TIP3    H249277   1.572   5.454  15.284 -2.1586 -0.1017  0.2562
 9288TIP3   OH249278   0.033   4.529  15.407 -0.0166 -0.1379 -0.0429
 9288TIP3    H149279   0.012   4.564  15.494 -1.0637 -0.5717 -0.1041
 9288TIP3    H249280   0.039   4.606  15.351 -1.6354  0.0278 -0.0402
 9289TIP3   OH249281   3.421   3.571  10.707  0.4492  0.0675 -0.8692
 9289TIP3    H149282   3.342   3.624  10.700 -0.1267 -0.5720  0.4135
 9289TIP3    H249283   3.444   3.573  10.800  2.0521  0.3655 -1.2338
 9290TIP3   OH249284   0.800   0.988   1.501 -0.1468 -0.6467  0.0331
 9290TIP3    H149285   0.829   1.072   1.467  0.6068 -0.9309 -0.0363
 9290TIP3    H249286   0.850   0.923   1.452 -0.2329 -1.1140  0.5509
 9291TIP3   OH249287   5.096   5.748   5.677 -0.5479 -0.4042  0.3351
 9291TIP3    H149288   5.107   5.682   5.609 -0.1066 -1.7285  1.6355
 9291TIP3    H249289   5.182   5.753   5.719 -0.8208  0.3470  0.8279
 9292TIP3   OH249290   0.663   3.809  12.882  0.8381  0.3259 -0.5352
 9292TIP3    H149291   0.746   3.858  12.886  0.5003  0.8533  0.4795
 9292TIP3    H249292   0.615   3.850  12.810  1.1733  0.4961 -0.6665
 9293TIP3   OH249293   2.883   5.325  15.047 -0.0225 -0.9358  0.2631
 9293TIP3    H149294   2.805   5.346  14.995 -0.6328 -2.4355  0.4939
 9293TIP3    H249295   2.947   5.392  15.024 -1.2962  0.1994 -0.1187
 9294TIP3   OH249296   3.721   6.331   1.510 -0.2209 -0.3244 -0.3081
 9294TIP3    H149297   3.783   6.360   1.578 -0.3388  0.3311 -0.4667
 9294TIP3    H249298   3.703   6.240   1.531 -1.8013  0.3794  1.7765
 9295TIP3   OH249299   0.259   2.489  15.055 -0.2432  0.5231 -0.1362
 9295TIP3    H149300   0.352   2.492  15.033 -0.8023  0.8650 -2.7540
 9295TIP3    H249301   0.249   2.553  15.125  1.8994 -1.4994  2.1844
 9296TIP3   OH249302   6.414   6.246  15.623 -0.3089 -0.8557 -0.3387
 9296TIP3    H149303   6.488   6.186  15.634 -0.2718 -0.5551  1.2857
 9296TIP3    H249304   6.337   6.189  15.616  0.0236 -1.1612 -1.7870
 9297TIP3   OH249305   6.224   6.669  10.954  0.2339  0.3112 -0.0536
 9297TIP3    H149306   6.210   6.585  10.911 -1.0929  0.1001  0.7484
 9297TIP3    H249307   6.148   6.722  10.931 -1.4553 -0.3883  3.2844
 9298TIP3   OH249308   6.656   3.119   4.015  0.0910 -0.4458 -0.1876
 9298TIP3    H149309   6.631   3.191   3.957 -2.6949  1.2500  2.7713
 9298TIP3    H249310   6.723   3.157   4.072  1.3287 -1.4559 -0.9098
 9299TIP3   OH249311   3.210   0.878  11.695 -0.0200 -0.0988  0.2629
 9299TIP3    H149312   3.284   0.916  11.742 -1.0353  1.8780  0.3509
 9299TIP3    H249313   3.166   0.823  11.759  1.8418 -2.1081 -0.0424
 9300TIP3   OH249314   0.870   1.639  17.500 -0.4385  0.2059 -0.6550
 9300TIP3    H149315   0.852   1.615  17.409 -1.1503 -0.4421 -0.3514
 9300TIP3    H249316   0.794   1.691  17.527 -0.0427  0.7404 -0.5458
 9301TIP3   OH249317   4.705   3.857  11.451  0.4008 -0.3156  0.3835
 9301TIP3    H149318   4.776   3.805  11.489 -0.4664 -0.8083  1.3744
 9301TIP3    H249319   4.720   3.852  11.356  1.4266 -0.7648  0.5503
 9302TIP3   OH249320   1.232   5.430  13.741 -0.3939 -0.1505  0.3738
 9302TIP3    H149321   1.196   5.480  13.814 -1.1688 -1.2038  0.7258
 9302TIP3    H249322   1.188   5.346  13.745  2.8995 -1.9894  1.5234
 9303TIP3   OH249323   0.483   6.316   0.342 -0.5209  0.1316  0.0613
 9303TIP3    H149324   0.468   6.245   0.404 -0.1065 -1.0840 -1.1763
 9303TIP3    H249325   0.576   6.336   0.350 -0.5765  0.3345  0.2029
 9304TIP3   OH249326   5.030   1.063  16.823  0.0930  0.3753  0.3074
 9304TIP3    H149327   5.093   1.097  16.759  1.0602  0.5284  1.3026
 9304TIP3    H249328   4.987   1.140  16.859 -0.0900  0.3226  0.2047
 9305TIP3   OH249329   1.861   3.205   6.359 -0.0510 -0.0969 -0.5186
 9305TIP3    H149330   1.857   3.120   6.316 -0.6403  0.7911 -2.3472
 9305TIP3    H249331   1.945   3.242   6.332 -0.6701  0.7019 -1.4071
 9306TIP3   OH249332   0.128   5.513   5.333  0.6106  0.7203 -0.1608
 9306TIP3    H149333   0.118   5.448   5.263 -0.5570  1.5458 -0.7870
 9306TIP3    H249334   0.071   5.481   5.403  0.3383  0.8623 -0.3166
 9307TIP3   OH249335   5.992   5.598  16.754  0.2461 -0.3488  0.0893
 9307TIP3    H149336   6.071   5.544  16.761 -0.5260 -1.3091  3.4181
 9307TIP3    H249337   5.933   5.562  16.820 -1.7503  2.3441 -0.0632
 9308TIP3   OH249338   1.546   2.054   0.971 -0.3652  0.1585  0.2261
 9308TIP3    H149339   1.529   2.136   0.924  0.7032  0.9541  1.1711
 9308TIP3    H249340   1.640   2.055   0.988 -0.5531 -0.6074  1.4507
 9309TIP3   OH249341   5.703   5.237  12.549  0.2115 -0.2551 -0.3271
 9309TIP3    H149342   5.740   5.154  12.579  2.1207  1.2117  1.6228
 9309TIP3    H249343   5.643   5.212  12.478 -1.5958 -3.5704  2.0967
 9310TIP3   OH249344   1.080   4.037   2.585 -0.0600 -0.4224 -0.1690
 9310TIP3    H149345   1.130   3.956   2.592 -0.5764 -0.6568  1.1845
 9310TIP3    H249346   1.065   4.064   2.676 -1.4093  0.2424 -0.5579
 9311TIP3   OH249347   6.357   4.425   3.638  0.2536  0.3814  0.4444
 9311TIP3    H149348   6.281   4.392   3.591 -0.2194  1.2756  0.5675
 9311TIP3    H249349   6.422   4.442   3.570 -0.3088  1.3483  0.1313
 9312TIP3   OH249350   5.127   6.645   1.995 -0.2752  0.2165  1.0129
 9312TIP3    H149351   5.094   6.576   2.053  0.9499 -2.3656 -1.1712
 9312TIP3    H249352   5.099   6.619   1.908  2.0656  1.2889 -0.1507
 9313TIP3   OH249353   2.148   2.883   1.709 -0.1009 -0.0171 -0.0393
 9313TIP3    H149354   2.225   2.829   1.728 -0.2317 -0.8659 -1.7716
 9313TIP3    H249355   2.074   2.832   1.744 -0.0230  0.1526  0.3861
 9314TIP3   OH249356   0.615   3.468  16.250 -0.7574  0.3767  0.0254
 9314TIP3    H149357   0.595   3.466  16.343 -2.4243 -0.5211 -0.3341
 9314TIP3    H249358   0.659   3.385  16.232 -1.0349  0.2641 -0.1287
 9315TIP3   OH249359   5.356   1.078   0.649 -0.3857  0.0966  0.2547
 9315TIP3    H149360   5.397   1.034   0.723 -0.9874  1.0510  1.1763
 9315TIP3    H249361   5.422   1.073   0.579  0.4839 -0.1679  1.0761
 9316TIP3   OH249362   4.332   3.945   3.663 -0.5436 -0.2369  0.1923
 9316TIP3    H149363   4.384   3.868   3.641 -1.5288 -0.7531 -0.3836
 9316TIP3    H249364   4.397   4.015   3.674  0.2142 -0.5167 -1.9706
 9317TIP3   OH249365   0.720   1.740  16.477  0.2336 -0.0849  0.1250
 9317TIP3    H149366   0.626   1.753  16.477  0.3146  0.5060  0.4386
 9317TIP3    H249367   0.758   1.828  16.478  0.8172 -0.2281 -2.2311
 9318TIP3   OH249368   2.648   5.334  16.878 -0.6717 -0.1424  0.3662
 9318TIP3    H149369   2.652   5.246  16.840 -1.2266  0.0717 -0.2107
 9318TIP3    H249370   2.603   5.387  16.811  1.3493  1.0444 -0.1470
 9319TIP3   OH249371   1.341   2.201  11.169 -0.5842 -0.2675 -0.2873
 9319TIP3    H149372   1.329   2.115  11.128  0.0062  0.3185 -1.7698
 9319TIP3    H249373   1.257   2.244  11.158 -0.0306  0.4324 -2.3317
 9320TIP3   OH249374   3.835   1.230  13.153  0.0942 -0.7555 -0.2613
 9320TIP3    H149375   3.821   1.246  13.060  2.5880 -1.0816 -0.7836
 9320TIP3    H249376   3.755   1.188  13.183 -1.1988  0.3167 -1.9781
 9321TIP3   OH249377   5.495   2.567   3.698 -0.0278 -0.2083  0.3014
 9321TIP3    H149378   5.402   2.557   3.677 -0.6252  2.2732  1.3394
 9321TIP3    H249379   5.503   2.531   3.787  0.2374 -1.2417 -0.1248
 9322TIP3   OH249380   5.840   3.133   4.662 -0.1912  0.2936  0.2620
 9322TIP3    H149381   5.863   3.223   4.640 -0.1311 -0.1294 -1.5192
 9322TIP3    H249382   5.804   3.097   4.581 -2.8347 -0.4668  1.6559
 9323TIP3   OH249383   0.739   1.209   1.235  0.1018  0.1451 -0.2230
 9323TIP3    H149384   0.777   1.250   1.157  0.2237  0.6777  0.1099
 9323TIP3    H249385   0.791   1.243   1.308  0.3369 -0.7686  0.0487
 9324TIP3   OH249386   3.348   2.295   1.837  0.0052  0.0009 -0.6312
 9324TIP3    H149387   3.252   2.300   1.837  0.0541  2.5904  1.1262
 9324TIP3    H249388   3.369   2.256   1.922  0.5733 -3.0372 -2.0126
 9325TIP3   OH249389   5.841   1.290   3.320 -0.0879 -0.3507 -0.1516
 9325TIP3    H149390   5.890   1.208   3.328  0.6678  0.1095  0.0518
 9325TIP3    H249391   5.851   1.315   3.228  1.3693  0.5251  0.2208
 9326TIP3   OH249392   6.241   4.131   2.548  0.0937  0.4574 -0.0140
 9326TIP3    H149393   6.153   4.160   2.570  0.7601  0.5562  2.9823
 9326TIP3    H249394   6.243   4.039   2.573  0.1212 -0.3460 -2.6597
 9327TIP3   OH249395   0.002   0.429   0.191 -0.7587 -0.0584  0.6891
 9327TIP3    H149396   0.084   0.474   0.170 -0.5740 -0.4171  0.6315
 9327TIP3    H249397  -0.042   0.487   0.253  0.0861 -0.4276  1.6576
 9328TIP3   OH249398   4.580   1.876   0.104  0.8585 -0.4431 -0.0299
 9328TIP3    H149399   4.516   1.921   0.049 -1.8705 -0.3601  2.9830
 9328TIP3    H249400   4.630   1.946   0.145  1.6850 -0.4637 -0.9577
 9329TIP3   OH249401   3.072   0.117  14.535 -0.0291  0.0296 -0.1596
 9329TIP3    H149402   2.997   0.152  14.487 -0.0589 -0.5784 -0.5671
 9329TIP3    H249403   3.147   0.166  14.501 -0.2944  0.9892  0.6071
 9330TIP3   OH249404   2.978   5.336   3.240  0.8599  0.3679  0.5750
 9330TIP3    H149405   3.010   5.426   3.235  0.1225  0.5481 -1.4933
 9330TIP3    H249406   2.896   5.343   3.288 -0.1597  1.1268 -1.1890
 9331TIP3   OH249407   3.159   6.503   5.147  0.0341  0.5346 -0.4253
 9331TIP3    H149408   3.161   6.437   5.216 -2.2180  0.0772 -0.7226
 9331TIP3    H249409   3.084   6.479   5.093  0.0370  2.5054 -1.3903
 9332TIP3   OH249410   0.444   6.707  17.318 -0.1827 -0.0404  0.8431
 9332TIP3    H149411   0.511   6.758  17.271 -0.9989  0.6386  0.3774
 9332TIP3    H249412   0.485   6.622  17.333  0.0799 -0.3539 -1.2769
 9333TIP3   OH249413   4.671   4.064  11.977 -0.1562 -0.2418  0.5482
 9333TIP3    H149414   4.590   4.016  11.959  0.6694 -2.0515  1.3461
 9333TIP3    H249415   4.721   4.058  11.895  0.4198 -1.8383  0.9696
 9334TIP3   OH249416   0.179   1.840   6.198 -0.1199  0.0449 -0.1326
 9334TIP3    H149417   0.204   1.897   6.126 -0.4556 -0.1701 -0.4243
 9334TIP3    H249418   0.169   1.754   6.158 -1.6931  0.1866 -0.1242
 9335TIP3   OH249419   6.302   2.374  17.213 -0.0040  0.6458 -0.4757
 9335TIP3    H149420   6.372   2.318  17.246  0.5796  1.9827  0.6129
 9335TIP3    H249421   6.269   2.326  17.136  1.5002 -0.4322 -0.5121
 9336TIP3   OH249422   5.575   3.678   2.043 -0.1863  0.1244  0.4284
 9336TIP3    H149423   5.528   3.730   1.978  2.3789  0.3105 -1.4522
 9336TIP3    H249424   5.509   3.655   2.108 -2.3051  2.2561 -0.8068
 9337TIP3   OH249425   4.654   1.345  16.871  0.3357 -0.1549  0.3492
 9337TIP3    H149426   4.560   1.326  16.865  0.5049 -0.8283 -0.1966
 9337TIP3    H249427   4.697   1.263  16.848  1.0848  0.9273 -2.5437
 9338TIP3   OH249428   1.573   6.115   4.961 -0.6003 -0.4041 -0.2932
 9338TIP3    H149429   1.639   6.074   5.017  0.5917  2.1324  0.2772
 9338TIP3    H249430   1.515   6.161   5.022  0.1410  1.5862 -1.0091
 9339TIP3   OH249431   6.545   2.243   2.722 -0.2913  0.1239  0.2291
 9339TIP3    H149432   6.567   2.322   2.673 -1.1473  0.7679  0.8504
 9339TIP3    H249433   6.630   2.202   2.740  0.5336  2.5276  2.5532
 9340TIP3   OH249434   2.949   6.087  12.422  0.4662  0.0186  0.2644
 9340TIP3    H149435   2.872   6.094  12.479 -1.4767 -1.5754 -1.9912
 9340TIP3    H249436   2.982   6.177  12.414 -2.3459  1.0987 -0.2093
 9341TIP3   OH249437   4.808   1.002   4.252  0.1143 -0.1353  0.1543
 9341TIP3    H149438   4.860   1.038   4.180 -0.7378  2.1629  0.6188
 9341TIP3    H249439   4.754   0.935   4.211 -0.7672  1.5039 -1.5097
 9342TIP3   OH249440   3.375   4.354   5.494  0.2946  0.0380  0.2028
 9342TIP3    H149441   3.381   4.260   5.478  0.6761  0.1150 -0.1531
 9342TIP3    H249442   3.466   4.384   5.493  0.2216  0.3122  0.9514
 9343TIP3   OH249443   0.909   3.390   5.268 -0.4078 -0.4655 -0.1770
 9343TIP3    H149444   0.976   3.337   5.313 -0.0345  0.3726  0.2649
 9343TIP3    H249445   0.871   3.329   5.204 -0.4878 -1.4885  0.8047
 9344TIP3   OH249446   0.428   1.236   1.844  0.2329 -0.1303 -0.3854
 9344TIP3    H149447   0.473   1.174   1.902 -0.4760 -2.7679 -2.4431
 9344TIP3    H249448   0.499   1.284   1.801  0.7993  0.7327  1.3985
 9345TIP3   OH249449   3.552   1.705   5.532  0.3230 -0.6971  0.3294
 9345TIP3    H149450   3.611   1.645   5.486  0.9205 -1.2773  1.7708
 9345TIP3    H249451   3.524   1.655   5.610  1.9379  1.3162  2.3449
 9346TIP3   OH249452   4.043   4.960   5.318  0.3261 -0.3780 -0.4741
 9346TIP3    H149453   4.073   4.938   5.406 -0.1982 -0.5126 -0.3254
 9346TIP3    H249454   4.068   5.051   5.306  1.1422 -0.5939 -0.5065
 9347TIP3   OH249455   2.542   3.400   3.624  0.5572 -0.2517 -0.5670
 9347TIP3    H149456   2.512   3.491   3.629  0.2991 -0.3829  0.5888
 9347TIP3    H249457   2.635   3.405   3.647  0.3618 -0.3546  0.2963
 9348TIP3   OH249458   3.454   3.034   1.065  0.5297  0.1417  0.3089
 9348TIP3    H149459   3.493   3.099   1.124  1.2297  0.7860 -0.8237
 9348TIP3    H249460   3.400   2.980   1.122  1.5556  0.4329  1.6219
 9349TIP3   OH249461   2.787   3.151  10.862  0.0967 -0.1371 -0.3028
 9349TIP3    H149462   2.725   3.217  10.893 -2.7506 -2.6695 -0.1634
 9349TIP3    H249463   2.804   3.097  10.938  1.2524 -0.4380 -0.7571
 9350TIP3   OH249464   0.015   6.641   2.209 -0.2113 -0.1576  0.1604
 9350TIP3    H149465  -0.007   6.575   2.274 -0.0126  1.2208  1.6839
 9350TIP3    H249466  -0.027   6.721   2.241  0.8960  0.8317 -0.7706
 9351TIP3   OH249467   0.035   0.305  15.054 -0.5274  0.3297 -0.4277
 9351TIP3    H149468   0.104   0.246  15.024 -0.2603  0.3955  0.0370
 9351TIP3    H249469   0.006   0.350  14.975  0.1975  0.5383 -0.5857
 9352TIP3   OH249470   5.658   4.828   2.035 -0.3163  0.3075 -0.3508
 9352TIP3    H149471   5.579   4.881   2.041 -2.0128 -2.1048  0.1597
 9352TIP3    H249472   5.650   4.782   1.951 -0.3544 -1.2160  0.4475
 9353TIP3   OH249473   4.048   5.328   4.752 -0.0654  0.6386 -0.0332
 9353TIP3    H149474   4.139   5.355   4.737  0.7338  0.0719  2.9539
 9353TIP3    H249475   3.997   5.408   4.744  0.9552  1.3034 -0.1372
 9354TIP3   OH249476   2.660   3.930   4.937 -0.4891 -0.1909  0.4474
 9354TIP3    H149477   2.588   3.885   4.892  0.1917 -1.2096  0.3381
 9354TIP3    H249478   2.637   3.925   5.030 -0.5612 -0.5169  0.4135
 9355TIP3   OH249479   5.138   6.715   5.379 -0.3376 -0.1704  0.0799
 9355TIP3    H149480   5.123   6.703   5.473  0.3313  0.9898  0.3560
 9355TIP3    H249481   5.054   6.743   5.344 -0.5495 -0.4553  0.3561
 9356TIP3   OH249482   3.675   4.179   3.390 -0.3878 -0.8011  0.0570
 9356TIP3    H149483   3.602   4.240   3.403 -1.6385 -2.0216 -0.9412
 9356TIP3    H249484   3.633   4.093   3.387  1.1023 -1.5319 -0.5546
 9357TIP3   OH249485   6.312   3.138  17.286  0.1978  0.1558 -0.1805
 9357TIP3    H149486   6.345   3.121  17.374 -2.7946 -0.7409  0.8708
 9357TIP3    H249487   6.353   3.222  17.261  0.0527  1.1574  2.6430
 9358TIP3   OH249488   3.023   6.011   2.973  0.2479  0.3176  0.5081
 9358TIP3    H149489   3.007   6.016   3.067 -1.2470 -0.1479  0.3157
 9358TIP3    H249490   2.940   6.039   2.933  0.5455 -0.3595 -0.6477
 9359TIP3   OH249491   2.519   1.379   4.098  0.3721  0.5224 -0.4267
 9359TIP3    H149492   2.453   1.413   4.158  0.9539  0.2966  0.3563
 9359TIP3    H249493   2.599   1.375   4.150  0.5885 -0.9685 -0.8185
 9360TIP3   OH249494   2.061   0.403  17.188  0.0521 -0.1734 -0.4746
 9360TIP3    H149495   2.084   0.407  17.281 -1.9661  0.5236  0.0593
 9360TIP3    H249496   2.054   0.495  17.162 -0.0482 -0.3656 -1.1325
 9361TIP3   OH249497   0.884   0.959   1.969 -0.0945 -0.2563  0.4065
 9361TIP3    H149498   0.958   1.012   1.942 -0.0724 -0.6746 -0.3993
 9361TIP3    H249499   0.878   0.890   1.902  0.5146 -1.8821  1.9354
 9362TIP3   OH249500   3.566   1.632  17.005 -0.6055  0.1166  0.2489
 9362TIP3    H149501   3.563   1.679  16.922 -1.6600  0.6027  0.5454
 9362TIP3    H249502   3.659   1.623  17.025 -0.3727  2.0326  0.1542
 9363TIP3   OH249503   1.292   4.127  16.294  0.1675  0.8338  0.2638
 9363TIP3    H149504   1.233   4.184  16.244  0.4257 -0.7462 -1.9724
 9363TIP3    H249505   1.233   4.067  16.340 -0.0300  1.0522  0.3007
 9364TIP3   OH249506   3.066   1.071  14.125 -0.6055 -0.2150  0.0820
 9364TIP3    H149507   2.986   1.021  14.142 -0.6036 -0.3804 -0.4067
 9364TIP3    H249508   3.086   1.055  14.033  0.0005 -0.1880  0.2061
 9365TIP3   OH249509   3.637   0.195  12.120  0.4726 -0.4826  0.8279
 9365TIP3    H149510   3.646   0.201  12.025 -0.3867  0.4257  0.7911
 9365TIP3    H249511   3.576   0.265  12.144 -1.3346 -2.2227  1.7495
 9366TIP3   OH249512   1.179   4.889   6.307  0.0539  0.0679  0.8636
 9366TIP3    H149513   1.267   4.881   6.344 -0.1025 -1.4286  0.9578
 9366TIP3    H249514   1.192   4.892   6.213  0.4794  4.1746  0.8499
 9367TIP3   OH249515   1.144   2.991   0.564 -0.1917 -0.1528  0.1085
 9367TIP3    H149516   1.163   3.073   0.609 -1.4648  1.9155 -2.7740
 9367TIP3    H249517   1.068   2.955   0.610 -0.2482  0.8231  0.8183
 9368TIP3   OH249518   5.262   4.170   2.503  0.3231 -0.4210  0.4066
 9368TIP3    H149519   5.313   4.241   2.543 -2.9194  1.1817  2.0965
 9368TIP3    H249520   5.188   4.215   2.461 -1.3513 -2.7383  0.7108
 9369TIP3   OH249521   4.406   1.110   5.724 -0.1012 -0.2580 -0.2680
 9369TIP3    H149522   4.347   1.127   5.798  0.4398  1.0273 -0.1110
 9369TIP3    H249523   4.363   1.153   5.650 -0.0780 -0.5697 -0.4622
 9370TIP3   OH249524   1.399   1.686   1.271  0.2083 -0.8963  0.1796
 9370TIP3    H149525   1.350   1.687   1.353  1.3492  0.6387  0.8907
 9370TIP3    H249526   1.488   1.661   1.296  0.9156  0.9327 -0.3275
 9371TIP3   OH249527   5.530   0.758  15.049  0.5793 -0.6001 -0.0334
 9371TIP3    H149528   5.541   0.757  15.144  1.4426 -0.1341 -0.1134
 9371TIP3    H249529   5.619   0.768  15.015  0.1362  0.8156 -0.8484
 9372TIP3   OH249530   4.404   6.363  16.014 -0.2819 -0.6572  0.4572
 9372TIP3    H149531   4.452   6.281  16.001 -1.7877 -1.5453  0.2764
 9372TIP3    H249532   4.320   6.349  15.970 -2.2181 -0.5813  3.8041
 9373TIP3   OH249533   6.687   0.241   2.086 -0.2693 -0.1904  0.2421
 9373TIP3    H149534   6.630   0.311   2.053 -1.2653 -0.3801  1.4696
 9373TIP3    H249535   6.627   0.178   2.125  0.7270 -0.9696  0.5500
 9374TIP3   OH249536   0.357   4.093   0.506 -0.1070 -0.5985 -0.0990
 9374TIP3    H149537   0.404   4.012   0.485 -0.7359 -0.7672 -0.8874
 9374TIP3    H249538   0.269   4.080   0.471 -1.1923 -0.8057  2.4797
 9375TIP3   OH249539   4.155   6.107  14.187  0.3389  0.1298 -0.1534
 9375TIP3    H149540   4.220   6.038  14.170 -1.3300 -0.8375 -3.3712
 9375TIP3    H249541   4.110   6.079  14.267  1.9407 -0.6577  0.5233
 9376TIP3   OH249542   0.577   1.071   2.004 -0.3272 -0.3800 -0.1024
 9376TIP3    H149543   0.665   1.095   2.033 -1.0388  0.0348  1.8463
 9376TIP3    H249544   0.592   1.016   1.927  1.6353 -0.3249  0.1781
 9377TIP3   OH249545   2.897   0.034   4.778 -0.0907  0.3446 -0.1795
 9377TIP3    H149546   2.853  -0.036   4.731  1.0996 -0.1308 -0.6129
 9377TIP3    H249547   2.961   0.068   4.716  0.4588  0.7281  0.5785
 9378TIP3   OH249548   5.993   5.571  11.142 -0.1032 -0.8548  0.4103
 9378TIP3    H149549   6.057   5.552  11.074 -0.0221  1.0166 -0.1114
 9378TIP3    H249550   6.045   5.584  11.222  0.1727  0.3195  0.0622
 9379TIP3   OH249551   5.282   4.566  15.915 -0.1336  0.0529 -0.2622
 9379TIP3    H149552   5.215   4.508  15.879  1.0655 -0.7506 -1.2819
 9379TIP3    H249553   5.233   4.641  15.950 -1.6418 -1.0992  0.2031
 9380TIP3   OH249554   2.880   3.247  15.663 -0.7066 -0.1575  0.1993
 9380TIP3    H149555   2.797   3.294  15.656 -0.2767  0.6329  0.3014
 9380TIP3    H249556   2.890   3.203  15.579 -0.9755  0.1797 -0.0096
 9381TIP3   OH249557   1.905   1.006   5.244 -0.5261  0.3422  0.5435
 9381TIP3    H149558   1.966   0.939   5.215  1.4054  1.5964  1.5047
 9381TIP3    H249559   1.891   0.987   5.337 -2.0555 -0.2413  0.2167
 9382TIP3   OH249560   3.960   3.620  13.504  0.0097  0.0178 -0.0682
 9382TIP3    H149561   3.959   3.651  13.594 -2.1074  0.0610 -0.0726
 9382TIP3    H249562   3.995   3.531  13.510  1.1191  0.4758  0.5943
 9383TIP3   OH249563   1.858   0.058  13.594  0.0788 -0.3749  0.3129
 9383TIP3    H149564   1.888   0.013  13.515 -1.6585  0.9888 -1.2057
 9383TIP3    H249565   1.771   0.091  13.572 -0.1820  0.6727  2.5701
 9384TIP3   OH249566   0.543   0.727   1.229  0.2172  0.0398 -0.1377
 9384TIP3    H149567   0.459   0.704   1.189 -0.3529  0.9536  0.4974
 9384TIP3    H249568   0.541   0.823   1.234  1.4328  0.0936 -0.3884
 9385TIP3   OH249569   5.521   2.780   1.760 -0.2100  0.0117  0.4562
 9385TIP3    H149570   5.448   2.780   1.821 -2.0303  2.2524 -1.5311
 9385TIP3    H249571   5.586   2.838   1.799  0.1126 -1.1107  1.6944
 9386TIP3   OH249572   1.757   1.463  10.346 -0.1335 -0.6549  0.3028
 9386TIP3    H149573   1.681   1.480  10.402 -0.2819  0.7188 -0.2553
 9386TIP3    H249574   1.829   1.510  10.388  0.0472 -0.6983  0.0445
 9387TIP3   OH249575   4.928   2.417   4.039  0.3231  1.0434 -0.0801
 9387TIP3    H149576   4.930   2.490   4.102  1.8050  1.3864 -0.5064
 9387TIP3    H249577   4.975   2.346   4.083 -1.2294  0.2568  0.3866
 9388TIP3   OH249578   3.848   6.179  11.347  0.5358  0.2877 -0.1564
 9388TIP3    H149579   3.856   6.104  11.407  1.9722  0.1479 -0.4680
 9388TIP3    H249580   3.802   6.144  11.271  1.3751 -0.3604 -0.3860
 9389TIP3   OH249581   5.820   4.470  12.110  0.0441  0.0308  0.4712
 9389TIP3    H149582   5.838   4.383  12.145 -2.3917 -1.5516 -1.8089
 9389TIP3    H249583   5.865   4.473  12.026 -1.7263 -0.0142 -0.5365
 9390TIP3   OH249584   0.533   1.515  11.532 -0.4544 -0.2625 -0.4196
 9390TIP3    H149585   0.628   1.526  11.539 -0.1307 -0.9568 -2.9552
 9390TIP3    H249586   0.499   1.602  11.514 -0.1314 -0.2407 -0.9188
 9391TIP3   OH249587   3.053   2.879  14.346 -0.1140  0.0592 -0.1816
 9391TIP3    H149588   3.038   2.831  14.427 -0.1009  1.2318  0.5452
 9391TIP3    H249589   3.147   2.874  14.331 -0.0312  0.3890  0.2328
 9392TIP3   OH249590   2.110   6.708  11.706 -0.5351 -0.3356 -0.0028
 9392TIP3    H149591   2.020   6.678  11.718  0.8445 -3.9888  2.9484
 9392TIP3    H249592   2.139   6.667  11.625 -1.2822  0.3176 -0.6146
 9393TIP3   OH249593   5.078   0.626  12.216 -0.1318  0.5840 -0.4283
 9393TIP3    H149594   5.096   0.707  12.264 -1.2312 -0.4312  1.8439
 9393TIP3    H249595   4.999   0.645  12.166 -0.2061  1.0153 -0.1516
 9394TIP3   OH249596   2.121   0.172   4.337 -0.1956 -0.0169 -0.4274
 9394TIP3    H149597   2.135   0.162   4.243 -0.0155 -1.7053 -0.2596
 9394TIP3    H249598   2.057   0.103   4.358 -2.0070  1.8011  0.3229
 9395TIP3   OH249599   3.351   2.822   5.470  0.4070 -0.1959  0.2704
 9395TIP3    H149600   3.277   2.844   5.413  1.2005 -0.8425 -1.0539
 9395TIP3    H249601   3.429   2.847   5.419  1.1197  0.3659  1.5873
 9396TIP3   OH249602   1.696   1.215  14.165  0.2495  0.0132 -0.6991
 9396TIP3    H149603   1.658   1.189  14.081  1.1775 -0.1798 -1.0688
 9396TIP3    H249604   1.787   1.234  14.145  1.0110 -1.9542  0.6040
 9397TIP3   OH249605   1.135   2.555   1.436 -0.0123 -0.2833  0.2209
 9397TIP3    H149606   1.225   2.562   1.404 -0.8952  0.8677 -2.2153
 9397TIP3    H249607   1.140   2.586   1.527  2.2282 -1.4548  0.5563
 9398TIP3   OH249608   2.743   4.210   3.719  0.6694  0.1603  0.6175
 9398TIP3    H149609   2.801   4.179   3.650  2.7754  1.4069  1.7055
 9398TIP3    H249610   2.729   4.133   3.775  1.4605 -0.1196  0.4432
 9399TIP3   OH249611   0.268   5.242  12.361  0.3106  0.2290 -0.6160
 9399TIP3    H149612   0.362   5.259  12.348  0.5457  0.0902  0.7940
 9399TIP3    H249613   0.245   5.294  12.437 -1.2350  1.7817 -2.0506
 9400TIP3   OH249614   4.733   3.665   5.910  0.5338 -0.7324 -0.0830
 9400TIP3    H149615   4.765   3.715   5.985 -1.0328  2.5138 -1.3953
 9400TIP3    H249616   4.653   3.622   5.942 -0.0050  0.4490  0.1959
 9401TIP3   OH249617   4.013   1.944   4.268  0.1470  0.6213 -0.6747
 9401TIP3    H149618   4.095   1.904   4.297 -0.6549  0.1787  1.0878
 9401TIP3    H249619   3.953   1.932   4.341 -1.4010  1.2637 -1.7894
 9402TIP3   OH249620   3.325   5.210   1.067  0.7211  0.4405  0.1950
 9402TIP3    H149621   3.410   5.172   1.043  0.5471  0.4814 -0.4968
 9402TIP3    H249622   3.284   5.231   0.983  0.7018  1.9164  0.5592
 9403TIP3   OH249623   2.305   1.145  10.848  0.6780 -0.1427  0.4500
 9403TIP3    H149624   2.266   1.143  10.760  0.4310  0.0700  0.5519
 9403TIP3    H249625   2.296   1.056  10.880  0.4004 -0.1280  0.4156
 9404TIP3   OH249626   4.870   4.387   2.698  0.0066 -0.2528 -0.0803
 9404TIP3    H149627   4.953   4.340   2.691 -0.1690 -1.1084  2.3160
 9404TIP3    H249628   4.893   4.474   2.731 -0.0429 -1.0883  2.4377
 9405TIP3   OH249629   4.967   3.381  16.879 -0.3554 -0.2102  0.0582
 9405TIP3    H149630   5.000   3.292  16.868 -0.8549 -0.4148  0.1999
 9405TIP3    H249631   5.041   3.437  16.856 -0.0906 -0.6598 -0.1998
 9406TIP3   OH249632   0.898   3.186   3.323  0.1369  0.2814  0.7428
 9406TIP3    H149633   0.849   3.247   3.268 -0.3182  1.5027  2.4217
 9406TIP3    H249634   0.892   3.103   3.277 -3.7417  0.2748  0.9330
 9407TIP3   OH249635   0.133   2.577  16.548 -0.7050  0.1758  0.9974
 9407TIP3    H149636   0.062   2.635  16.576 -0.1171  1.0231  0.7468
 9407TIP3    H249637   0.162   2.612  16.465  0.1859 -0.0161  1.2200
 9408TIP3   OH249638   3.397   1.179  17.261  0.2141 -0.1822  0.1803
 9408TIP3    H149639   3.341   1.142  17.192 -0.6255 -0.4100  0.9663
 9408TIP3    H249640   3.373   1.272  17.264 -0.4998 -0.3774  0.8506
 9409TIP3   OH249641   4.264   6.549  15.727  0.4737 -0.0538 -0.1715
 9409TIP3    H149642   4.292   6.587  15.810  0.1525 -1.1824  0.4673
 9409TIP3    H249643   4.190   6.604  15.699 -2.0648 -1.9529  2.2980
 9410TIP3   OH249644   3.377   2.851   2.905  0.0725  0.0713  0.5761
 9410TIP3    H149645   3.387   2.785   2.837  1.2353  1.5350 -0.7503
 9410TIP3    H249646   3.343   2.802   2.980 -2.8568 -1.3510 -1.4483
 9411TIP3   OH249647   3.514   3.822  16.051 -0.1399 -0.5280  0.3015
 9411TIP3    H149648   3.468   3.896  16.012 -0.1075 -0.6719 -0.0116
 9411TIP3    H249649   3.487   3.746  15.998 -0.3905 -0.7864  0.7879
 9412TIP3   OH249650   4.126   3.243   2.366  0.1521  0.2545 -0.2884
 9412TIP3    H149651   4.118   3.269   2.458  1.4557 -1.9533  0.5277
 9412TIP3    H249652   4.193   3.302   2.331  0.2680  0.5563  0.4112
 9413TIP3   OH249653   0.597   5.334   3.512 -0.7108 -0.1334  0.6282
 9413TIP3    H149654   0.522   5.321   3.454 -0.0674 -0.5064 -0.1416
 9413TIP3    H249655   0.630   5.421   3.488  0.3982 -0.8548 -0.5840
 9414TIP3   OH249656   5.183   5.160  11.428  0.0679  0.2561 -0.4649
 9414TIP3    H149657   5.111   5.171  11.367 -0.3921 -1.8910 -0.3902
 9414TIP3    H249658   5.221   5.075  11.406  2.4442  1.1969 -0.3357
 9415TIP3   OH249659   5.678   6.071  11.632  0.2900  0.3236  0.6920
 9415TIP3    H149660   5.671   6.117  11.716  0.8997 -0.8279  1.4182
 9415TIP3    H249661   5.643   5.983  11.651 -0.5466  0.3782 -0.5501
 9416TIP3   OH249662   5.370   6.077   1.119 -0.3142  0.2748 -0.5248
 9416TIP3    H149663   5.427   6.055   1.193 -1.1977  0.6513  0.2947
 9416TIP3    H249664   5.417   6.146   1.072  1.0897 -1.2048 -1.3825
 9417TIP3   OH249665   4.488   3.743   3.563  0.2360  0.0820  0.3173
 9417TIP3    H149666   4.536   3.716   3.642  0.3896  0.0407  0.2104
 9417TIP3    H249667   4.482   3.663   3.511 -1.4418 -0.3326  1.0884
 9418TIP3   OH249668   4.106   4.578   5.467  0.3705 -0.1541  0.3064
 9418TIP3    H149669   4.053   4.654   5.493 -1.6459 -2.2042  2.8318
 9418TIP3    H249670   4.158   4.557   5.544  0.9837 -1.2803 -0.3781
 9419TIP3   OH249671   6.649   0.095   3.084  0.0528  0.0126  0.4640
 9419TIP3    H149672   6.656   0.019   3.142 -1.4549  0.2714  1.0096
 9419TIP3    H249673   6.559   0.126   3.094  0.4066  1.4103 -0.3482
 9420TIP3   OH249674   6.392   5.441  15.062  0.5201 -0.1699  0.6937
 9420TIP3    H149675   6.398   5.433  14.967 -1.6805  1.6378  0.3079
 9420TIP3    H249676   6.393   5.536  15.078 -1.9873 -0.2889  2.1318
 9421TIP3   OH249677   3.567   4.490   5.287 -0.5507  0.0117 -0.2050
 9421TIP3    H149678   3.594   4.427   5.354 -1.4307 -0.1444  0.0189
 9421TIP3    H249679   3.633   4.482   5.218 -0.3180 -0.7120  0.0972
 9422TIP3   OH249680   4.940   4.757   0.621  0.6010  0.1926  0.0156
 9422TIP3    H149681   4.846   4.768   0.614  0.2273 -2.1323  0.6076
 9422TIP3    H249682   4.968   4.737   0.531  0.3517 -0.1860  0.0195
 9423TIP3   OH249683   4.229   1.238  12.621 -0.2347  0.0983  0.3751
 9423TIP3    H149684   4.219   1.303  12.551 -2.0592 -0.9537 -0.4106
 9423TIP3    H249685   4.197   1.282  12.699  0.8231  0.9292  0.3636
 9424TIP3   OH249686   1.319   2.900   5.892  0.5651 -0.6734  0.1606
 9424TIP3    H149687   1.324   2.989   5.927 -2.7235 -1.2237  2.5606
 9424TIP3    H249688   1.383   2.850   5.942  0.8484 -0.0651  0.4062
 9425TIP3   OH249689   3.861   3.848  14.217  0.5521  0.2652 -0.1518
 9425TIP3    H149690   3.880   3.755  14.227  0.6979  0.2034 -0.9207
 9425TIP3    H249691   3.841   3.879  14.306  0.0050 -0.6020  0.0352
 9426TIP3   OH249692   5.122   1.298  15.762  0.2980  0.3836  0.2918
 9426TIP3    H149693   5.144   1.205  15.768 -1.4819 -0.1269 -0.4579
 9426TIP3    H249694   5.039   1.306  15.809  1.2722  1.9629  1.8798
 9427TIP3   OH249695   2.264   2.496   0.150  0.6143  0.9103 -0.3500
 9427TIP3    H149696   2.261   2.450   0.066  0.2785 -0.1701  0.2400
 9427TIP3    H249697   2.209   2.573   0.136 -1.1728 -0.3346 -0.5165
 9428TIP3   OH249698   1.628   5.918   2.874 -0.5805 -0.5105 -0.2429
 9428TIP3    H149699   1.668   5.994   2.832 -2.4385  0.2326 -0.7376
 9428TIP3    H249700   1.690   5.893   2.943  1.7914 -0.7834 -2.3381
 9429TIP3   OH249701   1.176   6.114  13.138 -0.2525  0.2074 -0.3252
 9429TIP3    H149702   1.163   6.197  13.184 -1.8178  0.1111 -0.5493
 9429TIP3    H249703   1.237   6.135  13.068  0.3956  0.8611  0.4142
 9430TIP3   OH249704   4.703   0.204   3.662  0.0748 -0.6673  0.7627
 9430TIP3    H149705   4.631   0.165   3.612  0.8235 -0.3373 -0.6181
 9430TIP3    H249706   4.672   0.293   3.682 -0.3973 -0.9385  1.2528
 9431TIP3   OH249707   0.980   2.778  14.025 -0.1717  0.4174  0.7254
 9431TIP3    H149708   0.990   2.859  14.075  1.3228 -1.2477  3.3650
 9431TIP3    H249709   0.922   2.723  14.078  0.0622 -0.8203 -0.2274
 9432TIP3   OH249710   6.464   4.198   5.510 -0.0851  0.0879 -0.0170
 9432TIP3    H149711   6.419   4.244   5.581  1.5300 -1.0925  1.8664
 9432TIP3    H249712   6.523   4.264   5.474  2.4309 -0.3616  2.8610
 9433TIP3   OH249713   6.251   6.145   1.926  0.1614 -0.1298 -0.0995
 9433TIP3    H149714   6.345   6.143   1.907  0.1964 -0.6073  0.1176
 9433TIP3    H249715   6.231   6.237   1.938  0.9418 -0.1538  1.5621
 9434TIP3   OH249716   4.537   5.589   1.627  0.3714 -0.1988 -0.4266
 9434TIP3    H149717   4.563   5.648   1.698  0.5796 -0.8574  0.0591
 9434TIP3    H249718   4.550   5.640   1.547 -1.2736  1.0757  0.0652
 9435TIP3   OH249719   3.596   5.368  17.344 -0.4849 -0.4788  0.0271
 9435TIP3    H149720   3.585   5.279  17.374 -0.8088  0.1190  1.7839
 9435TIP3    H249721   3.602   5.421  17.424 -0.0467  1.0465 -0.9489
 9436TIP3   OH249722   4.534   3.423   1.359  0.0256  0.3881 -0.3863
 9436TIP3    H149723   4.485   3.498   1.327  0.1372  0.4335 -0.4517
 9436TIP3    H249724   4.473   3.378   1.418 -0.3917 -0.0292 -1.1166
 9437TIP3   OH249725   1.778   4.031   4.456 -0.1806 -0.0781  0.7358
 9437TIP3    H149726   1.711   4.084   4.413 -1.5729 -0.4458  2.3587
 9437TIP3    H249727   1.730   3.955   4.489  0.9243 -0.0699  2.4375
 9438TIP3   OH249728   4.262   5.583   2.475 -0.0421  0.1683 -0.0739
 9438TIP3    H149729   4.180   5.619   2.443  0.5551  0.2748 -1.5392
 9438TIP3    H249730   4.237   5.501   2.519 -1.1232  1.1184  1.1832
 9439TIP3   OH249731   1.743   1.935   1.195 -0.2816  0.1251 -1.1341
 9439TIP3    H149732   1.649   1.918   1.204 -0.2250 -0.3394 -1.4031
 9439TIP3    H249733   1.785   1.850   1.207  0.3712  0.8067  2.2076
 9440TIP3   OH249734   3.373   0.996   4.759  0.4453 -0.6013 -0.7009
 9440TIP3    H149735   3.416   1.079   4.777 -0.9510  0.4492 -1.9166
 9440TIP3    H249736   3.291   1.000   4.810  0.7148 -1.5838 -0.1604
 9441TIP3   OH249737   2.630   3.563  16.420  0.2999  0.4461  0.0034
 9441TIP3    H149738   2.603   3.486  16.370  1.7792 -0.1531  0.0790
 9441TIP3    H249739   2.639   3.632  16.354  2.3159 -0.3584 -0.6597
 9442TIP3   OH249740   2.541   0.350   3.632 -0.3069 -0.2609  0.1611
 9442TIP3    H149741   2.530   0.399   3.713 -0.3140  0.1924 -0.1100
 9442TIP3    H249742   2.578   0.414   3.570 -1.8374 -0.1157 -0.6734
 9443TIP3   OH249743   3.083   5.961   4.419 -0.0677  0.1975  0.5229
 9443TIP3    H149744   2.988   5.956   4.409 -0.1238 -0.5886  1.3263
 9443TIP3    H249745   3.101   6.054   4.432 -0.8165  0.2790  1.0777
 9444TIP3   OH249746   3.812   2.079  12.969 -0.3176  0.1962 -0.4164
 9444TIP3    H149747   3.740   2.035  12.925 -0.5362  0.5602 -0.4272
 9444TIP3    H249748   3.823   2.031  13.052 -1.1504  0.6766 -0.0158
 9445TIP3   OH249749   0.912   2.316  17.305 -0.1752 -0.4118  0.0461
 9445TIP3    H149750   0.939   2.328  17.214  0.5989 -0.6201  0.2394
 9445TIP3    H249751   0.859   2.236  17.304 -0.7207 -0.0559 -0.3225
 9446TIP3   OH249752   4.799   6.069   4.847 -0.1185  0.0673 -0.2063
 9446TIP3    H149753   4.820   6.084   4.940 -0.0583  1.4028 -0.4072
 9446TIP3    H249754   4.706   6.047   4.847  0.1163 -0.9680  0.2540
 9447TIP3   OH249755   0.731   5.310  13.994  0.1913 -0.2526 -0.3869
 9447TIP3    H149756   0.644   5.293  14.031  0.5318 -1.1680  0.0461
 9447TIP3    H249757   0.716   5.372  13.923 -0.9801 -1.2432 -1.0572
 9448TIP3   OH249758   0.013   4.699  13.120  0.2471 -0.1447 -0.5760
 9448TIP3    H149759   0.102   4.678  13.092 -0.4748 -0.7531 -2.5772
 9448TIP3    H249760   0.022   4.724  13.211  2.6659  1.0903 -1.0740
 9449TIP3   OH249761   2.939   4.443  15.320 -0.6400  0.2358  0.1101
 9449TIP3    H149762   2.973   4.428  15.408 -3.5085 -1.2324  1.1102
 9449TIP3    H249763   2.976   4.373  15.267 -1.1915 -0.6631  0.8902
 9450TIP3   OH249764   4.361   2.219   0.180 -0.2673 -0.4735 -0.0436
 9450TIP3    H149765   4.398   2.219   0.269 -1.8711 -2.8428  0.7470
 9450TIP3    H249766   4.289   2.282   0.184  1.9467  2.3081 -0.8822
 9451TIP3   OH249767   5.465   1.977  17.519  0.3329  0.0314 -0.6845
 9451TIP3    H149768   5.472   1.968  17.614  1.0175 -0.1539 -0.7498
 9451TIP3    H249769   5.378   1.943  17.499  0.2800 -0.1614 -0.1518
 9452TIP3   OH249770   2.251   2.311   2.198  0.1449 -0.0775 -0.1393
 9452TIP3    H149771   2.342   2.314   2.167  0.4112 -1.3220  0.4497
 9452TIP3    H249772   2.219   2.225   2.169 -1.1208  0.6827 -1.0516
 9453TIP3   OH249773   2.788   6.650   3.653 -0.8039 -0.2232 -0.1679
 9453TIP3    H149774   2.805   6.618   3.565  1.0853  1.3344 -0.4414
 9453TIP3    H249775   2.815   6.742   3.651 -3.9611  0.8589  1.1375
 9454TIP3   OH249776   4.199   2.780   4.103  0.4471 -0.4194  0.0437
 9454TIP3    H149777   4.253   2.716   4.057 -1.1143 -1.2341 -0.7352
 9454TIP3    H249778   4.109   2.760   4.076 -0.2502  0.9732  1.1743
 9455TIP3   OH249779   0.109   1.617   1.647 -0.8194  0.8275 -0.0388
 9455TIP3    H149780   0.141   1.675   1.716 -3.3616  0.6275  1.4460
 9455TIP3    H249781   0.149   1.532   1.668  0.1892  1.2430 -0.1912
 9456TIP3   OH249782   1.944   4.352  17.483  0.1663  0.4867 -0.2698
 9456TIP3    H149783   1.996   4.310  17.414  1.4262  0.2908  0.7466
 9456TIP3    H249784   2.009   4.400  17.535 -0.7507  0.6318  0.7654
 9457TIP3   OH249785   4.407   1.581   6.451  0.4500 -0.7460  0.3633
 9457TIP3    H149786   4.432   1.664   6.412  2.7372 -1.8159 -0.6323
 9457TIP3    H249787   4.313   1.574   6.435  0.2373  1.5449  0.3629
 9458TIP3   OH249788   5.478   3.733   1.361  0.4829 -0.0354 -0.6799
 9458TIP3    H149789   5.414   3.681   1.314 -0.2330  0.1651  0.0507
 9458TIP3    H249790   5.503   3.679   1.437 -0.0505  0.5409 -0.0773
 9459TIP3   OH249791   2.204   2.859  11.261 -0.3886 -0.0954  0.2973
 9459TIP3    H149792   2.277   2.911  11.228 -0.9260  0.4470 -0.0510
 9459TIP3    H249793   2.210   2.865  11.356 -1.7094  2.4337  0.2911
 9460TIP3   OH249794   0.065   0.957  15.565  0.1092 -0.0593  0.3731
 9460TIP3    H149795   0.042   0.893  15.632  0.7296 -0.5397  0.1268
 9460TIP3    H249796   0.037   0.918  15.483  0.8629 -0.1994  0.1786
 9461TIP3   OH249797   5.435   4.255  15.376  1.0086  0.4030 -0.2093
 9461TIP3    H149798   5.501   4.274  15.309  1.1826 -1.7428 -0.7263
 9461TIP3    H249799   5.353   4.289  15.340  1.4973  1.4618 -0.3718
 9462TIP3   OH249800   0.670   5.863  15.161 -0.2623  0.4247 -0.5563
 9462TIP3    H149801   0.636   5.924  15.226 -1.6191 -1.1808  0.3317
 9462TIP3    H249802   0.760   5.846  15.188 -1.0549 -0.8402  1.4418
 9463TIP3   OH249803   0.995   2.137   2.575  0.0164  0.2278 -0.2125
 9463TIP3    H149804   0.998   2.208   2.639 -1.8637 -1.5294  2.0273
 9463TIP3    H249805   1.077   2.144   2.527  0.4580  3.0823  0.7777
 9464TIP3   OH249806   5.918   6.281   2.861 -0.6012 -0.0475 -0.2780
 9464TIP3    H149807   5.828   6.259   2.886 -0.2589 -1.1369  0.0508
 9464TIP3    H249808   5.964   6.289   2.945  0.5539 -3.6980 -0.3875
 9465TIP3   OH249809   5.072   1.732   4.920 -0.1215  0.6583  0.1370
 9465TIP3    H149810   5.094   1.747   4.828  2.0226  0.2416  0.5348
 9465TIP3    H249811   5.104   1.644   4.939 -0.3780  0.7941  1.3194
 9466TIP3   OH249812   3.468   3.811   2.147 -0.0329 -0.1140 -0.1541
 9466TIP3    H149813   3.441   3.895   2.111 -0.6079 -0.3094 -0.2051
 9466TIP3    H249814   3.405   3.794   2.217 -0.2309 -0.7214 -0.4656
 9467TIP3   OH249815   4.846   2.419   3.561 -0.0753 -0.3936  0.3455
 9467TIP3    H149816   4.847   2.324   3.558 -1.3757 -0.4111 -1.7205
 9467TIP3    H249817   4.929   2.445   3.520 -0.0103 -0.6275  0.3261
 9468TIP3   OH249818   2.609   0.998  16.800 -0.2994  0.1889 -0.3650
 9468TIP3    H149819   2.575   0.923  16.751 -1.0237  0.6487 -0.5848
 9468TIP3    H249820   2.625   0.965  16.888 -0.1271 -0.3448 -0.5934
 9469TIP3   OH249821   4.285   5.573   3.214 -0.2257 -0.5252 -0.5359
 9469TIP3    H149822   4.371   5.539   3.187 -0.6030 -1.4732 -0.6058
 9469TIP3    H249823   4.226   5.548   3.142 -0.8338 -1.1783  0.1689
 9470TIP3   OH249824   4.114   4.555   3.036 -0.1350  0.1490  0.2828
 9470TIP3    H149825   4.073   4.610   3.102 -0.2702 -0.7168  0.9438
 9470TIP3    H249826   4.138   4.475   3.084  1.9894  0.4720 -0.1370
 9471TIP3   OH249827   3.623   1.070  16.904 -0.3186  0.0211  0.2822
 9471TIP3    H149828   3.628   0.975  16.910 -0.2780  0.0583  0.8581
 9471TIP3    H249829   3.693   1.094  16.842  0.3818 -0.2397  0.9652
 9472TIP3   OH249830   2.725   3.496  17.581  0.0353 -0.1779  0.1413
 9472TIP3    H149831   2.785   3.551  17.631 -0.8725  0.7148  0.2789
 9472TIP3    H249832   2.745   3.514  17.489 -0.5396  0.7223  0.1821
 9473TIP3   OH249833   2.759   3.050   2.327 -0.0859  0.5479 -0.0869
 9473TIP3    H149834   2.761   3.079   2.236  1.3958  1.0483  0.0772
 9473TIP3    H249835   2.796   3.123   2.377  0.5541 -0.3032  0.7319
 9474TIP3   OH249836   2.380   3.638   5.358  0.5332  0.5361 -0.3896
 9474TIP3    H149837   2.353   3.547   5.357  0.6176  0.4874  0.6979
 9474TIP3    H249838   2.473   3.636   5.335  0.6541  0.3032  0.1243
 9475TIP3   OH249839   3.111   3.490   2.032  0.1504  0.2053 -0.1999
 9475TIP3    H149840   3.091   3.523   2.119 -1.2421 -1.0879 -0.0039
 9475TIP3    H249841   3.119   3.396   2.043  1.5200  0.1681 -1.2085
 9476TIP3   OH249842   4.326   2.664  17.512 -0.3705  0.1814  0.0998
 9476TIP3    H149843   4.397   2.629  17.458 -0.6519  1.2366 -1.0081
 9476TIP3    H249844   4.354   2.647  17.602  0.2952 -1.2946 -0.3472
 9477TIP3   OH249845   1.125   0.851   2.277 -0.0616  0.4324 -0.3048
 9477TIP3    H149846   1.107   0.935   2.235 -0.7625  0.1748 -0.5207
 9477TIP3    H249847   1.207   0.822   2.238  1.1645  1.8444  1.0338
 9478TIP3   OH249848   3.323   0.591   3.362 -0.3011  0.2376 -0.0676
 9478TIP3    H149849   3.394   0.560   3.306  1.1397 -1.6411  2.5881
 9478TIP3    H249850   3.258   0.520   3.360  0.1685 -0.2477  1.2716
 9479TIP3   OH249851   4.835   2.360  11.518 -0.3895  0.1418 -0.3757
 9479TIP3    H149852   4.760   2.358  11.458  0.0478 -1.7010 -0.9207
 9479TIP3    H249853   4.908   2.387  11.462  0.0275 -1.6208 -0.7366
 9480TIP3   OH249854   2.275   0.491  12.706 -0.1906  0.2700  0.6969
 9480TIP3    H149855   2.322   0.414  12.739 -1.4318 -0.0417  1.8238
 9480TIP3    H249856   2.190   0.458  12.679  0.1099  0.8612 -1.1255
 9481TIP3   OH249857   4.343   3.518   4.797  0.4070 -0.8083  0.0503
 9481TIP3    H149858   4.354   3.451   4.865 -2.3170 -1.4396 -0.0217
 9481TIP3    H249859   4.358   3.470   4.715  1.2589 -0.6387  0.1038
 9482TIP3   OH249860   4.760   1.287  13.007 -0.2722  0.3358 -0.1797
 9482TIP3    H149861   4.797   1.239  12.933  2.2999  1.3398  0.3588
 9482TIP3    H249862   4.787   1.236  13.084 -1.8046  0.0004  0.1575
 9483TIP3   OH249863   5.914   2.188  11.009  0.0914 -0.3049  0.3417
 9483TIP3    H149864   5.835   2.240  11.023  0.8792  0.1868  3.9114
 9483TIP3    H249865   5.962   2.194  11.091  4.2542  0.0038 -1.8194
 9484TIP3   OH249866   3.281   2.754  14.421  0.1517  0.0374  0.0214
 9484TIP3    H149867   3.329   2.824  14.466 -0.7473 -0.1526  1.3034
 9484TIP3    H249868   3.349   2.693  14.394  0.6262 -0.7179  2.6522
 9485TIP3   OH249869   1.896   4.561  13.485 -0.1542 -0.7191  0.1893
 9485TIP3    H149870   1.900   4.484  13.541 -1.6778 -1.2349 -0.3622
 9485TIP3    H249871   1.896   4.527  13.396 -0.5022 -0.0698 -0.0692
 9486TIP3   OH249872   2.222   5.617  10.325  0.3683  0.6612  0.3187
 9486TIP3    H149873   2.249   5.668  10.402  0.0818  3.2951 -1.2185
 9486TIP3    H249874   2.293   5.628  10.262 -0.9837  1.6573 -1.1092
 9487TIP3   OH249875   1.663   0.334  10.628 -0.4602 -0.0493 -0.7309
 9487TIP3    H149876   1.661   0.243  10.597 -0.4856  0.2561 -1.6599
 9487TIP3    H249877   1.650   0.386  10.549  2.2492  0.8463 -0.6923
 9488TIP3   OH249878   3.779   4.770  11.463  0.0194  0.3218 -0.1844
 9488TIP3    H149879   3.770   4.756  11.368 -1.4706 -1.8191  0.1958
 9488TIP3    H249880   3.720   4.842  11.482  0.6244  1.0326 -0.9244
 9489TIP3   OH249881   5.845   3.080  11.445  0.5266 -0.0921  0.4379
 9489TIP3    H149882   5.803   3.155  11.402  0.5614  0.5160  1.4336
 9489TIP3    H249883   5.929   3.071  11.401 -0.1140 -0.5419 -0.7432
 9490TIP3   OH249884   6.114   1.931  12.844  0.0719  0.0244 -0.4706
 9490TIP3    H149885   6.115   1.995  12.915 -1.8665  0.9147 -1.1686
 9490TIP3    H249886   6.045   1.869  12.870 -0.7318  0.4205 -1.5897
 9491TIP3   OH249887   0.030   5.740   0.570 -0.2788 -0.0876 -0.3138
 9491TIP3    H149888   0.101   5.802   0.588 -0.5853 -0.1050  1.1145
 9491TIP3    H249889  -0.019   5.735   0.652 -0.2992 -2.1606 -0.3867
 9492TIP3   OH249890   0.919   2.017  15.557  0.0628  0.0666 -0.1295
 9492TIP3    H149891   0.927   1.964  15.637  0.0845 -0.7325 -0.6505
 9492TIP3    H249892   0.852   2.082  15.578  1.9462  1.6250  1.4625
 9493TIP3   OH249893   2.201   1.206  16.835 -0.1390 -0.1861 -0.2801
 9493TIP3    H149894   2.291   1.193  16.804 -0.7998 -2.1778 -1.5703
 9493TIP3    H249895   2.202   1.293  16.876  2.0930  0.3109 -1.2296
 9494TIP3   OH249896   4.650   1.238   5.937  0.3434  0.0715 -0.2303
 9494TIP3    H149897   4.574   1.273   5.892 -0.2791 -1.0414 -0.0847
 9494TIP3    H249898   4.699   1.191   5.869  1.0150  0.9419 -0.3643
 9495TIP3   OH249899   4.139   6.382  13.194  0.1917  0.0348  0.3726
 9495TIP3    H149900   4.124   6.409  13.103 -2.2599 -2.7673 -0.2245
 9495TIP3    H249901   4.064   6.415  13.242 -1.6858 -3.2979  0.0499
 9496TIP3   OH249902   1.463   1.332   5.282  0.2934  0.6872 -0.7031
 9496TIP3    H149903   1.392   1.344   5.220 -0.1827 -0.5627 -0.4494
 9496TIP3    H249904   1.466   1.237   5.296  2.4810  0.6237 -1.2459
 9497TIP3   OH249905   4.822   3.603  11.324 -0.4268  0.1617  0.2730
 9497TIP3    H149906   4.784   3.515  11.327  2.4334 -1.4263 -3.2230
 9497TIP3    H249907   4.750   3.658  11.292 -0.9765 -2.0553 -2.8440
 9498TIP3   OH249908   3.666   3.980  16.723 -0.1681  0.2734  0.7273
 9498TIP3    H149909   3.711   3.921  16.783  0.4210  0.8557  0.8756
 9498TIP3    H249910   3.647   3.926  16.646  1.0946  0.0837  0.5281
 9499TIP3   OH249911   4.126   0.602   0.577 -0.0529 -0.2888 -0.0416
 9499TIP3    H149912   4.051   0.550   0.605  0.9099 -1.6042  0.1733
 9499TIP3    H249913   4.111   0.688   0.617 -1.7125 -0.3362 -0.4702
 9500TIP3   OH249914   2.387   2.494   5.885 -0.0824 -0.1527  1.0614
 9500TIP3    H149915   2.363   2.418   5.832  0.1187  1.0927 -0.8862
 9500TIP3    H249916   2.482   2.494   5.885  0.0714  2.0378 -2.0703
 9501TIP3   OH249917   5.548   1.911   6.144  0.4876  0.3286  0.0135
 9501TIP3    H149918   5.484   1.954   6.200 -0.0431 -0.1617 -0.2106
 9501TIP3    H249919   5.633   1.936   6.181  0.2258  1.9549 -0.3914
 9502TIP3   OH249920   3.963   2.234  14.197 -0.2335  0.1749  0.3513
 9502TIP3    H149921   4.012   2.305  14.240 -0.1415  1.0685 -1.1653
 9502TIP3    H249922   3.872   2.260  14.207 -0.1504  1.5614 -1.8233
 9503TIP3   OH249923   6.674   1.711  17.539  0.5852 -0.1264 -0.2287
 9503TIP3    H149924   6.625   1.748  17.466  0.8500 -0.3541 -0.5214
 9503TIP3    H249925   6.699   1.623  17.510  0.6179 -0.2530  0.1677
 9504TIP3   OH249926   5.843   5.439   2.782  0.1742 -0.0573  0.0370
 9504TIP3    H149927   5.864   5.527   2.815  0.9771 -1.5709  4.1963
 9504TIP3    H249928   5.755   5.447   2.747 -0.7947  2.0111  2.5678
 9505TIP3   OH249929   6.176   1.051  14.913 -0.0722 -0.2745 -0.2502
 9505TIP3    H149930   6.250   1.004  14.952 -0.0759  0.8929  1.2148
 9505TIP3    H249931   6.181   1.028  14.820  1.7898 -0.6907 -0.0950
 9506TIP3   OH249932   6.003   4.439  13.946  0.0727 -0.1756  0.1580
 9506TIP3    H149933   6.026   4.385  14.022  1.8847 -1.3455 -1.1529
 9506TIP3    H249934   5.987   4.526  13.983  2.3062 -0.3634  1.7882
 9507TIP3   OH249935   1.385   3.169   5.284 -0.1981  0.4831 -0.2749
 9507TIP3    H149936   1.399   3.186   5.191 -0.2343  1.1924 -0.1573
 9507TIP3    H249937   1.450   3.102   5.306 -0.8340 -0.3965 -1.0222
 9508TIP3   OH249938   0.564   1.114  12.744  0.4514  0.5430  0.0732
 9508TIP3    H149939   0.618   1.192  12.732  0.1757  0.5979 -0.9113
 9508TIP3    H249940   0.620   1.042  12.716  0.5721  0.4288  0.6101
 9509TIP3   OH249941   1.681   2.364  11.411 -0.1510 -0.0153 -0.4827
 9509TIP3    H149942   1.713   2.442  11.366 -2.0854  0.5006 -1.0605
 9509TIP3    H249943   1.646   2.308  11.341  1.8555 -1.8013 -0.1747
 9510TIP3   OH249944   0.794   6.535   4.232  0.0950 -0.3014  0.4397
 9510TIP3    H149945   0.741   6.469   4.186  1.0203 -0.5236 -0.3555
 9510TIP3    H249946   0.768   6.618   4.193  1.3401 -0.5518 -1.0051
 9511TIP3   OH249947   5.148   0.481   6.098 -0.4736 -0.1203 -0.0140
 9511TIP3    H149948   5.210   0.531   6.151  0.9023 -1.7471 -0.0128
 9511TIP3    H249949   5.141   0.531   6.017 -0.0931  0.7097  0.4487
 9512TIP3   OH249950   0.578   1.395  15.848  0.2538  0.2523  0.5460
 9512TIP3    H149951   0.577   1.451  15.771  1.3908  0.1680  0.4457
 9512TIP3    H249952   0.566   1.306  15.815  1.4642  0.1347  0.3559
 9513TIP3   OH249953   6.083   3.351   3.989 -0.5552 -0.1545  0.0214
 9513TIP3    H149954   6.050   3.398   4.066 -2.1124  0.1156 -0.7832
 9513TIP3    H249955   6.071   3.412   3.917 -2.2718 -1.5847 -0.9879
 9514TIP3   OH249956   5.244   6.196   0.400 -0.0388 -0.2282 -0.0075
 9514TIP3    H149957   5.299   6.265   0.439  1.4198 -0.6852 -1.1885
 9514TIP3    H249958   5.235   6.131   0.470  0.8028 -0.0760  0.2551
 9515TIP3   OH249959   1.443   5.040  15.447  0.7519 -0.8006  0.0335
 9515TIP3    H149960   1.532   5.025  15.417  0.0501 -1.6424 -1.7867
 9515TIP3    H249961   1.441   5.005  15.536  2.6556  0.8115  0.7663
 9516TIP3   OH249962   4.105   5.039   3.124 -0.9847  0.2849 -0.7539
 9516TIP3    H149963   4.190   5.014   3.159 -1.0472  1.0481 -0.0206
 9516TIP3    H249964   4.072   4.959   3.081 -0.8581 -0.6795  0.8498
 9517TIP3   OH249965   1.181   6.253   3.341 -0.4474 -0.0274 -0.2776
 9517TIP3    H149966   1.269   6.278   3.314  0.1809 -0.1415  1.5510
 9517TIP3    H249967   1.131   6.334   3.340 -0.0776  0.1986 -0.4075
 9518TIP3   OH249968   5.009   1.845  14.026  0.7305  0.4502 -0.1076
 9518TIP3    H149969   5.030   1.937  14.042  0.0958  0.6431 -0.3643
 9518TIP3    H249970   5.083   1.812  13.975  0.0620  1.3327 -1.7169
 9519TIP3   OH249971   0.876   4.636  12.443 -0.1877  0.2324  0.0458
 9519TIP3    H149972   0.831   4.668  12.365 -1.2056  1.5001  1.1251
 9519TIP3    H249973   0.914   4.714  12.483 -1.1081 -0.1410  1.7141
 9520TIP3   OH249974   1.688   5.043   5.486  0.8999 -0.3220 -0.4847
 9520TIP3    H149975   1.753   5.045   5.415  0.8865 -1.0652 -0.5312
 9520TIP3    H249976   1.740   5.026   5.565  0.8110 -0.4980 -0.4630
 9521TIP3   OH249977   6.040   1.582   0.001 -0.2045  0.1412 -0.2693
 9521TIP3    H149978   5.953   1.555   0.030 -0.0371  0.2736  0.3741
 9521TIP3    H249979   6.023   1.646  -0.069 -0.6105 -0.3463 -0.6285
 9522TIP3   OH249980   5.806   1.298  12.486  0.4406 -0.1536  0.6732
 9522TIP3    H149981   5.799   1.259  12.572 -0.8147  0.4284  0.8630
 9522TIP3    H249982   5.827   1.390  12.503  2.7684 -0.5451  0.2558
 9523TIP3   OH249983   6.090   6.635  11.763 -0.3380  0.2334  0.0108
 9523TIP3    H149984   6.081   6.659  11.855 -1.8184 -0.3574  0.0391
 9523TIP3    H249985   6.092   6.718  11.716  0.3552  0.5333  0.5588
 9524TIP3   OH249986   3.698   2.084   3.807 -0.1552  0.1600 -0.0722
 9524TIP3    H149987   3.773   2.049   3.758  0.0622  0.4573  0.0438
 9524TIP3    H249988   3.663   2.009   3.854  1.1555  0.3516  1.2817
 9525TIP3   OH249989   3.505   4.342  16.483  0.6582  0.8269 -0.0732
 9525TIP3    H149990   3.507   4.247  16.475 -0.9007  0.6003  1.5612
 9525TIP3    H249991   3.450   4.371  16.410 -0.6537  0.2532  0.6608
 9526TIP3   OH249992   6.083   2.809  11.325 -0.5791  0.3246 -0.3596
 9526TIP3    H149993   6.117   2.760  11.400 -0.9709 -0.7129 -0.8350
 9526TIP3    H249994   6.159   2.821  11.268  0.4032  3.5817  1.3898
 9527TIP3   OH249995   3.556   0.217   0.959  0.6192  0.7848  0.0866
 9527TIP3    H149996   3.547   0.278   1.032  1.8540  0.3266  0.6581
 9527TIP3    H249997   3.488   0.152   0.974 -0.2669  1.6496 -0.1532
 9528TIP3   OH249998   1.758   2.501   4.061 -0.6518  0.1541  0.1426
 9528TIP3    H149999   1.683   2.560   4.051 -0.0804  0.6503 -1.8258
 9528TIP3    H250000   1.796   2.525   4.145 -2.0290  0.6954  0.6433
 9529TIP3   OH250001   0.519   3.946   0.717 -0.6447  0.2728  0.6834
 9529TIP3    H150002   0.564   4.001   0.781 -2.5616  3.2987 -0.3247
 9529TIP3    H250003   0.429   3.938   0.750 -0.8876 -0.6520 -0.1439
 9530TIP3   OH250004   0.117   0.707   0.530 -0.0504  0.1622  0.3541
 9530TIP3    H150005   0.089   0.750   0.449  1.2979  2.3818  0.9685
 9530TIP3    H250006   0.039   0.708   0.586 -0.4224  0.5539 -0.1578
 9531TIP3   OH250007   2.975   0.873   4.862 -0.5367 -0.5311 -0.0095
 9531TIP3    H150008   3.033   0.858   4.937 -0.5267 -0.6807 -0.0458
 9531TIP3    H250009   2.933   0.788   4.847  0.1952 -0.7799 -0.7824
 9532TIP3   OH250010   2.593   6.011   0.701 -0.6146  0.2638  0.8071
 9532TIP3    H150011   2.513   6.004   0.752 -1.6609 -1.0788 -0.9094
 9532TIP3    H250012   2.653   5.949   0.742 -0.9610  0.1970  1.2143
 9533TIP3   OH250013   4.177   6.648  14.142  0.5100  0.1814 -0.3881
 9533TIP3    H150014   4.115   6.654  14.070 -0.5721  1.1728  0.5688
 9533TIP3    H250015   4.261   6.670  14.104 -0.0989  1.0209 -1.2986
 9534TIP3   OH250016   3.042   0.591  16.543 -0.5246 -0.0138 -0.3443
 9534TIP3    H150017   3.083   0.555  16.464 -1.9175 -2.6015  0.0255
 9534TIP3    H250018   3.114   0.599  16.605  0.1352 -0.5293 -1.0225
 9535TIP3   OH250019   4.769   3.766   0.998 -0.0362  0.1881 -0.1414
 9535TIP3    H150020   4.698   3.703   0.986 -1.2677  1.0215  2.1278
 9535TIP3    H250021   4.738   3.846   0.955  1.1864 -0.4140 -2.3227
 9536TIP3   OH250022   4.769   1.150   0.465  0.4292  0.1916 -0.8372
 9536TIP3    H150023   4.743   1.218   0.402 -1.4242 -0.1539 -0.4995
 9536TIP3    H250024   4.736   1.182   0.549 -1.1105 -1.4102 -0.7773
 9537TIP3   OH250025   2.596   1.875   0.554  0.7044 -0.0356  0.3346
 9537TIP3    H150026   2.610   1.966   0.528  0.6933 -0.1241  0.0233
 9537TIP3    H250027   2.680   1.833   0.539  0.4896 -0.2553 -0.2564
 9538TIP3   OH250028   4.116   2.284   0.855  0.1118 -0.3867 -0.2091
 9538TIP3    H150029   4.070   2.344   0.913 -0.0361 -0.1661 -0.5548
 9538TIP3    H250030   4.117   2.201   0.903 -0.0153 -0.2112  0.1033
 9539TIP3   OH250031   4.171   1.164  13.465 -0.0978  0.2685 -0.2160
 9539TIP3    H150032   4.162   1.228  13.394 -0.0245  0.5844  0.0551
 9539TIP3    H250033   4.086   1.166  13.509  0.0185  0.4316  0.0020
 9540TIP3   OH250034   0.923   3.078   4.441 -0.2805  0.3004  0.6937
 9540TIP3    H150035   0.988   3.084   4.372  0.0729  0.5799  1.0524
 9540TIP3    H250036   0.931   3.159   4.490 -1.5343  0.7497  0.1870
 9541TIP3   OH250037   4.559   5.979  16.666  0.3591 -0.5494 -0.3858
 9541TIP3    H150038   4.542   5.888  16.688  0.0087 -0.5779 -0.7661
 9541TIP3    H250039   4.473   6.021  16.667  0.5470 -0.1584  0.0663
 9542TIP3   OH250040   0.202   4.228   3.654 -0.9647 -0.0438  0.5072
 9542TIP3    H150041   0.290   4.202   3.680 -0.6641  1.2463  0.8419
 9542TIP3    H250042   0.158   4.146   3.631  0.1375 -0.7541  0.8875
 9543TIP3   OH250043   0.892   5.268  15.647 -0.3338  0.2690  0.1013
 9543TIP3    H150044   0.826   5.334  15.667 -0.6830  0.7394 -2.2689
 9543TIP3    H250045   0.850   5.211  15.583  1.0658 -0.2607 -0.3933
 9544TIP3   OH250046   1.004   1.418  12.277  0.3660  0.3003 -0.1387
 9544TIP3    H150047   1.076   1.355  12.272 -0.9810 -1.2015 -3.0005
 9544TIP3    H250048   1.038   1.495  12.232  0.3796 -0.2284 -1.0560
 9545TIP3   OH250049   4.222   0.177  13.084  0.1645  0.0608  0.3799
 9545TIP3    H150050   4.222   0.208  12.994 -0.2588  1.5326  0.8688
 9545TIP3    H250051   4.282   0.103  13.083 -0.2019 -0.2534 -1.2028
 9546TIP3   OH250052   3.863   3.603   5.506  0.4269 -0.5060 -0.1752
 9546TIP3    H150053   3.848   3.649   5.423 -0.4633 -0.8344 -0.2031
 9546TIP3    H250054   3.780   3.609   5.553  1.1058  0.2273  0.9912
 9547TIP3   OH250055   3.919   4.662  15.559  0.2355  0.2802  0.4894
 9547TIP3    H150056   3.998   4.609  15.554  0.2455  0.2977  0.4555
 9547TIP3    H250057   3.909   4.697  15.470  1.4140  2.0593  1.0163
 9548TIP3   OH250058   0.529   2.460   1.596  0.0715  0.1207 -0.4676
 9548TIP3    H150059   0.545   2.500   1.682  0.6128 -1.1272  0.0331
 9548TIP3    H250060   0.479   2.526   1.548 -2.1991  0.0163  1.5462
 9549TIP3   OH250061   1.596   6.522  10.364 -0.2377 -0.7298  0.3372
 9549TIP3    H150062   1.526   6.480  10.414  2.4615 -2.7791  2.7995
 9549TIP3    H250063   1.590   6.615  10.387 -0.8776 -1.1898  2.2353
 9550TIP3   OH250064   1.298   2.069   3.238 -0.3833 -0.1219 -0.8248
 9550TIP3    H150065   1.217   2.035   3.275 -0.0793 -0.4430 -0.4438
 9550TIP3    H250066   1.309   2.155   3.280  0.9136 -1.2382  1.2963
 9551TIP3   OH250067   3.371   1.859   6.459  0.2366 -0.2281 -0.4961
 9551TIP3    H150068   3.357   1.777   6.411 -0.5398 -0.5201  0.1857
 9551TIP3    H250069   3.320   1.924   6.411 -0.1617 -0.4209 -0.3448
 9552TIP3   OH250070   1.728   1.012   0.650 -0.3611 -0.5221  0.8393
 9552TIP3    H150071   1.752   0.952   0.579 -1.3321 -0.5182  0.4945
 9552TIP3    H250072   1.668   0.961   0.705 -0.0215 -0.3526  1.3698
 9553TIP3   OH250073   6.570   5.968  16.702 -0.5148  0.0189 -0.0464
 9553TIP3    H150074   6.501   6.025  16.668 -0.4051 -0.7224 -1.5516
 9553TIP3    H250075   6.649   6.022  16.700 -0.3043 -0.3068 -1.9705
 9554TIP3   OH250076   2.062   1.558   3.986  0.2619  0.6421 -0.0649
 9554TIP3    H150077   2.128   1.488   3.987  0.8139  1.1200 -1.2789
 9554TIP3    H250078   2.056   1.587   4.077  2.6961  1.4618 -0.1078
 9555TIP3   OH250079   0.401   2.127   2.986 -0.0576 -0.0489  0.4772
 9555TIP3    H150080   0.361   2.214   2.995  0.0594  0.0330  0.2172
 9555TIP3    H250081   0.440   2.111   3.072 -0.3803  0.0044  0.6341
 9556TIP3   OH250082   0.047   6.524  16.162  0.0598  0.1513  0.3081
 9556TIP3    H150083   0.033   6.430  16.159 -0.2627  0.1702  0.9022
 9556TIP3    H250084  -0.032   6.561  16.124  0.1920  0.1790  0.0632
 9557TIP3   OH250085   2.769   5.319   4.693 -0.0672  0.3452  0.4568
 9557TIP3    H150086   2.697   5.294   4.635  0.4565 -0.4865  0.1539
 9557TIP3    H250087   2.726   5.359   4.769 -0.7675  1.4484 -0.4829
 9558TIP3   OH250088   0.301   4.899   0.706 -0.2120  0.1850 -0.3696
 9558TIP3    H150089   0.303   4.955   0.784  1.4243 -2.1963  1.4423
 9558TIP3    H250090   0.244   4.826   0.730  2.6370 -2.1157 -0.1241
 9559TIP3   OH250091   5.119   2.963  15.260  0.1593 -0.0874 -0.2353
 9559TIP3    H150092   5.174   2.929  15.189  0.2241 -0.6292  0.0719
 9559TIP3    H250093   5.048   3.008  15.214  0.4602 -0.0135 -0.6425
 9560TIP3   OH250094   4.977   0.325   5.624  0.0303  0.3663 -0.1885
 9560TIP3    H150095   5.029   0.245   5.635 -0.2893 -0.1842 -2.3647
 9560TIP3    H250096   4.889   0.301   5.654 -0.4194 -0.5954 -2.1260
 9561TIP3   OH250097   6.524   2.140  12.143  0.3934 -0.8870  0.3535
 9561TIP3    H150098   6.469   2.105  12.073  0.9315  0.6325 -0.8976
 9561TIP3    H250099   6.470   2.132  12.222 -1.4667  0.1118 -0.7351
 9562TIP3   OH250100   1.406   3.849  16.190  0.0563  0.4236  0.1339
 9562TIP3    H150101   1.409   3.758  16.220  1.6539  0.4376  0.0810
 9562TIP3    H250102   1.319   3.879  16.215  0.3465 -0.3834  2.3670
 9563TIP3   OH250103   5.526   4.736   0.109 -0.3104 -0.4706 -0.2387
 9563TIP3    H150104   5.572   4.808   0.152  0.2581 -0.9180 -0.0956
 9563TIP3    H250105   5.588   4.663   0.110 -1.4810 -1.5172  1.2330
 9564TIP3   OH250106   3.544   1.887  13.762 -0.1109  0.2381  0.0812
 9564TIP3    H150107   3.511   1.898  13.673 -0.9889 -2.4162 -0.0200
 9564TIP3    H250108   3.488   1.943  13.816 -1.1768  0.0133 -0.7620
 9565TIP3   OH250109   4.380   1.383  15.757  0.3910  0.0021  0.7160
 9565TIP3    H150110   4.310   1.410  15.817  1.7720  0.3672  2.2221
 9565TIP3    H250111   4.413   1.302  15.795 -0.0284 -0.8789 -0.7109
 9566TIP3   OH250112   4.552   5.323  16.892 -0.0295  0.1134 -0.2396
 9566TIP3    H150113   4.542   5.358  16.803 -0.9570 -0.4078 -0.3517
 9566TIP3    H250114   4.517   5.392  16.949  2.9665  1.6431 -0.0019
 9567TIP3   OH250115   2.850   1.389  13.297 -0.1886  0.0747  0.3363
 9567TIP3    H150116   2.779   1.327  13.313 -0.5242  0.0045 -1.2577
 9567TIP3    H250117   2.813   1.474  13.320 -0.2420 -0.1346  1.0472
 9568TIP3   OH250118   4.321   4.388   2.303  0.2455  0.1650 -0.0687
 9568TIP3    H150119   4.300   4.301   2.269  1.7933 -0.3074  0.0761
 9568TIP3    H250120   4.340   4.441   2.226  0.6880 -0.0394 -0.1071
 9569TIP3   OH250121   0.804   0.443  12.291 -0.0252  0.0813 -0.3646
 9569TIP3    H150122   0.735   0.392  12.332  1.2520 -0.4846  1.1700
 9569TIP3    H250123   0.867   0.459  12.361  0.6048  2.0381 -1.2963
 9570TIP3   OH250124   6.491   5.070   2.881  0.3615  0.0079  0.3138
 9570TIP3    H150125   6.585   5.063   2.894  0.6652  0.8017 -1.2982
 9570TIP3    H250126   6.467   5.155   2.918  0.3231 -0.0559  0.4371
 9571TIP3   OH250127   2.876   2.931  12.715  0.1009  0.7422 -0.0159
 9571TIP3    H150128   2.809   2.941  12.782 -0.4351 -1.7278 -0.0976
 9571TIP3    H250129   2.958   2.955  12.758 -0.4743  1.0244  0.9457
 9572TIP3   OH250130   1.937   1.644  16.580 -0.1221  0.3871  0.0015
 9572TIP3    H150131   1.857   1.695  16.587  0.0547  0.7386 -0.5252
 9572TIP3    H250132   1.934   1.606  16.492  0.9472  1.5193 -0.5562
 9573TIP3   OH250133   1.003   5.273  12.367  0.2834 -0.0219 -0.5234
 9573TIP3    H150134   0.986   5.358  12.327 -1.2298  0.2859  0.6896
 9573TIP3    H250135   1.009   5.212  12.292 -2.0163  0.5994 -1.2814
 9574TIP3   OH250136   0.992   4.749   3.598  0.2608  0.6754  0.5066
 9574TIP3    H150137   0.936   4.676   3.627  0.3142 -0.3095 -1.6330
 9574TIP3    H250138   1.078   4.709   3.585  0.5260  1.3418  0.1997
 9575TIP3   OH250139   2.343   1.970  12.314  0.1720 -0.0851  0.6996
 9575TIP3    H150140   2.371   1.970  12.222  0.0713 -0.8249  0.6638
 9575TIP3    H250141   2.424   1.980  12.364  0.4351 -1.4737  0.5757
 9576TIP3   OH250142   5.219   5.698  13.269  0.9807 -0.3978 -0.6482
 9576TIP3    H150143   5.279   5.771  13.251  0.9313 -0.0345  0.5302
 9576TIP3    H250144   5.216   5.693  13.365 -1.3328 -0.0269 -0.6420
 9577TIP3   OH250145   0.047   3.964  13.410  0.3776 -0.6269  0.5788
 9577TIP3    H150146   0.068   4.016  13.488  3.0933 -0.5834 -0.0683
 9577TIP3    H250147   0.129   3.960  13.361 -0.5394 -2.9240 -0.9700
 9578TIP3   OH250148   3.551   1.582   2.044  0.3436  0.6254  0.1987
 9578TIP3    H150149   3.609   1.528   1.990  1.6246  1.2069  0.9387
 9578TIP3    H250150   3.506   1.639   1.981 -1.4064 -1.5573 -0.6421
 9579TIP3   OH250151   4.400   3.133   4.621 -0.1208 -0.2146 -0.2836
 9579TIP3    H150152   4.311   3.155   4.648 -0.1764 -0.6443 -0.1109
 9579TIP3    H250153   4.389   3.068   4.552  0.0339  0.5321 -1.0291
 9580TIP3   OH250154   1.935   1.264   0.069 -0.5585 -0.7505 -0.5386
 9580TIP3    H150155   1.923   1.351   0.032  1.4301 -0.7294 -1.2371
 9580TIP3    H250156   1.909   1.272   0.161  1.6576  1.1808  0.0004
 9581TIP3   OH250157   1.918   1.993  16.805  0.9522 -0.3145 -0.7908
 9581TIP3    H150158   1.849   2.058  16.814  0.0644 -0.9619 -2.3589
 9581TIP3    H250159   1.982   2.035  16.748  0.6659 -0.5750 -1.3148
 9582TIP3   OH250160   1.478   6.333  13.673  0.3673  0.5122 -0.4951
 9582TIP3    H150161   1.493   6.243  13.642  0.1753 -0.0682  0.9963
 9582TIP3    H250162   1.425   6.322  13.752 -2.2646  2.1221 -1.9124
 9583TIP3   OH250163   5.819   6.608  16.250 -0.1058  0.4446  0.0292
 9583TIP3    H150164   5.881   6.570  16.312 -0.1274  0.2286 -0.0780
 9583TIP3    H250165   5.734   6.599  16.291 -0.2480 -0.6207 -0.4482
 9584TIP3   OH250166   2.941   5.686  16.352  0.1224  0.4287  0.1382
 9584TIP3    H150167   3.009   5.688  16.418 -0.7461 -0.1264  1.0709
 9584TIP3    H250168   2.964   5.613  16.295  0.9347  0.9822 -0.2673
 9585TIP3   OH250169   1.309   3.717  11.641 -0.2358 -0.4037 -0.4364
 9585TIP3    H150170   1.307   3.671  11.557 -0.4967  1.2241 -1.3756
 9585TIP3    H250171   1.227   3.766  11.643 -0.2041 -0.3799  0.7455
 9586TIP3   OH250172   1.312   1.013   1.944  0.1585 -0.1589  0.1868
 9586TIP3    H150173   1.288   0.924   1.917  3.2073 -1.3374  0.8981
 9586TIP3    H250174   1.373   1.000   2.017 -0.6798  2.6179  1.4954
 9587TIP3   OH250175   2.088   0.329  14.282 -0.0090 -0.1552 -0.1739
 9587TIP3    H150176   2.054   0.254  14.330 -0.4550 -0.1963 -0.5514
 9587TIP3    H250177   2.154   0.366  14.340  0.5895 -1.1421 -0.2039
 9588TIP3   OH250178   3.778   2.742  17.538 -0.3789  0.0836 -0.1575
 9588TIP3    H150179   3.738   2.759  17.623 -1.3297 -0.0378 -0.5614
 9588TIP3    H250180   3.872   2.739  17.555 -0.3515  2.5439  0.4915
 9589TIP3   OH250181   3.762   0.237   2.382  0.3711  0.1640 -0.0556
 9589TIP3    H150182   3.818   0.183   2.439 -0.2473  1.5782  2.0311
 9589TIP3    H250183   3.810   0.319   2.373 -0.9148  1.0840  1.0754
 9590TIP3   OH250184   2.469   3.157  13.692 -0.3923  0.4018 -0.6601
 9590TIP3    H150185   2.488   3.063  13.687 -1.0189  0.2583 -0.4398
 9590TIP3    H250186   2.377   3.161  13.717  0.0138  1.0672  0.8478
 9591TIP3   OH250187   3.602   4.908  16.819 -0.6382  0.5467  0.3267
 9591TIP3    H150188   3.541   4.877  16.886 -1.0404  0.6320  0.0038
 9591TIP3    H250189   3.677   4.940  16.868 -1.1247  1.0410  0.7666
 9592TIP3   OH250190   2.153   1.099  15.988  0.1310  0.5466 -0.4539
 9592TIP3    H150191   2.172   1.069  16.077 -0.3185  1.4836 -0.0277
 9592TIP3    H250192   2.239   1.126  15.954  0.5169 -1.0360 -0.7969
 9593TIP3   OH250193   0.243   6.237   5.412  0.3167  0.1132  0.3160
 9593TIP3    H150194   0.284   6.160   5.373  0.0592  0.2720 -0.2816
 9593TIP3    H250195   0.280   6.311   5.363  0.6438  0.3844  0.9535
 9594TIP3   OH250196   4.710   6.210   4.279  0.3068 -0.3817 -0.7119
 9594TIP3    H150197   4.688   6.133   4.331 -0.1512  0.1442 -0.1048
 9594TIP3    H250198   4.765   6.263   4.336  0.8732 -0.3934 -1.2348
 9595TIP3   OH250199   4.947   6.487   2.891 -0.1705  0.2178  0.0163
 9595TIP3    H150200   4.978   6.403   2.924 -0.7131 -0.3902 -0.9629
 9595TIP3    H250201   4.959   6.481   2.796 -0.8083  0.9965 -0.1206
 9596TIP3   OH250202   6.453   3.952   0.978  0.1408  0.0667 -0.4875
 9596TIP3    H150203   6.421   3.914   1.060  0.7373  1.8163  0.6157
 9596TIP3    H250204   6.378   3.948   0.919 -0.9773  0.6520  0.8321
 9597TIP3   OH250205   2.502   5.792  12.510  0.4670 -0.0905  0.3725
 9597TIP3    H150206   2.481   5.745  12.590 -2.8949  0.4758 -0.0291
 9597TIP3    H250207   2.492   5.728  12.440  0.7492  0.0531  0.1966
 9598TIP3   OH250208   4.736   6.639  13.108 -0.2484  0.2560 -0.1384
 9598TIP3    H150209   4.691   6.659  13.190 -0.1191  0.9014 -0.2187
 9598TIP3    H250210   4.676   6.582  13.061 -0.5174  0.2435  0.2129
 9599TIP3   OH250211   4.599   3.945   1.804  0.8086  0.1092  0.0657
 9599TIP3    H150212   4.687   3.980   1.796  1.9425 -2.2675  1.0228
 9599TIP3    H250213   4.578   3.952   1.897  0.7134 -0.9174  0.1306
 9600TIP3   OH250214   2.799   5.212  11.672  0.2324  0.1126 -0.4710
 9600TIP3    H150215   2.763   5.295  11.704 -1.3667 -1.0565  0.9383
 9600TIP3    H250216   2.736   5.182  11.606  1.1971  0.3387 -1.5344
 9601TIP3   OH250217   4.352   2.435   3.440 -0.3473  0.2829  0.1435
 9601TIP3    H150218   4.436   2.398   3.465 -0.4455  0.7686  1.2544
 9601TIP3    H250219   4.371   2.491   3.365  0.4621  0.9629  0.8320
 9602TIP3   OH250220   4.716   1.467  14.112  0.1936 -0.1318 -0.4021
 9602TIP3    H150221   4.734   1.373  14.125  0.0777 -0.4082 -2.0632
 9602TIP3    H250222   4.795   1.511  14.145  0.4590 -0.8395 -0.0610
 9603TIP3   OH250223   2.531   2.162   4.210  0.2864 -0.4633 -0.2599
 9603TIP3    H150224   2.595   2.233   4.202 -0.3593  0.3389  1.4015
 9603TIP3    H250225   2.458   2.190   4.155  0.0455  0.1476  0.3676
 9604TIP3   OH250226   3.388   3.123   2.817 -0.4940 -0.3067  0.4947
 9604TIP3    H150227   3.340   3.167   2.887 -0.9334 -1.8457  1.2073
 9604TIP3    H250228   3.386   3.030   2.841  0.2876 -0.7490 -1.0067
 9605TIP3   OH250229   1.834   3.279  13.889  0.1495 -0.2750 -0.1945
 9605TIP3    H150230   1.917   3.313  13.923 -0.6485  1.6268  0.0036
 9605TIP3    H250231   1.853   3.189  13.865  1.8293 -0.4228  1.4297
 9606TIP3   OH250232   3.896   4.592  13.714  0.1044  0.2234  0.2399
 9606TIP3    H150233   3.963   4.548  13.766  0.0741 -0.5161 -0.3315
 9606TIP3    H250234   3.931   4.594  13.625 -0.4868  0.1272 -0.0014
 9607TIP3   OH250235   4.624   6.684  13.527  0.3335  0.1196  1.0211
 9607TIP3    H150236   4.699   6.726  13.570  0.6109 -0.7592  1.4297
 9607TIP3    H250237   4.587   6.627  13.595 -1.7280  1.7520  1.3552
 9608TIP3   OH250238   5.500   5.160  11.659 -0.1283 -0.4431 -0.1706
 9608TIP3    H150239   5.570   5.225  11.666  0.0704 -0.5037 -1.4194
 9608TIP3    H250240   5.542   5.077  11.682  0.1593 -0.4467 -0.6985
 9609TIP3   OH250241   2.842   1.438   2.129  0.2162  0.2488  0.1671
 9609TIP3    H150242   2.766   1.407   2.081 -0.2233 -0.7799  1.4865
 9609TIP3    H250243   2.812   1.446   2.219  0.7804  2.9541  0.2065
 9610TIP3   OH250244   1.060   0.879  15.333  0.5895  0.3269 -0.1962
 9610TIP3    H150245   1.093   0.962  15.300 -2.5495  1.6521 -0.4072
 9610TIP3    H250246   1.013   0.903  15.414 -0.4792 -1.1800 -0.3273
 9611TIP3   OH250247   4.670   2.383  13.753 -0.2444 -0.7760  0.4060
 9611TIP3    H150248   4.611   2.443  13.707  1.0092 -1.2655 -1.9887
 9611TIP3    H250249   4.612   2.317  13.791 -1.3562 -0.2393 -0.3093
 9612TIP3   OH250250   1.144   1.799  12.503 -0.6989  0.0741  0.1252
 9612TIP3    H150251   1.105   1.729  12.556 -0.4244 -0.0809  0.1243
 9612TIP3    H250252   1.072   1.830  12.448 -0.4740 -1.2025 -0.9175
 9613TIP3   OH250253   0.623   5.308  11.579  0.2505 -0.2876  0.4193
 9613TIP3    H150254   0.560   5.242  11.608  1.4868 -1.4255  0.6319
 9613TIP3    H250255   0.593   5.389  11.620 -1.9953 -0.4097 -0.7858
 9614TIP3   OH250256   5.253   0.883   0.346 -0.7707 -0.0101  0.4072
 9614TIP3    H150257   5.216   0.925   0.269 -0.0823  0.5103  0.3499
 9614TIP3    H250258   5.344   0.866   0.323 -0.6014 -0.0024  1.0425
 9615TIP3   OH250259   3.764   0.748   2.173 -0.0025  0.2257  0.1202
 9615TIP3    H150260   3.800   0.794   2.248 -0.0025  0.0271  0.2409
 9615TIP3    H250261   3.819   0.671   2.162  0.7835  0.9000 -0.8609
 9616TIP3   OH250262   1.960   3.828  17.200 -0.8116 -0.4652 -0.1514
 9616TIP3    H150263   1.974   3.803  17.109 -0.2985 -0.5812 -0.0402
 9616TIP3    H250264   1.901   3.903  17.196  0.4585  0.5215 -0.6541
 9617TIP3   OH250265   6.341   2.869   5.567 -0.1113  0.7676  0.2474
 9617TIP3    H150266   6.373   2.785   5.535 -0.2043  1.1080 -0.7478
 9617TIP3    H250267   6.258   2.882   5.521  0.8419  2.3199 -1.1113
 9618TIP3   OH250268   5.796   5.962  12.996 -0.1493 -0.8439 -0.1715
 9618TIP3    H150269   5.783   5.885  13.051 -1.8245 -0.1459  0.4624
 9618TIP3    H250270   5.849   6.021  13.049  0.0564 -1.0315 -0.1647
 9619TIP3   OH250271   4.935   5.514   3.505 -0.0357 -0.1278  0.4102
 9619TIP3    H150272   4.875   5.571   3.457  1.8835  0.5625 -1.2734
 9619TIP3    H250273   4.879   5.444   3.538 -1.9859  1.2076  0.1071
 9620TIP3   OH250274   5.452   6.193  17.220  0.2321  0.9492 -0.0344
 9620TIP3    H150275   5.489   6.270  17.261  1.1436  1.0085 -0.9333
 9620TIP3    H250276   5.516   6.167  17.154 -0.9245  0.5336 -1.0417
 9621TIP3   OH250277   4.942   6.655   4.708  0.3772 -0.5063  0.1050
 9621TIP3    H150278   4.873   6.638   4.644  0.5266 -1.3983  0.1698
 9621TIP3    H250279   5.020   6.675   4.656  0.3640 -0.6865  0.0169
 9622TIP3   OH250280   0.025   5.497   1.345 -0.1399 -0.2669 -0.3643
 9622TIP3    H150281   0.045   5.478   1.437  0.4576 -0.9860 -0.6328
 9622TIP3    H250282  -0.040   5.567   1.349  1.0239  0.8194  0.5893
 9623TIP3   OH250283   3.193   5.693   3.950  0.5317  0.3833 -1.0553
 9623TIP3    H150284   3.125   5.740   3.999 -0.9260 -0.5729 -2.0985
 9623TIP3    H250285   3.267   5.689   4.011  0.4611  3.3059 -0.6213
 9624TIP3   OH250286   4.412   3.717  15.645 -0.2137 -0.0603  0.0071
 9624TIP3    H150287   4.367   3.721  15.561  0.5078 -1.2329 -0.4681
 9624TIP3    H250288   4.355   3.763  15.706 -1.3044 -0.2017 -0.8872
 9625TIP3   OH250289   2.899   6.460   5.275 -0.0686 -0.3173  0.6500
 9625TIP3    H150290   2.886   6.532   5.212 -0.6317 -0.8583  0.1302
 9625TIP3    H250291   2.862   6.494   5.357  1.7802  0.8615  1.0491
 9626TIP3   OH250292   2.581   2.703   2.273  0.3094 -0.4256 -0.1672
 9626TIP3    H150293   2.498   2.683   2.316  1.0051 -0.3400  1.2761
 9626TIP3    H250294   2.560   2.774   2.212 -0.5060  0.2668  0.8820
 9627TIP3   OH250295   4.201   2.916  13.683 -0.6428  0.2253 -0.2818
 9627TIP3    H150296   4.242   2.843  13.729 -0.6271  0.1276 -0.4465
 9627TIP3    H250297   4.108   2.907  13.701 -0.4934  1.2082  1.1773
 9628TIP3   OH250298   1.637   2.246   2.385 -0.0559 -0.3721 -0.2360
 9628TIP3    H150299   1.637   2.331   2.341 -0.7637 -1.1890 -1.8863
 9628TIP3    H250300   1.727   2.215   2.376  0.6015  0.8145  1.7026
 9629TIP3   OH250301   0.513   0.753  16.851 -0.6143 -0.3243  0.0697
 9629TIP3    H150302   0.522   0.848  16.840 -2.4670 -0.3199 -2.2988
 9629TIP3    H250303   0.578   0.716  16.791 -1.6888 -0.4822 -1.0329
 9630TIP3   OH250304   1.365   2.861  14.525  0.3643  0.0945 -0.2388
 9630TIP3    H150305   1.318   2.828  14.601  0.5469  1.5950  0.5586
 9630TIP3    H250306   1.314   2.831  14.450 -0.5169 -0.3297  0.5192
 9631TIP3   OH250307   5.742   5.004  11.274  0.5826  0.9135  0.2475
 9631TIP3    H150308   5.653   5.022  11.303  0.0501 -0.7851 -0.1849
 9631TIP3    H250309   5.759   5.069  11.205 -0.5485  0.8922 -0.0648
 9632TIP3   OH250310   2.342   4.760   5.460 -0.6883  0.2655  0.5338
 9632TIP3    H150311   2.371   4.793   5.375 -0.1825  0.6018  0.8353
 9632TIP3    H250312   2.409   4.789   5.522  0.2061 -1.9568  0.7070
 9633TIP3   OH250313   6.355   5.455   4.598 -0.2631  0.5861  0.0815
 9633TIP3    H150314   6.384   5.536   4.557  1.3285  0.1163  0.2119
 9633TIP3    H250315   6.424   5.434   4.662 -1.0814 -0.3993  0.6798
 9634TIP3   OH250316   2.367   2.411  14.462  0.4349  0.2974  0.1248
 9634TIP3    H150317   2.318   2.493  14.467 -1.6281 -0.9506  1.8640
 9634TIP3    H250318   2.459   2.438  14.467 -0.1680  2.4990  0.4653
 9635TIP3   OH250319   0.138   2.976   4.531  0.1157 -0.6622 -0.0502
 9635TIP3    H150320   0.056   3.015   4.499  0.9126  0.6966 -0.4826
 9635TIP3    H250321   0.153   3.018   4.616 -0.2027 -1.7559  0.5765
 9636TIP3   OH250322   4.730   3.251   1.609 -0.1349  0.2267  0.1063
 9636TIP3    H150323   4.675   3.242   1.532 -0.2809 -0.8673  0.3221
 9636TIP3    H250324   4.755   3.344   1.610  0.8677  0.0366 -1.9206
 9637TIP3   OH250325   3.137   0.337  11.491  0.2941 -0.1508 -0.0579
 9637TIP3    H150326   3.117   0.256  11.538 -1.5174 -0.6097 -1.4961
 9637TIP3    H250327   3.168   0.307  11.405 -1.3278  0.6033 -0.9671
 9638TIP3   OH250328   2.267   0.470   6.530  0.4561 -0.0339 -0.1376
 9638TIP3    H150329   2.274   0.551   6.481 -0.6222 -1.0885 -2.1677
 9638TIP3    H250330   2.322   0.484   6.608  0.8921  2.3193 -0.7921
 9639TIP3   OH250331   6.147   2.372  15.649  0.6187 -0.3792 -0.7479
 9639TIP3    H150332   6.060   2.330  15.653  0.3927  0.1461 -0.1157
 9639TIP3    H250333   6.160   2.409  15.736  0.8367  0.8243 -1.2814
 9640TIP3   OH250334   0.141   3.366   1.470  0.2746 -0.4909  0.6684
 9640TIP3    H150335   0.156   3.275   1.443 -0.7580 -0.4090 -0.2627
 9640TIP3    H250336   0.227   3.407   1.465  0.6453 -1.2666  0.5021
 9641TIP3   OH250337   5.090   1.117  14.689  0.6934 -0.0484  0.3435
 9641TIP3    H150338   5.164   1.141  14.634 -1.9541  1.0602 -3.0595
 9641TIP3    H250339   5.061   1.199  14.728  0.6296 -0.3176  0.8801
 9642TIP3   OH250340   6.064   2.888   5.464 -0.0992  0.4123  0.1707
 9642TIP3    H150341   6.020   2.885   5.379  0.2896  0.7219 -0.0511
 9642TIP3    H250342   6.041   2.974   5.500 -1.5801 -0.3415  1.1206
 9643TIP3   OH250343   3.060   2.263  11.082 -0.9269  0.2803  0.1608
 9643TIP3    H150344   3.021   2.275  10.996 -2.9258  0.6286  1.0565
 9643TIP3    H250345   3.056   2.168  11.096 -0.3385  0.1932 -0.2290
 9644TIP3   OH250346   6.458   4.692   3.881 -0.2605  0.1971 -0.4349
 9644TIP3    H150347   6.508   4.668   3.960  0.4295 -0.4008 -1.0365
 9644TIP3    H250348   6.374   4.647   3.892  0.6618 -1.7999 -1.0839
 9645TIP3   OH250349   4.538   5.148  15.620 -0.0457  0.8436  0.3603
 9645TIP3    H150350   4.453   5.191  15.614 -0.7006 -0.3907  0.4625
 9645TIP3    H250351   4.596   5.202  15.567 -0.0780  3.5503  2.7668
 9646TIP3   OH250352   0.579   0.306  14.552 -0.4021  0.5633 -0.6586
 9646TIP3    H150353   0.554   0.392  14.584  0.5799  1.2085 -1.5256
 9646TIP3    H250354   0.506   0.278  14.497 -1.1934  0.3503  0.4830
 9647TIP3   OH250355   1.855   2.217   2.066  0.2745 -0.1593 -0.5700
 9647TIP3    H150356   1.909   2.264   2.003  1.0969 -0.6157 -0.2238
 9647TIP3    H250357   1.783   2.277   2.086  0.1207  0.0788 -1.7519
 9648TIP3   OH250358   6.146   4.899   5.211  0.0253  0.8391  0.4684
 9648TIP3    H150359   6.118   4.939   5.293 -0.3049  1.4693  0.0610
 9648TIP3    H250360   6.069   4.905   5.154  0.0596 -0.1342  0.3029
 9649TIP3   OH250361   2.935   0.830   3.594  0.2109 -0.0989 -0.3291
 9649TIP3    H150362   2.933   0.753   3.537  0.9877 -1.2787  1.1339
 9649TIP3    H250363   2.966   0.796   3.678  1.5534  1.9988  0.1046
 9650TIP3   OH250364   3.083   3.839  16.150  0.1051  0.1368 -0.0724
 9650TIP3    H150365   3.090   3.744  16.141 -1.0872  0.1198 -1.2104
 9650TIP3    H250366   3.093   3.855  16.244 -1.9732 -1.3695  0.4942
 9651TIP3   OH250367   6.109   0.800   3.261  0.2360  0.5816 -0.1248
 9651TIP3    H150368   6.180   0.778   3.200 -0.6051  0.2511 -1.0206
 9651TIP3    H250369   6.029   0.779   3.212 -0.5185  2.1731  0.3844
 9652TIP3   OH250370   5.874   2.332   2.082 -0.1252 -0.2075 -0.5191
 9652TIP3    H150371   5.855   2.382   2.003 -1.3794  1.3837  0.7355
 9652TIP3    H250372   5.824   2.251   2.071 -0.1457 -0.0865 -1.4237
 9653TIP3   OH250373   1.972   6.285   1.887  0.1681  0.5111  0.1697
 9653TIP3    H150374   2.048   6.342   1.887  1.2112 -0.7532 -1.7296
 9653TIP3    H250375   2.002   6.204   1.929  0.7544 -0.8808 -2.6362
 9654TIP3   OH250376   5.738   0.987   7.033 -0.3721 -0.0820 -0.0535
 9654TIP3    H150377   5.755   1.006   6.941  0.5389 -0.5382  0.0119
 9654TIP3    H250378   5.821   1.004   7.077  0.2794 -3.1945  0.1461
 9655TIP3   OH250379   1.837   0.548   3.957  0.4488  0.2407  0.0122
 9655TIP3    H150380   1.826   0.607   3.882 -0.0013 -0.5388 -0.5424
 9655TIP3    H250381   1.805   0.599   4.032 -1.3727  0.1720 -0.6841
 9656TIP3   OH250382   2.502   4.683  11.748  0.0075 -0.3423 -0.2296
 9656TIP3    H150383   2.506   4.778  11.752 -0.6689 -0.0300 -3.8436
 9656TIP3    H250384   2.585   4.657  11.706  0.7610 -1.5398  1.8302
 9657TIP3   OH250385   2.207   2.224   5.264  0.1544 -0.2696 -0.1336
 9657TIP3    H150386   2.297   2.213   5.233  0.4387 -0.0071  0.5819
 9657TIP3    H250387   2.191   2.149   5.321 -0.1040 -0.3499 -0.3090
 9658TIP3   OH250388   6.582   1.120   0.034 -0.7569 -0.6269 -0.0723
 9658TIP3    H150389   6.660   1.145  -0.014 -0.9055  0.2293  0.1282
 9658TIP3    H250390   6.514   1.181   0.006 -1.4918 -1.6280 -0.5763
 9659TIP3   OH250391   5.415   3.414   1.283 -0.3694  0.6212 -0.3946
 9659TIP3    H150392   5.508   3.400   1.302 -0.6845  1.1589  1.8309
 9659TIP3    H250393   5.372   3.337   1.320 -0.9219  1.0557 -0.1250
 9660TIP3   OH250394   0.582   1.159  14.673  0.3393 -0.1534  0.6824
 9660TIP3    H150395   0.550   1.246  14.699 -1.1272 -1.0402  2.0019
 9660TIP3    H250396   0.529   1.137  14.596  0.4901 -0.0177  0.5390
 9661TIP3   OH250397   1.543   3.310  16.461 -0.6156  0.4995 -0.5271
 9661TIP3    H150398   1.547   3.332  16.555 -0.4202  1.6244 -0.7771
 9661TIP3    H250399   1.458   3.270  16.450 -1.0425  1.2278 -0.0219
 9662TIP3   OH250400   6.595   1.775   0.576 -0.3152  0.4053 -0.0231
 9662TIP3    H150401   6.572   1.710   0.510 -0.3774 -0.4279  0.7995
 9662TIP3    H250402   6.514   1.822   0.594 -0.4206  0.2693 -0.1463
 9663TIP3   OH250403   4.111   3.603  12.144  0.2535 -0.1607  0.6195
 9663TIP3    H150404   4.028   3.562  12.167  0.1866  0.4799  1.5922
 9663TIP3    H250405   4.087   3.691  12.115  0.6420  0.3288  1.7321
 9664TIP3   OH250406   2.164   3.006   2.111 -0.4419  0.8524 -0.0098
 9664TIP3    H150407   2.239   2.951   2.089  0.3255  2.2302 -0.9888
 9664TIP3    H250408   2.159   3.003   2.207 -0.8935 -1.4633 -0.0613
 9665TIP3   OH250409   2.612   0.054  15.042  0.5434 -0.1512 -0.0557
 9665TIP3    H150410   2.700   0.088  15.059 -0.3272  2.7913 -0.7801
 9665TIP3    H250411   2.561   0.081  15.118 -0.0578 -0.4502 -0.3537
 9666TIP3   OH250412   5.683   4.621  16.287  1.1805 -0.3468 -0.3471
 9666TIP3    H150413   5.706   4.711  16.308 -4.7309  2.0782 -2.1301
 9666TIP3    H250414   5.684   4.618  16.191  1.8174 -2.4933 -0.3297
 9667TIP3   OH250415   2.298   2.551   0.410 -0.3136 -0.1168 -0.3362
 9667TIP3    H150416   2.355   2.628   0.401 -0.0146 -0.2234  0.6295
 9667TIP3    H250417   2.274   2.530   0.320  0.5102  0.4296 -0.7017
 9668TIP3   OH250418   3.741   2.194   1.703 -0.3356  0.0215 -0.0475
 9668TIP3    H150419   3.770   2.104   1.713 -0.5030  0.1328  1.8696
 9668TIP3    H250420   3.653   2.187   1.665 -1.1413 -0.7767  1.8219
 9669TIP3   OH250421   4.185   2.355   5.644 -0.2917 -0.6735 -0.3388
 9669TIP3    H150422   4.265   2.313   5.614  0.3670  1.3109 -1.5480
 9669TIP3    H250423   4.161   2.415   5.573 -0.9782  1.1836  1.3567
 9670TIP3   OH250424   6.224   5.380  15.748  0.0837 -0.3572  0.0871
 9670TIP3    H150425   6.138   5.405  15.715  0.1624  1.4884  1.1209
 9670TIP3    H250426   6.273   5.353  15.670 -1.3127 -1.1732 -0.5431
 9671TIP3   OH250427   2.570   5.986  12.121 -0.1383 -0.5522 -0.3316
 9671TIP3    H150428   2.586   5.990  12.027  2.4624 -1.0259  0.0133
 9671TIP3    H250429   2.546   6.075  12.145 -0.5358 -0.3613 -1.3820
 9672TIP3   OH250430   6.589   1.999   1.729 -0.3190 -0.2723 -0.2094
 9672TIP3    H150431   6.508   1.972   1.772 -0.4248 -0.9852 -0.8332
 9672TIP3    H250432   6.623   2.070   1.783  0.8306 -2.6782  2.5037
 9673TIP3   OH250433   5.549   2.111  17.055  0.9265  0.4055  0.0025
 9673TIP3    H150434   5.489   2.166  17.106  1.2553  0.9657 -0.2078
 9673TIP3    H250435   5.561   2.033  17.109  1.7001  1.2240  1.0624
 9674TIP3   OH250436   3.113   1.548  10.901 -0.5716  0.3043 -0.8508
 9674TIP3    H150437   3.196   1.510  10.873 -0.8262 -1.1383  0.2232
 9674TIP3    H250438   3.128   1.642  10.899  1.1528  0.0755 -0.5250
 9675TIP3   OH250439   5.109   1.955   3.510  0.2358  0.6341  0.8773
 9675TIP3    H150440   5.042   1.887   3.500 -0.3888  1.3476 -0.0080
 9675TIP3    H250441   5.166   1.943   3.433  0.4736  0.7303  1.0385
 9676TIP3   OH250442   6.109   4.720   2.043 -0.0655 -0.3191 -0.7113
 9676TIP3    H150443   6.033   4.686   2.090 -0.1538 -0.5081 -0.9858
 9676TIP3    H250444   6.099   4.815   2.045  0.2513 -0.3019  0.1770
 9677TIP3   OH250445   5.969   4.915   5.826  0.1836 -0.6906 -0.1497
 9677TIP3    H150446   6.017   4.945   5.749  0.6100 -1.4021 -0.1644
 9677TIP3    H250447   5.888   4.967   5.826  1.8788  2.2247  1.1411
 9678TIP3   OH250448   2.340   2.227   6.339 -0.0431  0.1092  0.1709
 9678TIP3    H150449   2.413   2.196   6.284 -0.0691 -0.8061  0.6425
 9678TIP3    H250450   2.263   2.183   6.303 -0.2575  0.4857  0.1603
 9679TIP3   OH250451   5.133   5.274   2.892 -0.0033 -0.3096  0.2896
 9679TIP3    H150452   5.161   5.239   2.807 -2.7437  0.6747 -1.1528
 9679TIP3    H250453   5.116   5.197   2.945  2.5982 -0.9407  0.3347
 9680TIP3   OH250454   2.119   0.626   4.190  0.2293 -0.4590  0.0210
 9680TIP3    H150455   2.200   0.654   4.147  0.4023 -1.3643 -0.2629
 9680TIP3    H250456   2.099   0.696   4.252  1.3489 -0.3293  0.2534
 9681TIP3   OH250457   3.383   1.185  15.531 -0.0356 -0.3073  0.0622
 9681TIP3    H150458   3.321   1.128  15.577 -0.5991 -1.9289 -2.4979
 9681TIP3    H250459   3.431   1.127  15.472  2.6807  1.2082  0.6032
 9682TIP3   OH250460   5.483   3.032   1.949 -0.0274 -0.0260 -0.0897
 9682TIP3    H150461   5.449   3.070   2.030 -1.6311 -2.8902  0.7231
 9682TIP3    H250462   5.406   3.020   1.893  0.0460 -3.1741  0.2700
 9683TIP3   OH250463   2.202   1.186  13.763 -0.1336 -0.5614  0.1819
 9683TIP3    H150464   2.108   1.175  13.777  0.2287 -0.5694  3.1318
 9683TIP3    H250465   2.208   1.242  13.685 -2.6463  1.2508  1.1729
 9684TIP3   OH250466   3.340   2.573   4.190 -0.0323 -0.2603  0.5149
 9684TIP3    H150467   3.424   2.586   4.235 -0.3252 -0.1940  1.0609
 9684TIP3    H250468   3.277   2.558   4.261 -0.7350  1.0476  0.1999
 9685TIP3   OH250469   4.193   2.609  13.265  0.5819  0.2035  0.1684
 9685TIP3    H150470   4.219   2.539  13.325 -3.1838 -0.1343  1.6489
 9685TIP3    H250471   4.209   2.690  13.313  0.2237  0.0813  0.4949
 9686TIP3   OH250472   5.827   3.010  16.267  0.3084 -0.1331 -0.3704
 9686TIP3    H150473   5.767   3.032  16.196 -1.4510  2.1378  1.6163
 9686TIP3    H250474   5.814   2.917  16.282  0.2400 -0.5120 -2.5299
 9687TIP3   OH250475   5.350   6.380  16.584  0.6934  0.2287 -0.5375
 9687TIP3    H150476   5.351   6.384  16.679  1.5283 -0.2437 -0.5097
 9687TIP3    H250477   5.307   6.297  16.564  0.7484  0.2067 -0.5656
 9688TIP3   OH250478   6.528   0.982  16.381 -0.2490  0.0327  0.0263
 9688TIP3    H150479   6.540   0.937  16.464  0.0827 -1.4904 -0.8025
 9688TIP3    H250480   6.466   1.053  16.400 -3.3240 -2.6469  0.8046
 9689TIP3   OH250481   3.971   4.920  11.904  0.1756 -0.3631  0.1291
 9689TIP3    H150482   4.010   4.861  11.839  0.9441  0.3724 -0.0966
 9689TIP3    H250483   4.000   4.885  11.988 -1.4296 -1.7633  0.1685
 9690TIP3   OH250484   4.738   3.695  13.432 -0.3213 -0.4772 -0.6486
 9690TIP3    H150485   4.683   3.762  13.474 -0.9048 -0.3579 -1.5637
 9690TIP3    H250486   4.677   3.644  13.379  0.5612  0.3849 -2.6210
 9691TIP3   OH250487   1.022   4.141   0.720  0.1501 -0.3685 -0.6032
 9691TIP3    H150488   0.968   4.155   0.642  0.1332 -0.4016 -0.5974
 9691TIP3    H250489   1.050   4.229   0.746 -0.6588 -0.2527 -0.0662
 9692TIP3   OH250490   2.012   1.141   2.123  0.1457 -0.2216 -0.4652
 9692TIP3    H150491   2.024   1.170   2.033  0.2801 -0.9170 -0.6792
 9692TIP3    H250492   2.088   1.086   2.141  0.4947  0.4868  0.3254
 9693TIP3   OH250493   5.443   3.719   5.588  0.6982 -0.9000  0.4001
 9693TIP3    H150494   5.460   3.763   5.504  0.7221 -2.4441 -0.4481
 9693TIP3    H250495   5.451   3.788   5.653  1.6435  0.1625 -0.7778
 9694TIP3   OH250496   2.367   2.738   5.069 -0.0164 -0.4220  0.3255
 9694TIP3    H150497   2.364   2.826   5.032  0.8934 -0.0895  1.0181
 9694TIP3    H250498   2.368   2.680   4.993 -1.6567  0.1012 -0.1400
 9695TIP3   OH250499   1.507   1.912  12.047 -0.4988  0.0492 -0.1117
 9695TIP3    H150500   1.585   1.861  12.024 -0.7337 -0.0565 -0.7050
 9695TIP3    H250501   1.479   1.877  12.131 -0.8590 -1.0668 -0.6681
 9696TIP3   OH250502   0.789   3.283   3.550  0.0435  0.1657  0.2668
 9696TIP3    H150503   0.816   3.253   3.463 -2.1230  0.6223 -0.6197
 9696TIP3    H250504   0.871   3.289   3.599  1.0987 -2.5104 -0.9366
 9697TIP3   OH250505   2.095   2.635  16.651  0.1420 -0.1402 -0.2622
 9697TIP3    H150506   2.037   2.710  16.660  1.2166  0.5719  1.0122
 9697TIP3    H250507   2.160   2.662  16.586  1.1865  0.4995  1.0090
 9698TIP3   OH250508   2.228   4.725   2.871 -0.0960  0.1906  0.2745
 9698TIP3    H150509   2.170   4.785   2.917 -1.3634  1.2115 -2.4284
 9698TIP3    H250510   2.310   4.774   2.860  0.5545 -0.4095  2.1302
 9699TIP3   OH250511   5.210   0.646  14.798 -0.3224  0.4461 -0.5992
 9699TIP3    H150512   5.146   0.718  14.795 -2.1809 -1.1018 -0.1575
 9699TIP3    H250513   5.167   0.579  14.851  1.4151 -0.9492 -0.8904
 9700TIP3   OH250514   3.622   0.404  15.600 -0.4270 -0.2331  0.5683
 9700TIP3    H150515   3.584   0.378  15.516  0.3501  0.3422  0.0137
 9700TIP3    H250516   3.549   0.404  15.661 -1.3273  0.8207 -0.4612
 9701TIP3   OH250517   0.643   3.700   0.654 -0.0671 -0.2740  0.0230
 9701TIP3    H150518   0.733   3.702   0.688  0.2549 -0.3402 -0.8048
 9701TIP3    H250519   0.612   3.790   0.664  0.7131  0.1585 -1.2933
 9702TIP3   OH250520   4.303   0.042   5.058 -0.1145  0.1981 -0.7554
 9702TIP3    H150521   4.268   0.063   4.971 -1.5463  1.8305  0.1578
 9702TIP3    H250522   4.231   0.062   5.118  1.0379 -0.3573  0.8802
 9703TIP3   OH250523   0.514   2.569  14.726 -0.1314  0.0536 -0.1598
 9703TIP3    H150524   0.464   2.649  14.742 -1.7437 -0.8380 -0.5422
 9703TIP3    H250525   0.507   2.555  14.632  0.5089 -0.3127 -0.1600
 9704TIP3   OH250526   3.494   2.560  15.740 -0.2766 -0.7582 -0.5098
 9704TIP3    H150527   3.438   2.561  15.662 -0.0781 -2.7719 -0.7377
 9704TIP3    H250528   3.582   2.542  15.706  0.0192 -0.4505  0.0802
 9705TIP3   OH250529   2.555   6.577  13.887  0.2931 -0.1169  0.0397
 9705TIP3    H150530   2.610   6.579  13.808  0.9551 -0.9265  0.4555
 9705TIP3    H250531   2.496   6.651  13.878  1.0312  0.3877 -0.7409
 9706TIP3   OH250532   3.919   4.830  14.288  0.8512  0.2836 -0.0448
 9706TIP3    H150533   3.861   4.791  14.223  0.8909  0.9421 -0.4767
 9706TIP3    H250534   3.914   4.770  14.363 -1.3285  0.9278  0.4055
 9707TIP3   OH250535   0.429   4.803  10.946 -0.2403  0.1129 -0.8852
 9707TIP3    H150536   0.335   4.820  10.958 -0.1489 -0.6360  1.3917
 9707TIP3    H250537   0.470   4.845  11.022  1.0412 -1.2206 -0.7989
 9708TIP3   OH250538   1.826   0.974  15.138 -0.1347  0.2986  0.0565
 9708TIP3    H150539   1.830   0.936  15.051 -0.9532 -0.3252  0.2806
 9708TIP3    H250540   1.881   0.917  15.192  1.2036  1.2605 -0.2332
 9709TIP3   OH250541   5.823   5.511  14.403 -0.1763 -0.1324 -0.2155
 9709TIP3    H150542   5.791   5.422  14.420 -1.3245  0.0036 -1.5145
 9709TIP3    H250543   5.792   5.562  14.478 -1.5265 -0.3864 -0.5584
 9710TIP3   OH250544   6.074   6.027   2.996  0.2406  0.2762  0.1270
 9710TIP3    H150545   6.002   6.082   2.966  1.9462  1.3820 -2.2575
 9710TIP3    H250546   6.075   6.038   3.091 -1.3725  1.9245 -0.0016
 9711TIP3   OH250547   0.263   4.065  11.300  0.3708  0.2051  0.2460
 9711TIP3    H150548   0.295   3.987  11.254 -0.2996  0.6731 -1.0873
 9711TIP3    H250549   0.168   4.061  11.289  0.3066  1.0206  0.4897
 9712TIP3   OH250550   5.296   5.039   1.397 -0.1715 -0.1975 -0.4487
 9712TIP3    H150551   5.364   5.047   1.330  0.4182  1.3809  0.2958
 9712TIP3    H250552   5.227   5.100   1.369  0.3427  0.9296  0.6464
 9713TIP3   OH250553   1.227   0.354  16.452  1.0301 -0.4546 -0.2660
 9713TIP3    H150554   1.280   0.423  16.411  0.9556 -0.1191  0.1888
 9713TIP3    H250555   1.187   0.308  16.378  0.2234  0.6820 -0.5618
 9714TIP3   OH250556   4.239   6.570   4.700  0.6442  0.1687 -0.6011
 9714TIP3    H150557   4.173   6.501   4.703  2.2167 -1.6452 -3.2670
 9714TIP3    H250558   4.313   6.535   4.749  0.3932  1.3449  0.6791
 9715TIP3   OH250559   6.085   6.256  13.577 -0.4471  0.0170 -0.0240
 9715TIP3    H150560   6.109   6.271  13.486  0.7997  1.2448  0.4751
 9715TIP3    H250561   6.147   6.191  13.608 -1.7886 -1.5074 -0.4103
 9716TIP3   OH250562   2.152   0.869  11.604 -0.4067  0.0246  0.3712
 9716TIP3    H150563   2.085   0.849  11.670  0.7125  0.5420  1.6989
 9716TIP3    H250564   2.234   0.837  11.641  0.3277  0.7330 -0.5701
 9717TIP3   OH250565   1.709   2.045   3.906  0.9581  0.3624  0.0129
 9717TIP3    H150566   1.801   2.047   3.879  1.0677  0.2036  0.3636
 9717TIP3    H250567   1.704   1.972   3.968  0.3508 -0.3730 -0.8702
 9718TIP3   OH250568   3.842   0.585   1.794  0.3742 -0.4840 -0.3872
 9718TIP3    H150569   3.920   0.530   1.801  0.6152 -0.0884  0.0658
 9718TIP3    H250570   3.873   0.665   1.751  0.4697  0.1327  0.7803
 9719TIP3   OH250571   3.058   1.731  13.208  0.0078 -0.4728 -0.0297
 9719TIP3    H150572   2.970   1.744  13.242 -1.0937 -0.2930 -2.7290
 9719TIP3    H250573   3.116   1.762  13.278 -1.9692 -1.7477  2.3194
 9720TIP3   OH250574   3.894   3.562   1.152 -0.0127  0.3850 -0.5103
 9720TIP3    H150575   3.953   3.637   1.143 -0.8020  1.0165 -0.5786
 9720TIP3    H250576   3.860   3.547   1.063  0.0842 -0.0101 -0.4837
 9721TIP3   OH250577   4.653   3.406  14.092 -0.1103  0.1509 -0.1288
 9721TIP3    H150578   4.602   3.468  14.040  1.1598  0.3558 -1.2090
 9721TIP3    H250579   4.625   3.320  14.060  0.5039  0.2711 -1.0303
 9722TIP3   OH250580   6.625   1.300  16.409  1.0210 -0.2761  0.4321
 9722TIP3    H150581   6.622   1.252  16.492  0.2169 -0.5379  0.2644
 9722TIP3    H250582   6.533   1.306  16.382  1.2754 -0.2340 -0.4556
 9723TIP3   OH250583   1.952   2.879  11.540  0.1710  0.5255  0.5980
 9723TIP3    H150584   1.942   2.802  11.485 -0.1204  0.1858  1.1194
 9723TIP3    H250585   1.984   2.947  11.481 -2.2276  0.7858 -0.5129
 9724TIP3   OH250586   1.499   3.369   0.426 -0.5573  0.4273 -0.4324
 9724TIP3    H150587   1.564   3.372   0.356 -0.1560  0.9285 -0.0475
 9724TIP3    H250588   1.481   3.276   0.439  1.4255  0.1466  0.6763
 9725TIP3   OH250589   2.897   0.993  11.304 -0.4636 -0.0881  0.7672
 9725TIP3    H150590   2.818   0.964  11.350 -0.5334 -2.8117 -0.8511
 9725TIP3    H250591   2.870   1.005  11.213  0.9011 -0.9910  0.1929
 9726TIP3   OH250592   3.785   3.533   0.890 -0.5388  0.1433  0.4422
 9726TIP3    H150593   3.704   3.568   0.852 -0.6359 -0.6500 -0.0855
 9726TIP3    H250594   3.839   3.511   0.815  0.4300  1.2126  0.7899
 9727TIP3   OH250595   4.590   5.729   2.927  0.3134  0.1090 -0.5998
 9727TIP3    H150596   4.682   5.708   2.940  0.5273  1.0972 -0.4279
 9727TIP3    H250597   4.590   5.799   2.861 -0.2414  0.7341  0.0417
 9728TIP3   OH250598   1.422   2.833  16.296  0.0119 -0.7104  0.0673
 9728TIP3    H150599   1.482   2.884  16.242  0.1366  0.6564  1.4355
 9728TIP3    H250600   1.410   2.885  16.375 -2.4583 -1.2531  0.1434
 9729TIP3   OH250601   6.636   2.190  15.979  0.3458 -0.0248 -0.0210
 9729TIP3    H150602   6.718   2.145  15.999 -0.7596 -1.0491  2.5950
 9729TIP3    H250603   6.651   2.281  16.001  0.8148 -0.1897  0.3401
 9730TIP3   OH250604   1.786   4.970  11.686  0.0915 -0.1617  0.2303
 9730TIP3    H150605   1.863   4.938  11.733 -0.3293  0.1311  1.1345
 9730TIP3    H250606   1.801   4.943  11.595  1.6412  0.5999  0.2274
 9731TIP3   OH250607   4.829   3.702   1.796  0.4523 -0.1306 -0.0685
 9731TIP3    H150608   4.802   3.612   1.813  0.1763  0.3293  2.2860
 9731TIP3    H250609   4.747   3.751   1.788  0.5994  0.0218 -0.6742
 9732TIP3   OH250610   3.316   5.971   0.538  0.5013  0.4538  0.5906
 9732TIP3    H150611   3.360   6.021   0.469 -1.2596 -0.6804 -1.4822
 9732TIP3    H250612   3.268   6.037   0.588  0.5273  1.1486 -0.2711
 9733TIP3   OH250613   1.575   6.077  12.473 -0.1405  0.2690 -0.2369
 9733TIP3    H150614   1.596   5.985  12.487  0.2488  0.6146  1.7440
 9733TIP3    H250615   1.488   6.076  12.431  0.1713 -0.9823 -0.9052
 9734TIP3   OH250616   4.303   4.607  11.120 -0.6047  0.3178  0.4752
 9734TIP3    H150617   4.233   4.606  11.186 -0.2662  1.9660  0.9002
 9734TIP3    H250618   4.267   4.560  11.045 -0.9053 -1.8756  1.8949
 9735TIP3   OH250619   2.609   0.239  13.426 -0.9718  0.4059  0.0605
 9735TIP3    H150620   2.576   0.326  13.403 -1.6769  0.2789  0.5580
 9735TIP3    H250621   2.643   0.204  13.343 -0.9740  1.0235 -0.2083
 9736TIP3   OH250622   4.052   1.354  12.117  0.4383 -0.0667 -0.0247
 9736TIP3    H150623   4.131   1.317  12.078  0.3324 -1.2733  0.8512
 9736TIP3    H250624   3.990   1.359  12.045  0.6234 -1.1591 -0.2756
 9737TIP3   OH250625   5.738   5.530  12.363 -0.4366  0.5514 -0.5742
 9737TIP3    H150626   5.715   5.535  12.456  0.0589 -0.1245 -0.4076
 9737TIP3    H250627   5.699   5.447  12.333  1.5901 -0.5670 -0.3185
 9738TIP3   OH250628   4.201   6.142  16.177  0.2635 -0.0808 -1.0653
 9738TIP3    H150629   4.288   6.167  16.143 -0.0600  2.3982 -0.2343
 9738TIP3    H250630   4.160   6.095  16.104  2.3450 -1.5089 -1.4031
 9739TIP3   OH250631   5.319   1.439  16.553 -0.0745  0.3192 -0.5928
 9739TIP3    H150632   5.311   1.369  16.488 -0.9776  0.3605 -0.5382
 9739TIP3    H250633   5.232   1.446  16.591  0.2355  0.8730  0.0335
 9740TIP3   OH250634   1.369   1.577  13.718 -0.3028  0.1634  0.8337
 9740TIP3    H150635   1.453   1.547  13.754  0.0607  0.3443  0.1678
 9740TIP3    H250636   1.305   1.558  13.786  0.4109  0.8023  1.7153
 9741TIP3   OH250637   4.524   6.520   0.968 -0.3537 -0.0742  0.0665
 9741TIP3    H150638   4.455   6.578   0.999 -0.3461 -1.9364  4.2955
 9741TIP3    H250639   4.594   6.579   0.940 -1.7678  1.8840  0.4605
 9742TIP3   OH250640   0.896   0.364   3.705  0.3629 -0.1993 -0.3932
 9742TIP3    H150641   0.911   0.382   3.798  0.8684 -2.1638 -0.0571
 9742TIP3    H250642   0.803   0.383   3.692  0.6026  1.4631  0.1534
 9743TIP3   OH250643   1.378   5.862   0.731  0.0057 -0.2296  0.5853
 9743TIP3    H150644   1.453   5.880   0.788  1.0248  2.0215 -1.3010
 9743TIP3    H250645   1.418   5.833   0.649 -1.3132 -0.9976  0.1986
 9744TIP3   OH250646   0.045   1.467  15.523 -0.4647  0.1594  0.1315
 9744TIP3    H150647   0.138   1.471  15.544 -0.2232 -0.6396 -0.6761
 9744TIP3    H250648   0.027   1.373  15.515 -0.9596  0.3501 -1.2639
 9745TIP3   OH250649   1.464   4.428   3.482  0.2589  0.0667 -0.1364
 9745TIP3    H150650   1.419   4.344   3.473  0.6699 -0.0346 -1.6119
 9745TIP3    H250651   1.457   4.450   3.575 -1.5251 -0.6516 -0.0652
 9746TIP3   OH250652   2.483   4.528   0.254 -0.0019  0.3533  0.8898
 9746TIP3    H150653   2.509   4.620   0.260  0.6072  0.1580  1.4405
 9746TIP3    H250654   2.556   4.486   0.208  0.6777 -0.2003  2.4054
 9747TIP3   OH250655   2.455   4.979   3.736 -0.5893 -0.0639 -0.4055
 9747TIP3    H150656   2.463   5.019   3.649  1.0162 -0.9159 -0.6963
 9747TIP3    H250657   2.543   4.948   3.756 -0.5637  1.4107  2.2109
 9748TIP3   OH250658   2.101   3.497  11.304 -0.1386 -0.2884 -0.1062
 9748TIP3    H150659   2.195   3.488  11.285  0.3007 -0.3814  1.8966
 9748TIP3    H250660   2.069   3.557  11.236  1.0909 -1.2077 -1.5603
 9749TIP3   OH250661   5.388   0.044   1.672 -0.5848  0.1128 -0.2000
 9749TIP3    H150662   5.465  -0.002   1.639 -0.4639 -0.4768  0.8532
 9749TIP3    H250663   5.393   0.033   1.767 -1.1314  1.4060 -0.0079
 9750TIP3   OH250664   6.427   0.849  15.317  0.4710  0.2989 -0.0748
 9750TIP3    H150665   6.420   0.776  15.256  0.4797  1.2133 -1.1950
 9750TIP3    H250666   6.486   0.912  15.274 -1.7445  2.2362 -0.4610
 9751TIP3   OH250667   5.665   5.709   4.655  0.2831 -0.6129 -0.1492
 9751TIP3    H150668   5.649   5.704   4.561 -2.5876  0.2051  0.1976
 9751TIP3    H250669   5.700   5.623   4.678  1.2245 -0.7561 -1.9592
 9752TIP3   OH250670   4.704   5.304   3.813  0.4510 -0.4305  0.8241
 9752TIP3    H150671   4.748   5.329   3.732  1.0964  0.5350  1.4544
 9752TIP3    H250672   4.753   5.228   3.844 -0.4050 -1.4254 -0.1703
 9753TIP3   OH250673   1.085   4.427  15.330  0.4543 -0.1340 -0.5724
 9753TIP3    H150674   1.163   4.481  15.322 -0.5784  1.5627  0.1601
 9753TIP3    H250675   1.023   4.481  15.379 -2.0045 -0.4803 -3.0198
 9754TIP3   OH250676   2.667   4.012  15.842  0.1430 -0.4928  0.1237
 9754TIP3    H150677   2.644   4.014  15.935 -2.2934 -0.8849 -0.3848
 9754TIP3    H250678   2.711   3.928  15.830 -0.8369 -1.1168  0.7011
 9755TIP3   OH250679   2.045   1.210   1.850 -0.4275  0.5076  0.0118
 9755TIP3    H150680   1.964   1.161   1.837 -0.0074 -1.2641  3.0808
 9755TIP3    H250681   2.111   1.162   1.801  0.0286 -2.4937  3.1591
 9756TIP3   OH250682   2.453   0.277  15.687  0.0083 -0.2352 -0.6900
 9756TIP3    H150683   2.446   0.181  15.695 -1.0570 -0.1255 -0.2771
 9756TIP3    H250684   2.382   0.311  15.740 -1.0401  0.7444 -2.6177
 9757TIP3   OH250685   2.363   2.903  16.874 -0.4136  0.3460  0.4277
 9757TIP3    H150686   2.363   2.864  16.786  0.6841  0.1209  0.5197
 9757TIP3    H250687   2.379   2.830  16.933 -0.1079  0.6589  0.7374
 9758TIP3   OH250688   0.359   1.045   1.041  0.2136  0.2012  0.6244
 9758TIP3    H150689   0.440   1.064   0.992 -0.1979  1.9590  0.5897
 9758TIP3    H250690   0.311   1.127   1.042 -0.1594  0.0517  3.3566
 9759TIP3   OH250691   6.282   3.739  12.152 -0.2759  0.8014 -0.0586
 9759TIP3    H150692   6.268   3.776  12.065 -4.8747  0.8082  0.4549
 9759TIP3    H250693   6.330   3.658  12.136 -0.3440  1.1643 -2.4931
 9760TIP3   OH250694   0.805   1.222  15.558 -0.1412  0.3091 -0.0632
 9760TIP3    H150695   0.752   1.223  15.479  1.5998  0.2582 -1.2973
 9760TIP3    H250696   0.743   1.235  15.629 -1.4732  3.1644 -1.6055
 9761TIP3   OH250697   2.232   4.777  12.184 -0.2557  0.2634  0.6210
 9761TIP3    H150698   2.222   4.750  12.275  1.8987  0.2041  0.8913
 9761TIP3    H250699   2.273   4.703  12.140  0.6659  1.0332  0.1195
 9762TIP3   OH250700   3.361   3.024   5.115 -0.2376  0.2611 -0.7085
 9762TIP3    H150701   3.308   2.997   5.189  2.3026 -0.2740  1.0392
 9762TIP3    H250702   3.372   3.118   5.125 -0.3283  0.2714 -0.7086
 9763TIP3   OH250703   3.439   1.424  11.623 -0.1263 -0.0820 -0.2695
 9763TIP3    H150704   3.383   1.346  11.620  1.0858 -1.0375  0.8799
 9763TIP3    H250705   3.377   1.497  11.628 -1.3030 -0.9034 -1.8364
 9764TIP3   OH250706   6.129   6.211   4.269 -0.3626 -0.2946 -0.1441
 9764TIP3    H150707   6.210   6.224   4.318 -0.2453  1.5405 -0.7458
 9764TIP3    H250708   6.148   6.245   4.182 -1.4047 -1.0108 -0.6750
 9765TIP3   OH250709   4.126   6.400   2.130 -0.1566 -0.3593 -0.2192
 9765TIP3    H150710   4.172   6.483   2.121 -0.6800 -0.1111 -0.6288
 9765TIP3    H250711   4.044   6.411   2.081 -1.7683  0.0242  2.3505
 9766TIP3   OH250712   1.614   0.329   4.206 -0.3253 -0.1836  0.1262
 9766TIP3    H150713   1.705   0.306   4.191 -0.4074 -1.6578  1.6180
 9766TIP3    H250714   1.615   0.423   4.224  0.9765 -0.3044  0.7299
 9767TIP3   OH250715   1.099   2.407  11.905 -0.1531 -0.1931  0.1046
 9767TIP3    H150716   1.120   2.313  11.911  0.8147  0.0220  0.3196
 9767TIP3    H250717   1.172   2.450  11.950  0.3517  0.7758 -1.5625
 9768TIP3   OH250718   1.899   5.571   1.838  0.2152  0.3187  0.6685
 9768TIP3    H150719   1.941   5.526   1.911  2.4725 -0.3231 -0.9413
 9768TIP3    H250720   1.850   5.502   1.792  0.4121  0.3236  0.4519
 9769TIP3   OH250721   5.081   2.219   1.538 -0.8582 -0.1671  0.1122
 9769TIP3    H150722   5.037   2.226   1.622 -2.0042  1.8130 -0.5633
 9769TIP3    H250723   5.011   2.206   1.475 -0.0912 -0.8506 -0.6284
 9770TIP3   OH250724   5.705   5.100  13.710  0.0093  0.1485 -0.0247
 9770TIP3    H150725   5.628   5.043  13.713  2.4102 -3.3158  1.1684
 9770TIP3    H250726   5.750   5.074  13.630  3.3131 -3.0512  2.5608
 9771TIP3   OH250727   3.229   5.398  15.905 -0.4957  0.0785  0.1223
 9771TIP3    H150728   3.235   5.315  15.856 -1.7903 -0.2569  0.5072
 9771TIP3    H250729   3.294   5.389  15.974  1.2805  0.5030 -1.3972
 9772TIP3   OH250730   4.575   0.347  15.011 -0.5982  0.6250 -0.1535
 9772TIP3    H150731   4.500   0.301  14.972 -1.0000  1.4441 -0.3820
 9772TIP3    H250732   4.538   0.391  15.088  0.1198 -0.7016  0.9781
 9773TIP3   OH250733   2.020   1.267  17.281  0.4924 -0.4251  0.2401
 9773TIP3    H150734   2.018   1.206  17.355 -0.7149 -1.3571 -0.5097
 9773TIP3    H250735   2.111   1.298  17.278  1.0694 -1.9306  0.8752
 9774TIP3   OH250736   4.329   3.333  14.101  0.4512  0.4525  0.0530
 9774TIP3    H150737   4.288   3.332  14.014  0.0793  0.3223  0.2246
 9774TIP3    H250738   4.370   3.419  14.107  2.8010 -0.4982 -1.2991
 9775TIP3   OH250739   1.156   1.315  11.124  0.5120 -0.2493 -0.2157
 9775TIP3    H150740   1.228   1.357  11.077  0.1417  1.4426  0.6530
 9775TIP3    H250741   1.093   1.292  11.056  0.0514  2.0285 -0.6271
 9776TIP3   OH250742   4.635   1.817  13.158 -1.0306  0.4430  0.8530
 9776TIP3    H150743   4.649   1.889  13.097  1.7599  0.5042  1.4457
 9776TIP3    H250744   4.637   1.738  13.103  0.7344  0.5445  0.7210
 9777TIP3   OH250745   5.223   1.880  16.065 -0.3173 -0.0617  0.3384
 9777TIP3    H150746   5.152   1.833  16.107 -1.0069  1.4148  0.9073
 9777TIP3    H250747   5.181   1.956  16.023  0.8396  0.5519  0.2341
 9778TIP3   OH250748   5.320   2.516   5.741  0.2656  0.0004  0.0467
 9778TIP3    H150749   5.330   2.605   5.774  0.7685 -0.8580  2.3892
 9778TIP3    H250750   5.249   2.521   5.677 -0.0996  1.9597  0.5636
 9779TIP3   OH250751   2.432   1.363   5.039  0.4752  0.1485  0.2382
 9779TIP3    H150752   2.446   1.455   5.015  0.6628  0.3394  1.0458
 9779TIP3    H250753   2.513   1.319   5.014  1.4310  0.6991  2.2167
 9780TIP3   OH250754   0.712   6.600  16.066  0.6598  0.0265  0.2193
 9780TIP3    H150755   0.640   6.628  16.122  1.8764  1.0574  1.3470
 9780TIP3    H250756   0.691   6.509  16.044 -0.2993 -0.1351  1.6497
 9781TIP3   OH250757   0.163   5.299   3.464 -0.3391 -0.0549  0.0933
 9781TIP3    H150758   0.071   5.326   3.454 -0.3771 -0.3566 -0.3741
 9781TIP3    H250759   0.164   5.251   3.547 -0.3573  0.9934  0.7264
 9782TIP3   OH250760   1.511   0.596  12.582  0.3575 -0.2613 -0.2565
 9782TIP3    H150761   1.510   0.534  12.654  0.9288 -0.7638 -0.6674
 9782TIP3    H250762   1.418   0.608  12.560  0.2579 -2.3333 -1.2904
 9783TIP3   OH250763   2.396   0.659  13.748  0.2145  0.3606 -0.2010
 9783TIP3    H150764   2.399   0.665  13.843  1.9544 -0.0864 -0.2054
 9783TIP3    H250765   2.451   0.583  13.727 -0.2604  0.3690 -1.5619
 9784TIP3   OH250766   4.876   4.317  14.576  0.0407 -0.4353  0.4872
 9784TIP3    H150767   4.868   4.228  14.610 -0.3268 -1.1026 -1.2668
 9784TIP3    H250768   4.788   4.339  14.545  0.3296  0.1940  0.0844
 9785TIP3   OH250769   6.186   5.681   5.867 -0.3724  0.2566 -0.3175
 9785TIP3    H150770   6.171   5.630   5.787 -1.4639  0.7162 -0.4199
 9785TIP3    H250771   6.213   5.767   5.836  2.1170 -0.3830 -0.1399
 9786TIP3   OH250772   0.632   4.666  11.619 -0.0358  0.2420  0.3711
 9786TIP3    H150773   0.576   4.743  11.628 -2.2234 -1.3341  1.1452
 9786TIP3    H250774   0.576   4.599  11.580  2.3911 -0.4199 -2.4039
 9787TIP3   OH250775   3.747   5.554   2.366  0.4044  0.6266 -0.4203
 9787TIP3    H150776   3.746   5.570   2.460 -0.4377 -0.8951 -0.1244
 9787TIP3    H250777   3.705   5.631   2.328  0.5252  1.1451  0.4597
 9788TIP3   OH250778   5.841   1.259   4.901 -0.2210  0.0304  0.2903
 9788TIP3    H150779   5.917   1.227   4.852  0.3274  0.4540  0.8520
 9788TIP3    H250780   5.830   1.194   4.971 -0.4084 -0.0540  0.1835
 9789TIP3   OH250781   5.020   6.646  15.531 -0.0210 -0.5334 -0.3392
 9789TIP3    H150782   5.109   6.615  15.544  1.1526  1.6084 -2.4419
 9789TIP3    H250783   5.027   6.741  15.537 -2.6115 -0.3713  1.6012
 9790TIP3   OH250784   3.796   0.900   1.522  0.4408  0.1043 -0.4894
 9790TIP3    H150785   3.715   0.925   1.566 -0.5562 -0.5134 -1.8970
 9790TIP3    H250786   3.863   0.904   1.590 -1.2008 -1.9060  1.3771
 9791TIP3   OH250787   6.487   0.042  11.011 -0.9174 -0.3115  0.5617
 9791TIP3    H150788   6.499  -0.051  11.024 -1.0535 -0.4481 -0.1972
 9791TIP3    H250789   6.401   0.049  10.968  0.5181 -0.1683 -2.5925
 9792TIP3   OH250790   6.502   1.621   3.967 -0.8464 -0.3407 -0.3814
 9792TIP3    H150791   6.559   1.579   4.032  0.0957 -0.0331 -0.9929
 9792TIP3    H250792   6.528   1.583   3.883 -2.0262 -0.7000 -0.6079
 9793TIP3   OH250793   0.995   2.740  11.346  0.5381 -0.0051 -0.2735
 9793TIP3    H150794   0.979   2.830  11.373 -1.6703 -0.5217  0.3193
 9793TIP3    H250795   1.081   2.719  11.383 -0.1994  0.9305  2.2124
 9794TIP3   OH250796   3.149   1.506   3.635 -0.6129  0.3511  0.1200
 9794TIP3    H150797   3.213   1.526   3.703 -0.1721 -3.3854  1.0124
 9794TIP3    H250798   3.192   1.530   3.553 -0.7847  4.0386  0.9471
 9795TIP3   OH250799   4.462   3.209  11.722  0.2324  0.4043 -0.8382
 9795TIP3    H150800   4.449   3.232  11.629 -0.0394  0.8747 -0.6904
 9795TIP3    H250801   4.388   3.250  11.767 -0.3822 -0.9595 -0.5761
 9796TIP3   OH250802   3.121   2.091   0.580 -0.2989  0.2330 -0.0151
 9796TIP3    H150803   3.070   2.026   0.628 -0.8598  0.9716  0.4209
 9796TIP3    H250804   3.115   2.170   0.633 -0.2002  0.8267 -0.8639
 9797TIP3   OH250805   6.341   4.857  13.039  0.2938  0.0535 -0.3095
 9797TIP3    H150806   6.366   4.854  12.947  1.0929 -1.7304 -0.0742
 9797TIP3    H250807   6.412   4.904  13.082  0.3974  0.0451 -0.4718
 9798TIP3   OH250808   3.332   0.109  14.250 -0.6181 -0.4001  0.5336
 9798TIP3    H150809   3.251   0.153  14.226  0.8659  1.4500 -1.5684
 9798TIP3    H250810   3.395   0.180  14.265  1.1487 -1.7326 -0.1004
 9799TIP3   OH250811   2.012   6.369  14.481 -0.1330  0.9216  0.6897
 9799TIP3    H150812   1.987   6.337  14.394  2.6105  0.5507 -0.0552
 9799TIP3    H250813   1.948   6.329  14.540 -0.6856 -0.7258 -0.9085
 9800TIP3   OH250814   5.432   3.367  12.753 -0.1337  0.3572  0.7376
 9800TIP3    H150815   5.364   3.323  12.804  0.1818  1.2513  1.9945
 9800TIP3    H250816   5.403   3.458  12.747  1.7228  1.2121  2.9102
 9801TIP3   OH250817   6.355   4.375   2.435 -0.0167  0.2213  0.1329
 9801TIP3    H150818   6.273   4.424   2.438  0.0678  0.3644  0.1232
 9801TIP3    H250819   6.336   4.294   2.482  0.2033  0.8068  1.2687
 9802TIP3   OH250820   3.822   4.364  16.301  0.4976 -0.5854 -0.1918
 9802TIP3    H150821   3.798   4.323  16.384  2.7729 -0.1276  0.7709
 9802TIP3    H250822   3.889   4.307  16.264 -0.6847 -0.9239 -1.8890
 9803TIP3   OH250823   2.969   0.792  14.898  0.5543 -0.0169 -0.0597
 9803TIP3    H150824   3.033   0.830  14.838  0.1723  0.8516  0.0582
 9803TIP3    H250825   2.894   0.770  14.842  0.0645  1.1023  0.1112
 9804TIP3   OH250826   6.654   6.061  15.431  0.1368  0.4494  0.1808
 9804TIP3    H150827   6.581   6.005  15.403 -0.2885  0.8108  0.5411
 9804TIP3    H250828   6.652   6.055  15.527  1.5608 -0.7706  0.1726
 9805TIP3   OH250829   2.126   4.182  12.654 -0.3987 -0.3648  0.8157
 9805TIP3    H150830   2.128   4.106  12.595  0.8939 -0.1913  0.6088
 9805TIP3    H250831   2.036   4.185  12.686 -1.3562 -0.0783 -1.6627
 9806TIP3   OH250832   6.684   6.465   1.595 -0.3648 -0.5877 -0.5754
 9806TIP3    H150833   6.686   6.371   1.607 -2.7717 -0.6913 -0.4863
 9806TIP3    H250834   6.706   6.478   1.502  0.8899 -1.1289 -0.3730
 9807TIP3   OH250835   1.066   0.485   2.834  0.3846 -0.1532  0.0264
 9807TIP3    H150836   1.133   0.504   2.769  1.1412 -1.0892  0.4937
 9807TIP3    H250837   1.088   0.540   2.909  0.2593  0.0033 -0.0525
 9808TIP3   OH250838   2.462   1.847   2.538 -0.1809  0.6120 -0.8222
 9808TIP3    H150839   2.432   1.780   2.477  0.7231 -0.6028  0.0124
 9808TIP3    H250840   2.409   1.834   2.616 -0.1868  1.0511 -0.7505
 9809TIP3   OH250841   4.601   2.044  12.465 -0.2364  0.0765 -0.3110
 9809TIP3    H150842   4.669   2.007  12.520  0.5862  0.3197 -1.1400
 9809TIP3    H250843   4.521   2.040  12.519  0.3237 -0.6551  0.4870
 9810TIP3   OH250844   5.948   6.290   1.120 -0.0626  0.3418  0.1133
 9810TIP3    H150845   5.854   6.292   1.098  0.0389  0.5196 -0.3085
 9810TIP3    H250846   5.979   6.377   1.097  0.1272  0.4025  0.6114
 9811TIP3   OH250847   6.026   3.010  12.846 -0.1756  0.1578 -0.1971
 9811TIP3    H150848   5.931   2.999  12.847 -0.0706 -0.8251 -0.2789
 9811TIP3    H250849   6.052   2.992  12.756  0.2262 -0.9141  0.1177
 9812TIP3   OH250850   6.536   2.772   0.039  0.4901  0.2406  0.1282
 9812TIP3    H150851   6.570   2.684   0.058 -0.1317 -0.0752 -0.1822
 9812TIP3    H250852   6.446   2.770   0.072  0.0931  0.3805 -0.9026
 9813TIP3   OH250853   0.630   3.745   5.489  0.6838 -0.1425 -0.3005
 9813TIP3    H150854   0.701   3.739   5.425  0.3089 -0.1931 -0.7137
 9813TIP3    H250855   0.589   3.659   5.487  0.2910  0.0488 -0.4285
 9814TIP3   OH250856   0.488   2.545   4.353  0.2459  0.0021 -0.8343
 9814TIP3    H150857   0.532   2.629   4.342  1.1299 -0.1195  1.2533
 9814TIP3    H250858   0.411   2.550   4.296 -0.2287  2.5891 -0.0849
 9815TIP3   OH250859   0.473   6.686  15.177 -0.0438  0.7570 -0.1305
 9815TIP3    H150860   0.447   6.697  15.269  1.1077 -0.7191  0.4199
 9815TIP3    H250861   0.493   6.775  15.147  0.8165  1.1345  1.4441
 9816TIP3   OH250862   3.852   0.230   3.693 -0.4400  1.1302  0.0756
 9816TIP3    H150863   3.757   0.227   3.690 -0.4318  1.0456 -0.2045
 9816TIP3    H250864   3.879   0.225   3.601 -0.1374  0.1125  0.2029
 9817TIP3   OH250865   4.783   3.445   5.174 -0.5163 -0.1624  0.1158
 9817TIP3    H150866   4.688   3.441   5.188 -0.3191 -0.5558  1.5448
 9817TIP3    H250867   4.820   3.421   5.259  0.8681  0.4829 -0.2785
 9818TIP3   OH250868   0.364   6.175   5.081 -0.3428 -0.1009 -0.0763
 9818TIP3    H150869   0.326   6.102   5.130  1.5913 -0.9230  0.2771
 9818TIP3    H250870   0.428   6.213   5.141 -0.4553  1.1376 -0.7074
 9819TIP3   OH250871   4.822   0.454   2.163  0.9519  0.3493  0.0851
 9819TIP3    H150872   4.820   0.396   2.239  1.2664  0.1388 -0.0645
 9819TIP3    H250873   4.828   0.395   2.088  0.0956  0.5308 -0.1426
 9820TIP3   OH250874   1.959   5.448   5.726  0.4513 -0.3923  0.1733
 9820TIP3    H150875   1.883   5.393   5.747 -1.4933  1.7611 -0.7701
 9820TIP3    H250876   1.963   5.447   5.630 -0.9781  2.6296 -0.0292
 9821TIP3   OH250877   3.082   5.576   4.505 -0.4415  0.1564 -0.2116
 9821TIP3    H150878   3.006   5.610   4.457 -1.7557 -0.5397  1.2939
 9821TIP3    H250879   3.063   5.595   4.596  1.1655 -0.1427  0.2115
 9822TIP3   OH250880   6.228   2.995  11.474  0.1570  0.0109 -0.1463
 9822TIP3    H150881   6.168   2.979  11.401  0.1078  2.7836 -0.8136
 9822TIP3    H250882   6.173   3.026  11.545  0.4402 -0.8139  0.4518
 9823TIP3   OH250883   1.494   3.696   2.243  0.1727  0.2605 -0.9797
 9823TIP3    H150884   1.590   3.694   2.239  0.2276  0.0129  0.0884
 9823TIP3    H250885   1.469   3.605   2.259 -0.1086  0.5936  0.7107
 9824TIP3   OH250886   3.499   1.643   0.201  0.6455  0.3620 -0.3068
 9824TIP3    H150887   3.594   1.655   0.203  0.5912  1.4120  2.8912
 9824TIP3    H250888   3.464   1.730   0.219 -0.7324 -0.5501  1.8059
 9825TIP3   OH250889   0.064   4.947  11.215  0.0016  0.4655  0.1643
 9825TIP3    H150890   0.096   4.960  11.304  2.3296 -1.4716 -0.2854
 9825TIP3    H250891   0.047   5.035  11.182  0.5312  1.3085  2.0215
 9826TIP3   OH250892   3.068   3.770   5.656  0.2367 -0.7144  0.2261
 9826TIP3    H150893   3.074   3.694   5.714  0.8640  0.3739  1.6580
 9826TIP3    H250894   3.158   3.783   5.625 -0.2741 -1.9420 -1.9392
 9827TIP3   OH250895   6.091   0.883   1.605  0.0867 -0.0902  0.3566
 9827TIP3    H150896   6.153   0.811   1.616  0.0738 -0.2756 -0.6932
 9827TIP3    H250897   6.140   0.961   1.629  1.6305  0.1008 -2.9467
 9828TIP3   OH250898   4.786   2.356  12.994 -0.2665  0.5386 -0.1961
 9828TIP3    H150899   4.749   2.442  13.017  1.1645  1.0733  0.1978
 9828TIP3    H250900   4.874   2.357  13.031  0.0662 -0.7926 -0.8963
 9829TIP3   OH250901   2.705   1.167  14.351 -0.1187  0.0476 -0.1038
 9829TIP3    H150902   2.744   1.247  14.388  0.4823 -0.4472  0.3502
 9829TIP3    H250903   2.615   1.167  14.382 -0.1039  0.5206 -0.0554
 9830TIP3   OH250904   4.673   0.455   4.310  0.0072 -0.2471  0.0256
 9830TIP3    H150905   4.621   0.526   4.270 -1.0406 -0.5594  0.7741
 9830TIP3    H250906   4.684   0.483   4.401 -0.9427 -1.3040  0.4886
 9831TIP3   OH250907   1.941   1.634   5.091  0.0230 -0.0489 -0.1482
 9831TIP3    H150908   1.904   1.612   5.006 -0.1776 -0.7543  0.1204
 9831TIP3    H250909   2.007   1.566   5.108 -0.0291  0.0111  0.3184
 9832TIP3   OH250910   0.972   6.073  10.514  0.6673 -0.1546  0.3474
 9832TIP3    H150911   0.897   6.060  10.572 -1.5516  1.2774 -1.9713
 9832TIP3    H250912   1.031   6.131  10.563 -1.4253  1.5539  1.0187
 9833TIP3   OH250913   1.649   2.192   4.146  0.3402  0.6374  0.4439
 9833TIP3    H150914   1.666   2.163   4.056 -0.0731  0.3084  0.4669
 9833TIP3    H250915   1.581   2.259   4.137  2.3114  2.7131  0.2541
 9834TIP3   OH250916   5.737   4.899  17.312  0.0489  0.2046 -0.0287
 9834TIP3    H150917   5.747   4.984  17.270 -0.0759  0.0419 -0.3905
 9834TIP3    H250918   5.650   4.902  17.352 -0.0461  0.1648 -0.2321
 9835TIP3   OH250919   0.778   6.305   4.575  0.0235  0.0591  0.1006
 9835TIP3    H150920   0.741   6.382   4.619  1.2371  0.4212  0.5535
 9835TIP3    H250921   0.707   6.242   4.571 -1.1681  1.3988 -0.7656
 9836TIP3   OH250922   2.927   5.966  15.673  0.3125 -0.3340 -0.3059
 9836TIP3    H150923   2.994   6.012  15.722  0.0762 -0.6368  0.3048
 9836TIP3    H250924   2.975   5.900  15.622  0.4258 -0.9452  0.5771
 9837TIP3   OH250925   3.128   5.534  12.197 -0.2210  0.5544 -0.1358
 9837TIP3    H150926   3.042   5.533  12.238 -0.4850  1.4917 -0.6463
 9837TIP3    H250927   3.112   5.511  12.106  0.1086  0.4645 -0.1738
 9838TIP3   OH250928   0.423   0.901   0.507 -0.1106 -0.6321 -0.0546
 9838TIP3    H150929   0.399   0.809   0.523  1.4274 -1.1766 -0.6882
 9838TIP3    H250930   0.376   0.950   0.575 -2.7658 -1.5950 -1.0732
 9839TIP3   OH250931   6.142   1.736  13.633 -0.2191 -0.6083 -0.1762
 9839TIP3    H150932   6.085   1.709  13.561 -1.6121  2.2381 -0.2595
 9839TIP3    H250933   6.090   1.718  13.712  0.1199 -1.0188 -0.0431
 9840TIP3   OH250934   2.929   6.436  16.251 -0.2202  0.0709  0.6442
 9840TIP3    H150935   2.876   6.510  16.282 -0.1766  0.6612 -0.6382
 9840TIP3    H250936   2.884   6.404  16.174  1.3624  0.7330 -0.6172
 9841TIP3   OH250937   5.244   6.503  15.668  0.1652 -0.3932  0.1104
 9841TIP3    H150938   5.194   6.468  15.741  1.2954 -0.5699  0.8271
 9841TIP3    H250939   5.330   6.462  15.675  0.4702 -0.0061 -1.0058
 9842TIP3   OH250940   0.393   2.398  15.384  0.0438  0.2914  0.4786
 9842TIP3    H150941   0.312   2.347  15.390  0.0743  0.2100  0.2271
 9842TIP3    H250942   0.368   2.476  15.335  0.6940 -0.9921 -2.0726
 9843TIP3   OH250943   3.473   0.783  16.326  0.3889  0.6667 -0.2843
 9843TIP3    H150944   3.469   0.739  16.242  1.8084  1.2248 -0.6701
 9843TIP3    H250945   3.451   0.715  16.390  0.4020 -0.0347 -1.0125
 9844TIP3   OH250946   3.112   1.617  14.738 -0.0994 -0.3605  0.2785
 9844TIP3    H150947   3.132   1.710  14.738 -2.7277  0.2876  0.8739
 9844TIP3    H250948   3.016   1.613  14.739 -0.1426 -3.0187  3.4570
 9845TIP3   OH250949   3.929   3.537   4.524  0.5737  0.0451  0.3051
 9845TIP3    H150950   3.957   3.562   4.612 -2.6095  0.7371  1.2569
 9845TIP3    H250951   3.834   3.544   4.526  0.3238 -0.5231 -3.0442
 9846TIP3   OH250952   5.333   3.536   0.350  0.4832 -0.4693 -0.1070
 9846TIP3    H150953   5.268   3.539   0.281  0.8420  2.3631 -0.4567
 9846TIP3    H250954   5.414   3.509   0.306  0.1218 -1.4378 -0.1936
 9847TIP3   OH250955   5.806   2.896   1.580 -0.2434  0.3338  0.4402
 9847TIP3    H150956   5.805   2.804   1.607  0.6460  0.2220  0.1042
 9847TIP3    H250957   5.871   2.937   1.636  0.8543  0.3204 -0.7687
 9848TIP3   OH250958   5.083   4.522  14.058  0.1869  0.2086 -0.5040
 9848TIP3    H150959   5.034   4.448  14.022  0.8568 -1.3478  1.5970
 9848TIP3    H250960   5.106   4.574  13.981 -0.6091 -1.5595 -2.0340
 9849TIP3   OH250961   1.749   4.968  14.586 -0.3975  0.0386 -0.1009
 9849TIP3    H150962   1.842   4.964  14.561 -0.5759 -1.2725 -0.6355
 9849TIP3    H250963   1.746   5.034  14.655  0.4928  2.0641 -1.8688
 9850TIP3   OH250964   4.647   1.612  12.942  0.0362 -0.1601  0.5010
 9850TIP3    H150965   4.647   1.653  12.856  2.1188  1.0503  1.0276
 9850TIP3    H250966   4.638   1.518  12.923  2.4551 -0.1384 -1.2042
 9851TIP3   OH250967   3.693   5.578  17.502  0.2315  0.5540  0.3194
 9851TIP3    H150968   3.654   5.614  17.581 -0.5715 -1.1581  0.7530
 9851TIP3    H250969   3.782   5.554  17.528  0.2784  0.8475  0.4342
 9852TIP3   OH250970   0.072   3.754  11.469  0.0938 -0.3017 -0.7245
 9852TIP3    H150971   0.052   3.753  11.375  0.4857  0.8492 -0.8311
 9852TIP3    H250972   0.164   3.780  11.473  0.1425 -0.5817 -0.0225
 9853TIP3   OH250973   2.601   3.358  15.560 -0.1056  0.0512  0.7203
 9853TIP3    H150974   2.567   3.276  15.594 -1.0836  0.4124  0.6403
 9853TIP3    H250975   2.587   3.421  15.631  1.9745 -0.1221  1.3607
 9854TIP3   OH250976   0.251   4.479  15.989 -0.2688 -0.1157 -0.3063
 9854TIP3    H150977   0.284   4.560  15.950 -0.0421  1.6328  3.1054
 9854TIP3    H250978   0.160   4.473  15.960  0.2569  0.2374 -2.1695
 9855TIP3   OH250979   6.132   4.771  11.430  0.4668  0.0831  0.0504
 9855TIP3    H150980   6.077   4.825  11.372  2.2185 -0.0096 -1.7907
 9855TIP3    H250981   6.143   4.824  11.509 -1.3407  0.5563  0.0277
 9856TIP3   OH250982   6.372   3.950  17.570 -0.0363  0.1672 -0.2493
 9856TIP3    H150983   6.456   3.910  17.548 -1.1208 -1.4395 -1.7443
 9856TIP3    H250984   6.358   4.016  17.503  0.7715  1.6776  1.0005
 9857TIP3   OH250985   6.672   3.941   1.211 -0.2560 -0.2034 -0.3576
 9857TIP3    H150986   6.703   3.904   1.294  2.2423 -1.3591 -1.6732
 9857TIP3    H250987   6.662   4.034   1.229 -2.3182 -0.7493  1.8709
 9858TIP3   OH250988   4.150   3.414   4.147 -0.3522  0.4704 -0.5121
 9858TIP3    H150989   4.101   3.446   4.223 -2.3062 -0.0851 -1.4689
 9858TIP3    H250990   4.114   3.463   4.073  1.4180  0.9025 -1.1331
 9859TIP3   OH250991   4.454   6.408  17.298 -0.0776  0.4764 -0.1465
 9859TIP3    H150992   4.417   6.391  17.211  0.1714 -0.0505 -0.1580
 9859TIP3    H250993   4.478   6.501  17.297 -2.2580  1.0956  0.1936
 9860TIP3   OH250994   3.434   6.079  12.489 -0.2055  0.3041  0.2830
 9860TIP3    H150995   3.501   6.040  12.432 -0.5760  2.3461 -1.6672
 9860TIP3    H250996   3.449   6.173  12.484 -2.6285  0.7682  0.5541
 9861TIP3   OH250997   4.773   4.610   5.129  0.5460  0.2235  0.7341
 9861TIP3    H150998   4.858   4.607   5.085  0.3798 -2.9400  0.4338
 9861TIP3    H250999   4.713   4.564   5.070 -1.2190  1.5926  1.3532
 9862TIP3   OH251000   5.266   6.124  11.640 -0.3287 -0.2426  0.2736
 9862TIP3    H151001   5.180   6.164  11.651 -0.7053 -1.1790  0.9109
 9862TIP3    H251002   5.306   6.128  11.727 -0.1273 -0.6703  0.2073
 9863TIP3   OH251003   1.130   4.118  10.831 -0.1148  1.0292 -0.7574
 9863TIP3    H151004   1.159   4.035  10.868 -1.9443  1.4834  1.9182
 9863TIP3    H251005   1.042   4.101  10.799 -0.4699  1.9170 -0.2788
 9864TIP3   OH251006   1.637   6.037  13.790 -0.3307 -0.8166 -0.3268
 9864TIP3    H151007   1.606   6.011  13.877 -1.1867  1.3060  0.0542
 9864TIP3    H251008   1.559   6.068  13.744  0.5663  1.1828 -0.6392
 9865TIP3   OH251009   2.126   6.634   1.713  0.1181 -0.2853  0.1816
 9865TIP3    H151010   2.162   6.628   1.801 -2.2118 -0.2284  1.2117
 9865TIP3    H251011   2.104   6.726   1.702 -0.3283 -0.4247 -0.1339
 9866TIP3   OH251012   3.314   5.854  16.474 -0.4030 -0.6028 -0.3306
 9866TIP3    H151013   3.362   5.891  16.400  0.7142 -2.6193 -0.6977
 9866TIP3    H251014   3.378   5.850  16.545 -1.2821  0.6913  0.5800
 9867TIP3   OH251015   1.986   2.324   4.844 -0.0466  0.1384 -0.6792
 9867TIP3    H151016   2.066   2.377   4.842 -0.3700  1.0936  3.3856
 9867TIP3    H251017   2.008   2.250   4.901 -1.1475 -1.4542 -2.2063
 9868TIP3   OH251018   0.617   1.310   1.632  0.5987 -0.0547 -0.0625
 9868TIP3    H151019   0.673   1.387   1.624 -0.2894  0.7680  1.1725
 9868TIP3    H251020   0.567   1.307   1.550  0.7668  0.5919 -0.1953
 9869TIP3   OH251021   0.829   2.922  17.594 -0.0931  0.5268 -0.5031
 9869TIP3    H151022   0.891   2.935  17.522  0.6554  2.5149  0.4132
 9869TIP3    H251023   0.882   2.883  17.664  0.5242  3.1731  0.6498
 9870TIP3   OH251024   6.308   6.610   4.250  0.3003  0.2843  0.1812
 9870TIP3    H151025   6.227   6.584   4.207 -0.7135  1.9680  0.9498
 9870TIP3    H251026   6.281   6.640   4.337  1.8329  0.2918  0.6987
 9871TIP3   OH251027   0.523   3.399   6.096  0.5962 -0.0280  0.2338
 9871TIP3    H151028   0.461   3.349   6.148  1.4966  0.0563  1.4327
 9871TIP3    H251029   0.469   3.449   6.035 -0.3747 -1.5889 -0.2429
 9872TIP3   OH251030   5.879   4.684  14.036 -0.4115 -0.3708 -0.3173
 9872TIP3    H151031   5.865   4.772  14.000  0.7195  0.2159  0.6005
 9872TIP3    H251032   5.803   4.669  14.092 -0.0853  0.5122  0.3995
 9873TIP3   OH251033   0.645   0.023  13.799  0.0267 -0.2218  0.2055
 9873TIP3    H151034   0.632  -0.013  13.711  0.6344 -1.8568  0.7423
 9873TIP3    H251035   0.649  -0.054  13.856  5.3433  0.1908  0.9608
 9874TIP3   OH251036   2.081   5.625   4.927  0.1230  0.0872 -0.0319
 9874TIP3    H151037   2.105   5.667   4.845  1.6667 -1.1181 -0.2317
 9874TIP3    H251038   2.161   5.584   4.958 -1.1116 -2.1248  0.5028
 9875TIP3   OH251039   1.234   4.773  16.222  0.2422  0.2051 -0.6552
 9875TIP3    H151040   1.197   4.742  16.304 -0.0665 -0.1551 -0.9308
 9875TIP3    H251041   1.310   4.717  16.207 -1.3219 -1.7153 -2.0724
 9876TIP3   OH251042   5.262   5.335  11.707  0.2069 -0.3850  0.3388
 9876TIP3    H151043   5.346   5.320  11.663 -0.1819  0.6345 -0.8135
 9876TIP3    H251044   5.220   5.249  11.708  0.9884 -0.7777  0.3449
 9877TIP3   OH251045   4.925   4.504  17.149  0.6601  0.2735 -0.2480
 9877TIP3    H151046   4.986   4.430  17.139  0.5484  0.1778 -0.2295
 9877TIP3    H251047   4.971   4.565  17.206  0.0352 -0.5970  1.2555
 9878TIP3   OH251048   0.902   6.194  15.269 -0.1438  0.9743 -0.2451
 9878TIP3    H151049   0.971   6.131  15.291 -0.0263  0.9446 -0.6948
 9878TIP3    H251050   0.846   6.148  15.206  0.5843  1.7003 -1.4506
 9879TIP3   OH251051   0.910   3.201  14.168  0.1782  0.0086 -0.4935
 9879TIP3    H151052   0.975   3.200  14.098 -0.0826  0.3712 -0.7465
 9879TIP3    H251053   0.874   3.290  14.165 -0.2628 -0.1641 -0.2998
 9880TIP3   OH251054   0.841   6.327  16.140  0.6443  0.2204 -0.0634
 9880TIP3    H151055   0.872   6.349  16.228 -0.5409 -0.4824  0.5584
 9880TIP3    H251056   0.885   6.389  16.083 -1.1678  3.0670  1.3982
 9881TIP3   OH251057   3.669   6.364   4.978 -0.2276  0.4278  0.0615
 9881TIP3    H151058   3.625   6.443   5.009 -0.4643  0.0773  0.6477
 9881TIP3    H251059   3.634   6.350   4.890 -1.0543  0.3495  0.3901
 9882TIP3   OH251060   5.816   4.818   3.407 -0.2687 -0.1555  0.0655
 9882TIP3    H151061   5.833   4.774   3.324 -1.1540  2.6779 -1.7573
 9882TIP3    H251062   5.889   4.879   3.417 -0.9378  0.5841  0.5777
 9883TIP3   OH251063   6.428   5.805   5.285  0.5913  0.0179 -0.2066
 9883TIP3    H151064   6.448   5.893   5.318  1.2718 -0.0693 -0.3782
 9883TIP3    H251065   6.464   5.746   5.351  0.8265 -0.1403 -0.4753
 9884TIP3   OH251066   4.930   4.642  15.755  0.1298  0.1967 -0.2903
 9884TIP3    H151067   4.951   4.722  15.706 -2.5044  1.1696  0.0124
 9884TIP3    H251068   4.860   4.601  15.704 -1.6829  0.4823  1.8533
 9885TIP3   OH251069   2.508   5.987  13.576  0.6644  0.4013  0.2760
 9885TIP3    H151070   2.513   6.001  13.481 -0.8787  1.7306  0.3369
 9885TIP3    H251071   2.597   5.964  13.601  1.2446  0.6074 -1.4109
 9886TIP3   OH251072   5.140   3.265  10.498 -0.1494 -0.2402  0.4345
 9886TIP3    H151073   5.095   3.181  10.501 -0.2129 -0.2627 -0.6064
 9886TIP3    H251074   5.229   3.245  10.527 -0.3209 -0.5510  0.7522
 9887TIP3   OH251075   5.422   1.544  11.492 -0.1307 -0.0917 -0.4329
 9887TIP3    H151076   5.388   1.596  11.419  0.6367  1.4587  0.2600
 9887TIP3    H251077   5.345   1.503  11.530 -0.6785 -0.0317 -1.4484
 9888TIP3   OH251078   0.732   3.338   1.139  0.2463 -0.8019  0.1447
 9888TIP3    H151079   0.660   3.276   1.127 -0.4222  0.5123 -4.8091
 9888TIP3    H251080   0.802   3.287   1.180 -1.7852 -3.5282  0.4610
 9889TIP3   OH251081   0.537   3.353  13.018 -0.0263  0.0573  0.4099
 9889TIP3    H151082   0.557   3.266  13.051  0.6483  0.1877  0.3538
 9889TIP3    H251083   0.618   3.403  13.030 -0.4225  0.6935  0.5023
 9890TIP3   OH251084   4.086   4.252  11.377  0.1574  0.4698  0.3041
 9890TIP3    H151085   4.012   4.308  11.356  0.6674  0.5003 -1.6096
 9890TIP3    H251086   4.142   4.307  11.433 -1.0208  0.5825  1.4197
 9891TIP3   OH251087   2.601   1.608   0.157  0.2814 -0.0365  0.1726
 9891TIP3    H151088   2.528   1.668   0.174  0.8648  0.1575  2.2911
 9891TIP3    H251089   2.634   1.635   0.071 -2.1121 -0.1592 -0.8752
 9892TIP3   OH251090   2.719   5.975  10.880 -0.1583 -0.2908 -0.1945
 9892TIP3    H151091   2.758   5.961  10.794 -0.4743 -0.4182 -0.3179
 9892TIP3    H251092   2.794   5.983  10.939  0.0768  0.6113 -0.6016
 9893TIP3   OH251093   6.246   4.632  17.312 -0.3790  0.4382  0.0116
 9893TIP3    H151094   6.189   4.618  17.236  0.5613 -0.7207 -0.5290
 9893TIP3    H251095   6.319   4.683  17.277 -0.0973  0.1746  0.2108
 9894TIP3   OH251096   5.076   2.792   1.449 -0.8060  0.4203 -0.3538
 9894TIP3    H151097   5.139   2.864   1.451 -0.4290  0.0996 -0.4186
 9894TIP3    H251098   5.128   2.716   1.422 -1.4203  0.3382 -1.3749
 9895TIP3   OH251099   6.008   5.893   0.061 -0.9112 -0.3280  0.6623
 9895TIP3    H151100   5.998   5.817   0.117 -0.1391 -0.2770  0.8835
 9895TIP3    H251101   5.991   5.860  -0.027  2.0136 -1.4045  0.4095
 9896TIP3   OH251102   4.849   1.623   0.915  0.3459  0.0749  0.1332
 9896TIP3    H151103   4.840   1.545   0.860  2.8834 -0.1234 -0.1352
 9896TIP3    H251104   4.812   1.597   0.999  1.7503 -1.7158  0.2636
 9897TIP3   OH251105   0.994   3.752   2.379 -0.0071 -0.1416  0.2001
 9897TIP3    H151106   0.920   3.694   2.361  0.4174 -0.0060 -2.3931
 9897TIP3    H251107   0.955   3.839   2.387 -0.4589 -0.4977  2.4151
 9898TIP3   OH251108   5.502   0.769   4.371 -0.2043 -0.6608 -0.0623
 9898TIP3    H151109   5.467   0.701   4.313 -1.3805  0.0694 -0.2468
 9898TIP3    H251110   5.428   0.793   4.427  0.2149  0.3786  0.0685
 9899TIP3   OH251111   4.439   0.585   0.237  0.4115  0.7018 -0.1212
 9899TIP3    H151112   4.406   0.507   0.282  1.5064  0.6769  0.6729
 9899TIP3    H251113   4.420   0.568   0.144 -2.0785  0.8610  0.2981
 9900TIP3   OH251114   4.399   1.439   2.813 -0.4539  0.1389  0.2509
 9900TIP3    H151115   4.350   1.517   2.840 -0.1530  0.6010 -0.5070
 9900TIP3    H251116   4.382   1.375   2.882 -0.8133  0.8289  0.8166
 9901TIP3   OH251117   2.003   4.563  14.611  0.5371 -0.1906  0.2174
 9901TIP3    H151118   1.912   4.588  14.626  0.4079 -0.7040  0.2914
 9901TIP3    H251119   2.004   4.526  14.523  0.5921 -0.5784  0.3800
 9902TIP3   OH251120   2.372   1.277   2.869 -0.1701 -0.1415  0.1137
 9902TIP3    H151121   2.414   1.363   2.871  1.8748 -1.0614 -0.7701
 9902TIP3    H251122   2.350   1.259   2.960  1.8493  0.1963  0.7233
 9903TIP3   OH251123   5.361   6.125   2.315 -0.1376  0.3386  0.0774
 9903TIP3    H151124   5.391   6.168   2.235 -0.1790  1.1004  0.4537
 9903TIP3    H251125   5.334   6.038   2.288 -1.2092  0.9659 -0.9494
 9904TIP3   OH251126   5.757   3.128  13.733 -0.2862  0.1463  0.5070
 9904TIP3    H151127   5.819   3.082  13.790  1.0906 -0.9721 -1.7126
 9904TIP3    H251128   5.740   3.211  13.777  1.9423  0.0166  1.7505
 9905TIP3   OH251129   1.922   1.840  17.014  0.6018  0.2570 -0.0018
 9905TIP3    H151130   1.931   1.918  16.959  0.6509  1.0743  1.1439
 9905TIP3    H251131   1.830   1.839  17.040  0.6910  0.1523  0.3139
 9906TIP3   OH251132   2.843   3.431  12.492  0.0954 -0.1919 -0.3133
 9906TIP3    H151133   2.836   3.464  12.582 -1.9272 -0.8041 -0.2095
 9906TIP3    H251134   2.907   3.360  12.498  0.8783  0.5411  0.3832
 9907TIP3   OH251135   2.511   2.262  11.458 -0.2869  0.4467  0.0217
 9907TIP3    H151136   2.571   2.228  11.524 -1.4718  1.9262  1.9874
 9907TIP3    H251137   2.443   2.195  11.449  0.1320  0.0333 -0.0590
 9908TIP3   OH251138   5.018   6.678  11.652 -0.4495 -0.0523  0.3487
 9908TIP3    H151139   4.970   6.748  11.607  3.7587  1.3315 -2.5894
 9908TIP3    H251140   5.042   6.717  11.737 -0.4646  1.0620 -0.1368
 9909TIP3   OH251141   0.140   1.794   1.301 -0.4419  0.2565 -0.0939
 9909TIP3    H151142   0.094   1.822   1.222  0.8038 -0.0683 -0.9614
 9909TIP3    H251143   0.221   1.846   1.301  0.2533 -0.8017  0.1560
 9910TIP3   OH251144   0.288   1.111  13.158 -0.6497  0.1195 -0.2918
 9910TIP3    H151145   0.305   1.205  13.161 -1.7775  0.3148  0.3643
 9910TIP3    H251146   0.310   1.086  13.068 -1.2542  1.1866 -0.7535
 9911TIP3   OH251147   5.685   4.913   0.226 -0.2043  0.6356 -0.4308
 9911TIP3    H151148   5.769   4.884   0.192  0.6056  1.4269  0.8005
 9911TIP3    H251149   5.690   5.009   0.224 -0.4495  0.7080  1.0605
 9912TIP3   OH251150   4.415   0.790  14.385 -0.1339 -0.7828  0.0489
 9912TIP3    H151151   4.464   0.729  14.440 -0.8785 -1.0607  0.4252
 9912TIP3    H251152   4.473   0.866  14.375  0.3146 -1.0485  0.5822
 9913TIP3   OH251153   2.631   5.740   2.500 -0.6514 -0.4017  0.1689
 9913TIP3    H151154   2.673   5.780   2.576  0.3984 -0.1060 -0.5385
 9913TIP3    H251155   2.565   5.804   2.472  1.1345  0.9947 -1.0674
 9914TIP3   OH251156   3.957   0.442  15.024  0.4683 -0.2996  0.2712
 9914TIP3    H151157   4.030   0.410  15.076  1.7724 -0.0530 -1.3364
 9914TIP3    H251158   3.997   0.475  14.944 -1.0906  2.5347  0.5137
 9915TIP3   OH251159   0.060   1.696  13.765  0.0240 -0.5842 -0.2210
 9915TIP3    H151160   0.126   1.657  13.823 -1.7341  0.5289  2.7959
 9915TIP3    H251161   0.104   1.706  13.681  2.5822 -2.9406  0.6911
 9916TIP3   OH251162   4.010   6.046   1.751 -0.3398 -0.4422  0.1067
 9916TIP3    H151163   4.070   6.116   1.778 -0.1369 -0.4470 -0.3132
 9916TIP3    H251164   4.065   5.968   1.748  0.4063  0.0799 -3.2045
 9917TIP3   OH251165   0.929   0.435   2.130 -0.3499  0.1748  0.0489
 9917TIP3    H151166   0.911   0.509   2.189 -1.4723  0.0213 -0.0652
 9917TIP3    H251167   0.958   0.365   2.188 -2.4517 -0.3110  0.6107
 9918TIP3   OH251168   5.953   0.365  14.065  0.4643  0.1793 -0.0507
 9918TIP3    H151169   5.886   0.415  14.112  0.7033  0.4075  0.0528
 9918TIP3    H251170   6.034   0.383  14.113  1.0366  1.7590 -1.5094
 9919TIP3   OH251171   5.225   1.912  17.369 -1.0203 -0.1104  0.0662
 9919TIP3    H151172   5.158   1.844  17.353 -1.1743  0.2490 -0.9044
 9919TIP3    H251173   5.177   1.984  17.410 -1.7392  1.0063 -2.5230
 9920TIP3   OH251174   1.367   3.142  12.438  0.1004  0.3832 -0.1177
 9920TIP3    H151175   1.431   3.192  12.489  0.2920 -1.0489  1.1122
 9920TIP3    H251176   1.419   3.076  12.394 -0.2989  0.4812 -0.7369
 9921TIP3   OH251177   2.216   2.671  10.116  0.0194  0.0841  0.1834
 9921TIP3    H151178   2.156   2.746  10.113 -0.3544  0.1033  3.9234
 9921TIP3    H251179   2.177   2.612  10.180  1.6362 -2.1908 -0.7818
 9922TIP3   OH251180   4.428   0.780  13.556  0.2301  0.7120  0.5489
 9922TIP3    H151181   4.430   0.692  13.594 -0.6141  0.3290 -0.2790
 9922TIP3    H251182   4.401   0.836  13.629  1.6437  0.4393  1.3240
 9923TIP3   OH251183   2.122   5.086  16.892  0.4518  0.1407 -0.4417
 9923TIP3    H151184   2.137   4.991  16.892 -0.3055  0.0083  0.2306
 9923TIP3    H251185   2.142   5.113  16.982 -3.4769 -0.1290  0.7090
 9924TIP3   OH251186   2.927   2.444  13.444 -0.2141 -0.4897 -0.2521
 9924TIP3    H151187   2.857   2.417  13.385 -1.1863  2.5682 -0.6891
 9924TIP3    H251188   3.007   2.431  13.394 -0.7722 -0.7972 -1.0809
 9925TIP3   OH251189   4.375   2.773  11.296  0.4334  0.3925 -0.0774
 9925TIP3    H151190   4.405   2.732  11.215  1.2893  1.6358 -0.4051
 9925TIP3    H251191   4.281   2.788  11.282  0.0887 -1.4084  0.0509
 9926TIP3   OH251192   3.108   1.972   5.044 -0.6095  0.2767 -0.6345
 9926TIP3    H151193   3.107   2.018   5.128  0.5961  0.4375 -0.7036
 9926TIP3    H251194   3.070   2.034   4.982 -2.8615 -0.3462  0.0037
 9927TIP3   OH251195   0.854   4.566   3.739 -0.2841 -0.4825 -0.4710
 9927TIP3    H151196   0.763   4.595   3.743 -0.5586 -1.4849  2.0036
 9927TIP3    H251197   0.853   4.477   3.774  1.7080 -0.3355  0.0992
 9928TIP3   OH251198   6.071   4.918  12.677  0.2330 -0.1426  0.7643
 9928TIP3    H151199   6.005   4.935  12.743  1.1060  0.1862  1.5765
 9928TIP3    H251200   6.050   4.977  12.605 -2.0935 -2.0973 -0.2902
 9929TIP3   OH251201   1.254   0.420   4.958  0.4753 -0.4582  0.5792
 9929TIP3    H151202   1.187   0.484   4.934  0.6185 -0.1560  0.9696
 9929TIP3    H251203   1.335   0.455   4.920  0.4249 -0.7945  0.1538
 9930TIP3   OH251204   3.158   0.117  11.660 -0.2533  0.1489 -0.2619
 9930TIP3    H151205   3.144   0.057  11.733  2.2017  0.5232  0.5982
 9930TIP3    H251206   3.229   0.174  11.688  1.1264  0.0248 -3.0870
 9931TIP3   OH251207   2.276   5.764  14.491  0.1714  0.3060  0.1540
 9931TIP3    H151208   2.338   5.806  14.431  0.6722  0.3457  0.6840
 9931TIP3    H251209   2.330   5.737  14.565 -0.6039  1.1504  1.0494
 9932TIP3   OH251210   6.594   0.544  15.268 -0.2640  0.4111  0.3270
 9932TIP3    H151211   6.550   0.480  15.325  0.5330 -0.1689  0.3263
 9932TIP3    H251212   6.523   0.593  15.227 -0.8774  1.0216  2.0000
 9933TIP3   OH251213   4.651   6.422   3.252  0.0181 -0.1512  0.6864
 9933TIP3    H151214   4.649   6.517   3.263  0.0633 -0.0842  0.1657
 9933TIP3    H251215   4.579   6.389   3.306 -0.0683  0.1893  0.7782
 9934TIP3   OH251216   0.768   2.597  14.853  0.6580 -0.2660  0.2138
 9934TIP3    H151217   0.680   2.584  14.818  1.0459 -1.3493 -0.4123
 9934TIP3    H251218   0.826   2.578  14.780  1.4404 -0.8780  0.9698
 9935TIP3   OH251219   2.920   0.773  17.204  0.3797 -0.3049 -0.0425
 9935TIP3    H151220   2.873   0.850  17.235 -0.6420 -1.3247  1.0211
 9935TIP3    H251221   2.966   0.740  17.281 -1.7708 -2.5715  0.4004
 9936TIP3   OH251222   6.294   1.240  12.893 -0.5196 -0.0914 -0.0935
 9936TIP3    H151223   6.332   1.229  12.806 -1.2370  0.5743 -0.4983
 9936TIP3    H251224   6.200   1.249  12.878 -0.8893 -1.7972  0.9041
 9937TIP3   OH251225   2.067   3.249   5.025 -0.1545  0.0396  0.1800
 9937TIP3    H151226   2.038   3.161   5.001  2.7953 -0.7908 -0.7947
 9937TIP3    H251227   2.092   3.242   5.117  2.6872 -1.0550 -0.5582
 9938TIP3   OH251228   5.127   0.505  10.760  0.8437  0.1342 -0.0371
 9938TIP3    H151229   5.055   0.488  10.821  0.3664  0.5204 -0.4834
 9938TIP3    H251230   5.180   0.572  10.803 -0.6528  2.0110 -0.9030
 9939TIP3   OH251231   2.745   2.951  12.953  0.6338 -0.5732  0.5079
 9939TIP3    H151232   2.671   2.991  12.908  0.9116 -0.4409  0.1677
 9939TIP3    H251233   2.759   3.006  13.030  1.0147 -0.0096  0.0420
 9940TIP3   OH251234   1.928   3.322  12.584 -0.5962 -1.0160  0.0929
 9940TIP3    H151235   1.969   3.272  12.513  0.4107 -0.4512  0.2710
 9940TIP3    H251236   1.940   3.413  12.560 -2.6424 -0.8030 -0.3471
 9941TIP3   OH251237   5.220   6.421  10.610  0.5264  0.0902  0.2114
 9941TIP3    H151238   5.254   6.332  10.619 -0.1525 -0.3086 -0.9255
 9941TIP3    H251239   5.126   6.409  10.595  0.1165  1.0923  1.7689
 9942TIP3   OH251240   3.623   1.312   5.411 -0.0653 -0.1424  0.1555
 9942TIP3    H151241   3.556   1.354   5.358 -0.6581 -0.8259  0.3472
 9942TIP3    H251242   3.670   1.385   5.452 -0.7506  0.3505  0.0893
 9943TIP3   OH251243   0.392   4.128   2.837 -0.0913  0.0569  0.5828
 9943TIP3    H151244   0.460   4.108   2.901  0.1726 -0.7578  0.0618
 9943TIP3    H251245   0.373   4.044   2.795 -1.2200  0.3272  0.5251
 9944TIP3   OH251246   5.268   4.077   3.652 -0.2080  0.2553  0.5603
 9944TIP3    H151247   5.298   4.162   3.684  0.7983 -0.1246  0.6681
 9944TIP3    H251248   5.339   4.047   3.594 -0.5688 -0.4914  0.4915
 9945TIP3   OH251249   4.586   3.845  17.576  0.2637 -0.1196 -0.5014
 9945TIP3    H151250   4.517   3.825  17.513 -0.2527 -1.5399  0.4445
 9945TIP3    H251251   4.622   3.760  17.600 -0.9012  0.0831  2.5274
 9946TIP3   OH251252   3.425   0.041  14.746  0.5059  0.3161  0.0879
 9946TIP3    H151253   3.410   0.015  14.655  0.0951  1.1549 -0.0943
 9946TIP3    H251254   3.506  -0.002  14.770 -0.7919 -2.2410  0.2424
 9947TIP3   OH251255   6.108   1.615  14.845  0.0032  0.1852  0.4004
 9947TIP3    H151256   6.035   1.669  14.815 -0.9978 -0.0394  2.2284
 9947TIP3    H251257   6.112   1.542  14.783 -0.6874  0.7128 -0.2770
 9948TIP3   OH251258   0.492   5.951  11.785 -0.1173 -0.0631 -0.4860
 9948TIP3    H151259   0.509   5.858  11.798  0.2867 -0.1116 -1.2727
 9948TIP3    H251260   0.506   5.965  11.691 -0.6670  0.6881 -0.4665
 9949TIP3   OH251261   3.823   3.463  15.995 -0.3074  0.0238 -0.3100
 9949TIP3    H151262   3.884   3.391  15.986 -0.5713  0.0625 -4.6220
 9949TIP3    H251263   3.739   3.428  15.964 -1.0853  1.4527  0.0742
 9950TIP3   OH251264   2.740   4.497  16.538  0.1543 -0.0844 -0.3862
 9950TIP3    H151265   2.683   4.567  16.571  0.3870  0.2730 -0.7427
 9950TIP3    H251266   2.702   4.417  16.574  0.2650  0.2781  0.5707
 9951TIP3   OH251267   3.760   5.313  13.757 -0.2510  0.5435  0.0033
 9951TIP3    H151268   3.748   5.233  13.707  0.7416 -0.3946  1.1965
 9951TIP3    H251269   3.769   5.284  13.848 -2.3211  2.2025  0.8319
 9952TIP3   OH251270   2.299   2.012  10.775 -0.0269 -0.2542  0.1090
 9952TIP3    H151271   2.209   1.985  10.792 -0.0140 -0.7539 -0.5844
 9952TIP3    H251272   2.352   1.938  10.805  0.0112 -1.0388 -1.7461
 9953TIP3   OH251273   3.278   3.224   0.138  0.0386 -1.0525 -0.2495
 9953TIP3    H151274   3.196   3.254   0.100 -0.0886  0.8239  1.3748
 9953TIP3    H251275   3.252   3.172   0.214  0.3019  0.5185  0.9643
 9954TIP3   OH251276   3.782   2.091  15.241 -0.7432 -0.0251 -0.1582
 9954TIP3    H151277   3.824   2.115  15.323  4.0300 -2.8896 -1.3952
 9954TIP3    H251278   3.739   2.008  15.259  0.4308 -0.7292 -0.4848
 9955TIP3   OH251279   5.195   3.696  17.407  0.1688 -0.1064  0.5284
 9955TIP3    H151280   5.261   3.627  17.414 -0.5995 -0.9524 -0.3335
 9955TIP3    H251281   5.208   3.749  17.486  0.3014 -1.6525  1.5825
 9956TIP3   OH251282   3.540   4.202   5.215  0.3707 -0.5373 -0.0476
 9956TIP3    H151283   3.548   4.107   5.206 -1.7457 -0.6875 -0.9020
 9956TIP3    H251284   3.624   4.236   5.185  1.3488 -2.1475  0.7397
 9957TIP3   OH251285   3.728   2.992   5.434 -0.1816  0.6748  0.0424
 9957TIP3    H151286   3.710   2.998   5.341 -1.3162 -0.0696  0.1899
 9957TIP3    H251287   3.651   3.030   5.476 -1.3400 -2.1328  0.7041
 9958TIP3   OH251288   1.700   6.519   3.834 -0.7260 -0.0207  0.5385
 9958TIP3    H151289   1.614   6.476   3.841 -1.4820  1.5009  0.8966
 9958TIP3    H251290   1.714   6.530   3.740 -0.2998 -1.4281  0.4077
 9959TIP3   OH251291   3.008   5.565  14.297  0.1461 -0.1101 -0.2040
 9959TIP3    H151292   3.064   5.612  14.358 -0.8847 -0.3329  0.9574
 9959TIP3    H251293   3.006   5.475  14.330 -1.2513 -0.0100  0.0644
 9960TIP3   OH251294   5.178   1.319   4.732 -0.2432  0.4840  0.2508
 9960TIP3    H151295   5.084   1.337   4.742 -0.3073  0.1629  0.2370
 9960TIP3    H251296   5.181   1.236   4.684  0.0505  0.6507 -0.0169
 9961TIP3   OH251297   1.055   6.620  14.659 -0.2391  0.2144 -0.3033
 9961TIP3    H151298   1.138   6.597  14.701 -0.8714 -0.3982  0.6518
 9961TIP3    H251299   0.996   6.548  14.682 -1.3189  1.1302 -0.1233
 9962TIP3   OH251300   5.986   3.201  13.036  0.1502  0.1495  0.1423
 9962TIP3    H151301   5.964   3.263  12.967 -0.2744  1.2457  1.2165
 9962TIP3    H251302   6.019   3.124  12.990 -2.3505 -0.1136 -1.4164
 9963TIP3   OH251303   5.685   3.351  13.891  0.4317  0.3035 -0.2644
 9963TIP3    H151304   5.591   3.367  13.882  0.3055 -0.3167 -0.0931
 9963TIP3    H251305   5.726   3.432  13.863 -0.1750  0.8046  0.2778
 9964TIP3   OH251306   4.429   0.893   5.350 -0.0875 -0.2729  0.0901
 9964TIP3    H151307   4.494   0.834   5.311  1.0118  1.9434 -1.6995
 9964TIP3    H251308   4.470   0.925   5.430 -1.5916 -3.4121  2.3518
 9965TIP3   OH251309   0.608   1.566  14.189 -0.1842  0.2781 -0.2945
 9965TIP3    H151310   0.565   1.614  14.118  0.1665  0.8438 -0.1350
 9965TIP3    H251311   0.631   1.634  14.253 -0.1355 -0.1760  0.1722
 9966TIP3   OH251312   3.032   6.576  17.020 -0.0936 -0.4035  0.0301
 9966TIP3    H151313   3.024   6.524  16.940 -0.3212 -2.6366  1.4122
 9966TIP3    H251314   3.125   6.601  17.023 -0.1494  0.0037 -1.0687
 9967TIP3   OH251315   2.484   2.176   5.199  0.0681 -0.0182  0.0042
 9967TIP3    H151316   2.577   2.179   5.222  0.0361 -0.0160  0.1387
 9967TIP3    H251317   2.475   2.098   5.146  0.0748 -0.2463  0.3330
 9968TIP3   OH251318   0.751   1.815   2.328  0.3863 -0.5864  0.3193
 9968TIP3    H151319   0.693   1.792   2.256 -0.3636 -0.4474  0.8693
 9968TIP3    H251320   0.730   1.907   2.347  1.4022 -0.2653 -0.0466
 9969TIP3   OH251321   3.540   4.423   6.698 -0.3888 -0.4344  0.2837
 9969TIP3    H151322   3.547   4.334   6.731  1.2604 -0.6869 -0.6352
 9969TIP3    H251323   3.453   4.427   6.657 -0.4289 -1.6589  0.2197
 9970TIP3   OH251324   3.749   0.277   3.029  0.4461  0.3230  0.2295
 9970TIP3    H151325   3.702   0.198   3.057 -0.3763  1.0754  1.0024
 9970TIP3    H251326   3.702   0.349   3.070  1.4755  1.1947 -0.0889
 9971TIP3   OH251327   0.399   0.417   1.620  0.5354  0.1844  0.8874
 9971TIP3    H151328   0.414   0.390   1.710 -0.1774 -0.1251  0.9216
 9971TIP3    H251329   0.305   0.411   1.608  0.3181  2.7187  0.8816
 9972TIP3   OH251330   0.003   4.671   4.948 -0.1243  0.1202 -0.6680
 9972TIP3    H151331   0.015   4.719   4.867  1.2860 -0.2009 -0.6744
 9972TIP3    H251332  -0.015   4.581   4.921 -1.8792  0.4138 -0.6355
 9973TIP3   OH251333   6.246   2.295  14.688 -0.4601 -0.1495  0.0968
 9973TIP3    H151334   6.190   2.299  14.765 -0.4657 -1.0127  0.1530
 9973TIP3    H251335   6.275   2.385  14.673 -0.6866  0.0635  0.9347
 9974TIP3   OH251336   0.969   3.970  11.285  0.1051  0.1333 -0.1089
 9974TIP3    H151337   0.917   4.017  11.351  0.2374  0.0215  0.0756
 9974TIP3    H251338   0.914   3.895  11.261 -0.8115  1.2153 -1.5668
 9975TIP3   OH251339   3.883   0.705  17.324  0.1510  0.1600 -0.1063
 9975TIP3    H151340   3.916   0.714  17.234 -0.3621 -0.0236 -0.3190
 9975TIP3    H251341   3.794   0.742  17.321 -1.0188 -2.4184 -0.3964
 9976TIP3   OH251342   1.646   3.572  14.617 -0.4183  0.4714 -0.3076
 9976TIP3    H151343   1.608   3.551  14.531  1.3956 -3.6981 -0.3242
 9976TIP3    H251344   1.732   3.609  14.596 -0.5517  0.8119 -0.2619
 9977TIP3   OH251345   5.457   5.911  16.196  0.4809  0.3003  0.5952
 9977TIP3    H151346   5.364   5.933  16.204  0.1700 -0.5009 -0.5089
 9977TIP3    H251347   5.457   5.822  16.159  1.6855 -0.7208  2.8739
 9978TIP3   OH251348   6.598   5.347   0.383  0.0055  0.4129  0.0506
 9978TIP3    H151349   6.544   5.356   0.462  1.3090 -1.4793  1.2230
 9978TIP3    H251350   6.684   5.382   0.409  1.0027 -1.9575  0.1591
 9979TIP3   OH251351   4.686   4.458   2.194 -0.1632 -0.3864 -0.2996
 9979TIP3    H151352   4.680   4.391   2.125 -0.3158 -0.3071 -0.3636
 9979TIP3    H251353   4.761   4.431   2.247 -1.4616 -1.7678  0.9181
 9980TIP3   OH251354   6.204   5.632   3.902  0.3030  0.1022  0.2520
 9980TIP3    H151355   6.138   5.571   3.935  0.5482  0.1465  0.8276
 9980TIP3    H251356   6.155   5.710   3.877 -0.0669 -0.4649 -0.8650
 9981TIP3   OH251357   2.797   5.003   5.705  0.7999 -0.1133 -0.1655
 9981TIP3    H151358   2.797   5.011   5.800 -0.6266 -0.3400 -0.1296
 9981TIP3    H251359   2.802   5.094   5.673 -2.7142  0.3564  0.1912
 9982TIP3   OH251360   6.021   0.050  12.890  0.3649 -0.0761  0.0319
 9982TIP3    H151361   6.003   0.081  12.802  2.0503 -2.0462 -1.0920
 9982TIP3    H251362   6.065  -0.035  12.878 -3.3548 -2.7247  2.8242
 9983TIP3   OH251363   4.046   1.103  17.084  0.3882  0.2087 -0.3456
 9983TIP3    H151364   4.103   1.057  17.146 -1.7308  0.2130  1.7478
 9983TIP3    H251365   4.058   1.055  17.002 -0.4346 -3.1476  1.2973
 9984TIP3   OH251366   3.073   1.899  12.982  0.3053  0.3832  0.1642
 9984TIP3    H151367   3.044   1.838  13.049  0.0984  0.8276  0.4852
 9984TIP3    H251368   3.164   1.874  12.965  0.7768  1.0379  1.5207
 9985TIP3   OH251369   2.922   3.017   1.576 -0.1796 -0.0866  0.0835
 9985TIP3    H151370   2.864   3.063   1.515 -0.7147 -0.3826  0.3610
 9985TIP3    H251371   2.885   3.035   1.662  1.5148  1.7222  0.5066
 9986TIP3   OH251372   2.417   6.581  11.680 -0.4701  0.9768 -0.0139
 9986TIP3    H151373   2.326   6.601  11.704 -0.8820  0.4222 -1.0761
 9986TIP3    H251374   2.413   6.560  11.587  0.9293  2.0145 -0.3392
 9987TIP3   OH251375   0.044   4.430   1.143  0.6809 -0.0334  0.1483
 9987TIP3    H151376   0.112   4.492   1.117  1.8996 -1.1330  0.5694
 9987TIP3    H251377  -0.027   4.446   1.081  1.6832  0.5436 -0.9085
 9988TIP3   OH251378   2.733   3.957  12.099 -0.3507  0.0877 -0.6807
 9988TIP3    H151379   2.742   3.929  12.190 -0.3185 -0.3323 -0.8101
 9988TIP3    H251380   2.687   4.041  12.104  0.8391  0.7404 -0.1922
 9989TIP3   OH251381   0.196   2.356   5.649  0.6097  0.3895 -0.1618
 9989TIP3    H151382   0.253   2.282   5.670  2.5215  2.1578  1.3185
 9989TIP3    H251383   0.253   2.416   5.601 -0.0206  2.1532  1.1975
 9990TIP3   OH251384   3.466   1.871   3.473 -0.3403  0.4987 -0.2233
 9990TIP3    H151385   3.481   1.905   3.385 -1.1107  0.1451 -0.4967
 9990TIP3    H251386   3.372   1.856   3.477 -0.0376 -1.7459 -0.1757
 9991TIP3   OH251387   1.221   3.803  10.150  0.1828 -0.3988 -0.5530
 9991TIP3    H151388   1.309   3.780  10.178  0.0428 -0.3005 -0.0276
 9991TIP3    H251389   1.191   3.726  10.101  0.5313 -0.4566 -0.6775
 9992TIP3   OH251390   0.315   3.586   3.375 -0.1003 -0.2072  0.4883
 9992TIP3    H151391   0.239   3.603   3.431  0.2196 -0.3168  0.9630
 9992TIP3    H251392   0.355   3.671   3.362  0.0938 -0.2433  0.8247
 9993TIP3   OH251393   5.602   4.612  11.842  0.0261  0.0668 -0.4353
 9993TIP3    H151394   5.696   4.628  11.837  0.3418 -1.3868  0.2545
 9993TIP3    H251395   5.594   4.531  11.893 -1.5964  0.1327 -0.5275
 9994TIP3   OH251396   6.190   1.082   1.753  0.1481  0.3156  0.3426
 9994TIP3    H151397   6.231   1.072   1.838 -1.7752  1.6872  1.5207
 9994TIP3    H251398   6.246   1.144   1.706  1.9060 -1.4006  0.0500
 9995TIP3   OH251399   0.888   2.738   4.402  0.4510 -0.0675 -0.1601
 9995TIP3    H151400   0.983   2.730   4.395  0.7428  1.0022  1.8087
 9995TIP3    H251401   0.855   2.651   4.380  2.1663 -1.5885  2.5866
 9996TIP3   OH251402   6.244   1.143   0.123  0.1760  0.1239  0.6000
 9996TIP3    H151403   6.255   1.219   0.179  1.2285  0.8221 -0.5203
 9996TIP3    H251404   6.210   1.178   0.041 -3.2707 -1.0918  1.3157
 9997TIP3   OH251405   5.487   6.623   0.460 -0.5937  0.1346 -0.2058
 9997TIP3    H151406   5.571   6.593   0.424 -0.1722  0.6433  0.3273
 9997TIP3    H251407   5.427   6.551   0.444  0.0662 -0.4359 -0.1765
 9998TIP3   OH251408   4.358   1.697  15.655  0.0378  0.5388  0.1976
 9998TIP3    H151409   4.363   1.607  15.686  0.1832  1.2133  2.2954
 9998TIP3    H251410   4.338   1.690  15.561  0.3424 -1.6478  0.2628
 9999TIP3   OH251411   5.754   2.536   0.730  0.0465 -0.3619  0.2207
 9999TIP3    H151412   5.842   2.524   0.766  0.1611  0.2484  0.1613
 9999TIP3    H251413   5.759   2.619   0.683 -0.1253 -1.0896 -1.1279
10000TIP3   OH251414   0.036   5.956   0.922  0.3231  0.6329 -0.1638
10000TIP3    H151415   0.049   5.873   0.876 -1.6583  1.3740 -2.2355
10000TIP3    H251416  -0.034   5.938   0.985  1.8537  0.0703  1.4675
10001TIP3   OH251417   3.881   0.903   6.156 -0.4310 -0.2211 -0.0072
10001TIP3    H151418   3.961   0.930   6.202 -0.9257  0.7439  0.3116
10001TIP3    H251419   3.810   0.938   6.209 -1.0299  1.1662 -1.6174
10002TIP3   OH251420   6.516   2.215  13.275 -0.7979  0.3982  0.3952
10002TIP3    H151421   6.546   2.302  13.246  0.4912 -0.7106 -1.8934
10002TIP3    H251422   6.573   2.193  13.348 -0.9491  1.3337  0.8147
10003TIP3   OH251423   0.105   6.573  11.347  0.6959 -0.3846 -0.0327
10003TIP3    H151424   0.111   6.637  11.276 -1.8878  0.0602  0.0506
10003TIP3    H251425   0.044   6.507  11.314 -0.0895 -0.4726  1.5279
10004TIP3   OH251426   0.977   4.450   1.782 -0.0101 -0.4055 -0.4415
10004TIP3    H151427   0.998   4.385   1.849 -0.4467  0.6666  0.7876
10004TIP3    H251428   1.006   4.411   1.700 -0.2043 -2.1079  0.2689
10005TIP3   OH251429   2.450   4.414  13.115 -0.0075 -0.1539  0.3431
10005TIP3    H151430   2.468   4.387  13.025  0.6279  1.2520  0.0264
10005TIP3    H251431   2.536   4.436  13.151 -0.1188 -1.6154  1.6415
10006TIP3   OH251432   4.221   5.701  13.190 -0.4146  0.1625 -0.0399
10006TIP3    H151433   4.169   5.741  13.120  0.6961  0.9240 -0.4640
10006TIP3    H251434   4.268   5.629  13.147  2.3285  2.2456 -0.8241
10007TIP3   OH251435   5.172   1.684  15.180 -0.2280 -0.8572  0.1020
10007TIP3    H151436   5.083   1.685  15.217 -0.3482 -0.9117 -0.1787
10007TIP3    H251437   5.217   1.615  15.229 -0.3143 -0.7749  0.3022
10008TIP3   OH251438   0.378   1.377   3.820 -0.1097  0.6487  0.3123
10008TIP3    H151439   0.456   1.327   3.795  0.1797  1.3944 -0.3352
10008TIP3    H251440   0.375   1.449   3.757 -1.4852  0.4754  0.1505
10009TIP3   OH251441   4.125   5.229   1.764  0.1160  0.0442  0.6095
10009TIP3    H151442   4.044   5.265   1.798 -0.3429 -1.3471  1.0740
10009TIP3    H251443   4.189   5.299   1.773 -1.0691  1.2356  0.0329
10010TIP3   OH251444   5.016   4.957   4.489  0.0833  0.7412  0.5741
10010TIP3    H151445   5.060   5.022   4.544  2.0761  1.7183 -1.9771
10010TIP3    H251446   5.035   4.873   4.532  3.3101  1.2599  0.3905
10011TIP3   OH251447   4.377   4.648  12.467 -0.1476 -0.8475  0.3378
10011TIP3    H151448   4.373   4.662  12.373  0.1198  0.3882  0.4894
10011TIP3    H251449   4.362   4.554  12.479  0.0685 -1.0520 -0.9409
10012TIP3   OH251450   4.314   2.544   6.014  0.0387  0.6930 -0.4707
10012TIP3    H151451   4.404   2.575   6.023 -0.0361  1.3142 -1.6586
10012TIP3    H251452   4.297   2.546   5.920 -0.9055 -0.3496 -0.3473
10013TIP3   OH251453   1.203   0.239   3.251 -0.5063  0.3679 -0.5754
10013TIP3    H151454   1.145   0.257   3.325 -0.5896 -1.2319 -0.2116
10013TIP3    H251455   1.245   0.322   3.233 -1.7262  1.1897  0.1898
10014TIP3   OH251456   3.910   0.347   4.257  0.4240  0.6157 -0.5743
10014TIP3    H151457   3.946   0.376   4.173  0.2050  0.9082 -0.5699
10014TIP3    H251458   3.900   0.252   4.247  3.6939  0.0485  0.3738
10015TIP3   OH251459   6.642   3.999  15.807 -0.2543  0.1514 -0.4826
10015TIP3    H151460   6.640   3.904  15.803 -0.5181  0.1065  0.4880
10015TIP3    H251461   6.596   4.021  15.888  0.4095  1.0730 -0.3360
10016TIP3   OH251462   2.060   3.435   5.519 -0.1593 -0.1549 -0.2121
10016TIP3    H151463   2.141   3.384   5.514 -0.0497 -0.0800  0.6110
10016TIP3    H251464   2.070   3.487   5.599 -0.5069  0.7459 -0.7455
10017TIP3   OH251465   3.117   2.350  15.192  0.3624 -0.3017 -0.3391
10017TIP3    H151466   3.118   2.441  15.220  0.1640 -0.3444 -0.1915
10017TIP3    H251467   3.202   2.336  15.151  0.3738 -0.0372 -0.4040
10018TIP3   OH251468   1.730   6.489   4.917  0.0979 -0.4557 -0.0154
10018TIP3    H151469   1.681   6.479   4.999 -1.1833  0.4490 -0.6355
10018TIP3    H251470   1.770   6.575   4.923  0.0668 -0.4206 -0.3145
10019TIP3   OH251471   5.012   3.298  14.608 -0.9359  0.2977 -0.3167
10019TIP3    H151472   4.989   3.214  14.569  0.7469  0.7599 -2.4710
10019TIP3    H251473   5.053   3.275  14.692  0.8886 -1.1799 -1.5290
10020TIP3   OH251474   5.713   5.200  14.866 -0.2807 -0.7827 -0.1965
10020TIP3    H151475   5.796   5.158  14.844  0.8225  1.1165  0.1775
10020TIP3    H251476   5.690   5.164  14.952 -0.3648 -2.0283 -0.7208
10021TIP3   OH251477   3.653   5.371   0.620  0.5410 -0.1722  0.2528
10021TIP3    H151478   3.686   5.300   0.565  0.4851  0.5706 -0.7751
10021TIP3    H251479   3.571   5.337   0.657  0.3862 -0.5536 -0.4267
10022TIP3   OH251480   3.078   4.049   0.144  0.1897  0.1331  0.0916
10022TIP3    H151481   3.007   4.040   0.081  0.4962  2.2417 -0.6461
10022TIP3    H251482   3.034   4.056   0.229 -0.3647 -0.4346 -0.1456
10023TIP3   OH251483   0.939   0.587  15.205  0.4910 -0.8688 -0.3996
10023TIP3    H151484   0.961   0.530  15.131  1.0572  0.5776 -1.4007
10023TIP3    H251485   1.019   0.587  15.259  1.5321  1.0171 -1.8078
10024TIP3   OH251486   4.734   3.030  11.418 -0.5200  0.1536 -0.1923
10024TIP3    H151487   4.718   3.122  11.395 -2.0161 -0.2616 -0.9234
10024TIP3    H251488   4.653   3.002  11.461  0.7457 -0.2253  2.0701
10025TIP3   OH251489   5.794   4.435   1.873 -0.3780 -0.2747  0.1730
10025TIP3    H151490   5.731   4.443   1.944  0.0189 -1.9746  0.7707
10025TIP3    H251491   5.791   4.520   1.828 -2.2736  0.0511  0.8282
10026TIP3   OH251492   1.211   0.544  14.892  0.0817  0.2712 -0.2794
10026TIP3    H151493   1.141   0.504  14.945  0.2674  1.7935  1.1907
10026TIP3    H251494   1.212   0.636  14.919  1.2271  0.7596 -1.8636
10027TIP3   OH251495   4.262   2.366   5.309 -0.0876 -0.1295  0.4584
10027TIP3    H151496   4.204   2.290   5.318  0.2589 -0.4541 -0.0642
10027TIP3    H251497   4.350   2.331   5.318  0.0548  0.2906  0.7368
10028TIP3   OH251498   3.880   5.329  11.667 -0.0292 -0.0278 -0.0322
10028TIP3    H151499   3.819   5.267  11.627  1.1886 -0.6703 -0.9431
10028TIP3    H251500   3.824   5.397  11.703 -1.4110 -1.6454  1.0277
10029TIP3   OH251501   3.504   5.426  16.474 -0.1178  0.2692  0.4654
10029TIP3    H151502   3.426   5.400  16.425  0.2560 -0.3026  0.1579
10029TIP3    H251503   3.574   5.426  16.409 -0.2266  2.9653  0.2388
10030TIP3   OH251504   6.686   1.155  16.107 -0.6710  0.1155 -0.3697
10030TIP3    H151505   6.703   1.069  16.147 -3.0839 -1.0578 -1.6478
10030TIP3    H251506   6.629   1.199  16.170 -2.4391 -0.7450 -1.3044
10031TIP3   OH251507   6.214   5.565  15.948 -0.0178 -0.1443 -0.1058
10031TIP3    H151508   6.210   5.504  15.875 -0.2010  0.1783 -0.3688
10031TIP3    H251509   6.136   5.544  16.001  0.7191 -1.1435  0.6226
10032TIP3   OH251510   6.529   4.901  10.621  0.1588 -0.4791  0.4415
10032TIP3    H151511   6.564   4.813  10.631 -0.4682 -0.8127 -0.2110
10032TIP3    H251512   6.452   4.891  10.565 -0.3468  0.3838  0.9491
10033TIP3   OH251513   1.243   1.320   2.855 -0.4429 -0.0445 -0.2605
10033TIP3    H151514   1.261   1.322   2.761 -1.2149  0.3381 -0.4079
10033TIP3    H251515   1.153   1.291   2.862  0.0364 -1.4513  0.4436
10034TIP3   OH251516   0.425   0.054  15.830  0.3018  0.4105 -0.3573
10034TIP3    H151517   0.481   0.076  15.904 -1.2524 -1.3196  1.4371
10034TIP3    H251518   0.338   0.086  15.855 -0.1134  0.5420 -1.8372
10035TIP3   OH251519   0.707   1.116   4.125  0.2028  0.2238  0.0545
10035TIP3    H151520   0.672   1.031   4.095 -2.4569  0.9240  0.8633
10035TIP3    H251521   0.680   1.178   4.056  0.7164  0.6585  0.2440
10036TIP3   OH251522   2.014   1.342  13.482  0.1811 -0.7732 -0.2026
10036TIP3    H151523   2.032   1.308  13.395 -1.4073 -0.1701 -0.8049
10036TIP3    H251524   1.965   1.423  13.467  1.8596  0.6025  1.2201
10037TIP3   OH251525   4.875   3.009   1.846 -0.2437 -0.0691 -0.3512
10037TIP3    H151526   4.925   2.933   1.819  0.7855  0.3930  0.2059
10037TIP3    H251527   4.895   3.076   1.781 -2.9262 -0.8892 -2.1802
10038TIP3   OH251528   0.001   1.270   0.859 -0.2777 -0.3315  0.4522
10038TIP3    H151529   0.009   1.179   0.887  0.5781 -0.3960  0.0352
10038TIP3    H251530  -0.057   1.267   0.783  0.3363 -0.6356 -0.0139
10039TIP3   OH251531   2.820   4.156   4.832 -0.1865 -0.2595  0.6741
10039TIP3    H151532   2.839   4.066   4.861 -0.1392 -0.3957  0.2275
10039TIP3    H251533   2.813   4.206   4.913 -0.0311 -0.6315  0.9212
10040TIP3   OH251534   0.718   5.713   4.250  0.2219  0.3889 -0.2487
10040TIP3    H151535   0.623   5.724   4.247 -0.1655 -2.3811  0.0295
10040TIP3    H251536   0.745   5.771   4.322 -1.3091  0.7755  0.0611
10041TIP3   OH251537   3.851   6.144   0.183 -0.0181 -0.5044  0.4111
10041TIP3    H151538   3.811   6.074   0.132 -3.4572  1.1847  0.5492
10041TIP3    H251539   3.859   6.107   0.271  0.4240 -1.4726 -0.0216
10042TIP3   OH251540   3.177   1.354  10.459  0.1520  0.5065  0.4242
10042TIP3    H151541   3.136   1.394  10.536 -0.7973  0.4577 -0.0370
10042TIP3    H251542   3.233   1.423  10.423  0.6591  0.5078  1.1799
10043TIP3   OH251543   6.209   6.074  15.562 -0.8725  0.0144  0.4505
10043TIP3    H151544   6.150   6.050  15.633 -1.1269  0.0940  0.2657
10043TIP3    H251545   6.223   5.992  15.514 -1.0618  0.0577  0.3230
10044TIP3   OH251546   1.636   1.068  12.973  0.3258 -0.1979  0.3845
10044TIP3    H151547   1.568   1.004  12.993  1.9830 -2.2500 -0.1269
10044TIP3    H251548   1.600   1.152  13.002 -2.2320 -1.2345  0.4411
10045TIP3   OH251549   2.222   3.226  16.205 -0.3525 -0.0346  0.1824
10045TIP3    H151550   2.298   3.214  16.263 -0.8440 -1.7569  0.5526
10045TIP3    H251551   2.256   3.277  16.132  0.8512  0.2865  0.9211
10046TIP3   OH251552   4.614   3.215   5.774  0.0535 -0.7525 -0.1408
10046TIP3    H151553   4.690   3.158   5.785  0.3250 -0.2076  0.8933
10046TIP3    H251554   4.652   3.300   5.748 -0.3834 -1.1841 -2.4442
10047TIP3   OH251555   3.314   6.540  16.345  0.5075 -0.3770 -0.2730
10047TIP3    H151556   3.255   6.526  16.419  0.1373  0.0360 -0.4908
10047TIP3    H251557   3.271   6.496  16.271  0.3810  0.0842 -0.4731
10048TIP3   OH251558   0.902   3.371   4.262 -0.1651  0.1673 -0.5475
10048TIP3    H151559   0.930   3.433   4.330  1.5389  2.2866 -2.9900
10048TIP3    H251560   0.964   3.298   4.268 -0.9608 -0.4257  1.0610
10049TIP3   OH251561   3.216   3.764   3.541  0.5020 -0.6318 -0.1454
10049TIP3    H151562   3.161   3.728   3.611  0.7066 -0.2085  0.2335
10049TIP3    H251563   3.159   3.827   3.497  0.3874 -0.8663 -0.3345
10050TIP3   OH251564   6.332   2.089  16.162 -0.1573  0.5067 -0.3506
10050TIP3    H151565   6.359   2.043  16.241  0.2306 -1.6891 -1.6725
10050TIP3    H251566   6.236   2.087  16.166 -0.1605 -0.8537 -0.5751
10051TIP3   OH251567   2.979   2.904  16.719  0.6795 -0.3735  0.0478
10051TIP3    H151568   3.006   2.984  16.675 -1.3114  0.5101  0.3272
10051TIP3    H251569   3.018   2.910  16.806  0.7704  0.1467 -0.0251
10052TIP3   OH251570   4.456   0.057   2.683 -0.3196 -0.4953  0.2621
10052TIP3    H151571   4.425  -0.023   2.640  0.2118 -0.4427 -0.2295
10052TIP3    H251572   4.549   0.041   2.698 -0.2785 -0.0896  0.4505
10053TIP3   OH251573   4.464   3.613  14.081 -0.1424  0.0346 -0.7196
10053TIP3    H151574   4.444   3.642  14.170 -1.2086 -1.2511 -0.5089
10053TIP3    H251575   4.453   3.691  14.028  0.1020  0.7275  0.2113
10054TIP3   OH251576   3.397   1.010   3.544 -0.3147 -0.1173 -0.1719
10054TIP3    H151577   3.342   1.080   3.579 -0.5350  0.1495 -1.0260
10054TIP3    H251578   3.381   1.012   3.449 -1.3752 -2.1848 -0.1009
10055TIP3   OH251579   3.018   2.532   2.138 -0.0875 -0.1605  0.1378
10055TIP3    H151580   3.086   2.600   2.133 -0.3994  0.2033  0.7078
10055TIP3    H251581   2.936   2.580   2.135 -0.3479 -0.2528  2.8501
10056TIP3   OH251582   5.149   5.013   5.911 -0.0539 -0.0201  0.3653
10056TIP3    H151583   5.108   5.093   5.879  2.2262  0.2625 -2.2191
10056TIP3    H251584   5.208   5.042   5.980  0.5696  0.5215 -0.3834
10057TIP3   OH251585   6.313   1.770   2.054  0.7901 -0.6618  0.0457
10057TIP3    H151586   6.247   1.701   2.064 -1.2183  1.4583  4.1699
10057TIP3    H251587   6.282   1.821   1.980 -1.4911 -0.5893  0.9614
10058TIP3   OH251588   0.627   5.705   1.106 -0.0954  0.3541 -0.0093
10058TIP3    H151589   0.701   5.663   1.061 -0.2479 -0.5664  0.5663
10058TIP3    H251590   0.616   5.788   1.061  0.9407  0.2633 -0.4682
10059TIP3   OH251591   2.738   2.644  16.214 -0.7538 -0.3020  0.5612
10059TIP3    H151592   2.727   2.680  16.126 -0.1842 -0.2733  0.4947
10059TIP3    H251593   2.650   2.643  16.252 -1.0309 -0.5021 -0.0817
10060TIP3   OH251594   2.520   3.170   0.620 -0.1008  0.7913  0.2453
10060TIP3    H151595   2.580   3.217   0.677  0.5324  0.3753 -0.0618
10060TIP3    H251596   2.548   3.192   0.531 -0.5591  0.7873  0.0967
10061TIP3   OH251597   4.530   3.318   4.303  0.1509  0.1802  0.0841
10061TIP3    H151598   4.493   3.285   4.222  4.1546  0.8915 -2.3269
10061TIP3    H251599   4.490   3.405   4.314 -1.3541 -0.4272 -0.3717
10062TIP3   OH251600   4.745   2.294   0.101 -0.3226 -0.5254  0.2111
10062TIP3    H151601   4.671   2.279   0.041  0.2500 -2.0877 -0.1476
10062TIP3    H251602   4.737   2.225   0.166  1.5747 -1.5473 -0.5909
10063TIP3   OH251603   3.431   5.345  17.088  0.5920 -0.0892  0.4596
10063TIP3    H151604   3.488   5.282  17.045  0.4961 -0.1900  0.4818
10063TIP3    H251605   3.464   5.350  17.178  1.4749  0.9189  0.1105
10064TIP3   OH251606   5.412   4.711  17.235 -0.4166  0.2124 -0.2516
10064TIP3    H151607   5.366   4.665  17.165 -0.8342  0.8666 -0.4214
10064TIP3    H251608   5.451   4.787  17.192  1.8578 -0.9230 -0.3551
10065TIP3   OH251609   4.093   2.587   5.185 -0.3590  0.6904 -0.9032
10065TIP3    H151610   4.053   2.645   5.251  1.4593 -0.5341  1.4494
10065TIP3    H251611   4.026   2.522   5.167 -1.1026  1.3790 -0.7040
10066TIP3   OH251612   6.276   1.665   4.365 -0.0689 -0.4646 -0.3464
10066TIP3    H151613   6.304   1.674   4.274 -2.3082 -1.7772 -1.2671
10066TIP3    H251614   6.180   1.670   4.361 -0.3649 -2.5391  1.6174
10067TIP3   OH251615   2.117   3.068  13.070  0.9175 -0.1305  0.0578
10067TIP3    H151616   2.045   3.010  13.096  1.3992 -0.3442  0.9296
10067TIP3    H251617   2.140   3.040  12.982  1.6163 -1.7393  0.7261
10068TIP3   OH251618   1.653   1.773  13.957 -0.1288 -0.1844  0.0633
10068TIP3    H151619   1.637   1.698  14.014  0.3621 -0.5806 -0.3218
10068TIP3    H251620   1.587   1.765  13.888 -0.6168  0.2061  0.4656
10069TIP3   OH251621   0.911   3.637   4.352 -0.2426  1.0295  0.3255
10069TIP3    H151622   1.002   3.615   4.371 -0.3742  0.0920 -0.0979
10069TIP3    H251623   0.873   3.659   4.437  0.1588  0.6003  0.6189
10070TIP3   OH251624   1.458   4.643   2.405  0.1397  0.6856 -0.5590
10070TIP3    H151625   1.448   4.725   2.452 -0.0401  0.8442 -0.8693
10070TIP3    H251626   1.412   4.578   2.458  0.9677  0.6264  0.1000
10071TIP3   OH251627   1.106   2.441   3.532  0.0548  0.5287 -0.0793
10071TIP3    H151628   1.021   2.422   3.491  0.2896  1.5527 -1.0895
10071TIP3    H251629   1.143   2.511   3.479  1.0541  0.8632  1.0182
10072TIP3   OH251630   2.669   2.685  12.917  0.0484  0.3720  0.4408
10072TIP3    H151631   2.653   2.774  12.947 -3.1213  0.3105 -0.7222
10072TIP3    H251632   2.654   2.688  12.823 -0.6674 -1.4912  0.4550
10073TIP3   OH251633   1.270   0.204  10.775  0.1303  0.4985 -0.1931
10073TIP3    H151634   1.357   0.230  10.805  0.7308  1.7132 -2.7687
10073TIP3    H251635   1.257   0.253  10.694 -1.6231 -2.1296 -1.6097
10074TIP3   OH251636   3.045   2.616   0.380  0.5539 -0.5754 -0.0452
10074TIP3    H151637   3.131   2.629   0.420  1.7539 -3.1278 -1.4975
10074TIP3    H251638   2.999   2.558   0.441 -0.0580  0.4759  0.5372
10075TIP3   OH251639   1.962   6.431  12.622 -0.0993 -0.4716  0.3236
10075TIP3    H151640   2.018   6.463  12.693  0.0477  0.6803 -0.2914
10075TIP3    H251641   2.010   6.453  12.542 -1.0350 -0.2281 -0.1861
10076TIP3   OH251642   5.710   6.240  12.775 -0.3246  0.0658 -0.3662
10076TIP3    H151643   5.680   6.154  12.805  1.7501 -0.2047  1.1296
10076TIP3    H251644   5.631   6.294  12.774 -1.4357 -1.4820 -0.0037
10077TIP3   OH251645   4.224   3.973  17.123  0.2353 -0.5542  0.0380
10077TIP3    H151646   4.163   3.901  17.140 -0.8402  0.4081  0.3508
10077TIP3    H251647   4.229   3.977  17.027  0.7222 -1.3763  0.0209
10078TIP3   OH251648   6.703   1.224  17.281  0.2860  0.2323  0.1917
10078TIP3    H151649   6.715   1.229  17.187  0.1071  2.0155  0.2388
10078TIP3    H251650   6.636   1.156  17.294 -0.8264  1.0494 -1.0725
10079TIP3   OH251651   2.420   5.231   0.964 -0.3988 -0.7974  0.5355
10079TIP3    H151652   2.482   5.292   0.922 -2.1826 -0.0405 -1.1680
10079TIP3    H251653   2.476   5.167   1.008  1.5654  0.8559  0.6053
10080TIP3   OH251654   5.806   0.965   1.461  0.0444 -0.2010 -0.6809
10080TIP3    H151655   5.889   0.947   1.504 -0.7175  0.1239  1.0147
10080TIP3    H251656   5.799   1.060   1.460 -0.0652 -0.2105 -1.3134
10081TIP3   OH251657   3.176   1.963   2.667 -0.5186  0.6494  0.4989
10081TIP3    H151658   3.105   1.920   2.714  0.9828 -0.4835  1.8476
10081TIP3    H251659   3.157   2.056   2.674 -2.8755  0.3666 -0.9034
10082TIP3   OH251660   5.281   0.337   5.204  0.1642  0.0712 -0.5691
10082TIP3    H151661   5.349   0.299   5.259 -0.3368  0.6638  0.4934
10082TIP3    H251662   5.327   0.402   5.150  0.5333  0.0611 -0.2673
10083TIP3   OH251663   4.275   4.669  17.537  0.1842 -0.4154  0.1063
10083TIP3    H151664   4.219   4.744  17.518  0.6047  0.3313  1.6507
10083TIP3    H251665   4.267   4.613  17.460 -3.2117 -0.6816  0.4977
10084TIP3   OH251666   2.477   4.455   5.436  0.1492 -0.6531 -0.7476
10084TIP3    H151667   2.514   4.436   5.522 -0.3230 -0.7802 -0.5678
10084TIP3    H251668   2.516   4.539   5.411 -2.3590  1.2650  1.1779
10085TIP3   OH251669   3.474   1.801  15.131  0.1198 -0.6563  0.3109
10085TIP3    H151670   3.400   1.740  15.132  0.9917 -1.8590 -1.7789
10085TIP3    H251671   3.464   1.850  15.049 -0.5872  2.1564  1.9572
10086TIP3   OH251672   0.408   5.412   1.830 -0.7015 -0.5651 -0.2860
10086TIP3    H151673   0.440   5.324   1.808 -1.5127 -1.0100  0.2742
10086TIP3    H251674   0.411   5.460   1.747  1.9742 -0.3879 -0.1614
10087TIP3   OH251675   1.125   1.911   1.382 -0.5685 -0.1664 -0.7483
10087TIP3    H151676   1.184   1.839   1.407  1.0726  1.4687  0.3702
10087TIP3    H251677   1.086   1.939   1.464  0.9563  1.9580 -0.6625
10088TIP3   OH251678   2.138   5.333  16.203  0.4473  0.6957  0.5872
10088TIP3    H151679   2.094   5.324  16.118 -1.9109  0.7299  1.7115
10088TIP3    H251680   2.144   5.244  16.237  2.0806  0.5910  0.1080
10089TIP3   OH251681   4.850   2.162  15.969 -0.1926  0.6269  0.0580
10089TIP3    H151682   4.807   2.247  15.977 -1.7770 -0.1401  0.0380
10089TIP3    H251683   4.795   2.112  15.908  1.5296  0.0726 -1.1357
10090TIP3   OH251684   6.115   2.243  16.938  0.4861 -0.1420 -0.6613
10090TIP3    H151685   6.029   2.283  16.948  0.2431 -0.9247  0.5065
10090TIP3    H251686   6.120   2.220  16.845 -0.1420  0.8130 -0.9545
10091TIP3   OH251687   6.117   6.425  13.790 -0.2340  0.4386 -0.0377
10091TIP3    H151688   6.039   6.480  13.792 -2.0889 -2.0387  1.5874
10091TIP3    H251689   6.110   6.377  13.707 -0.5208  0.1160  0.1729
10092TIP3   OH251690   0.314   2.259   0.340  0.6442 -0.2318 -0.3701
10092TIP3    H151691   0.341   2.345   0.373  0.7092 -1.7518  4.2734
10092TIP3    H251692   0.393   2.222   0.302  2.4391 -0.4365  3.1895
10093TIP3   OH251693   6.184   3.696  17.044  0.6983  0.3817 -0.2620
10093TIP3    H151694   6.196   3.697  16.949 -0.5769 -0.4077 -0.4571
10093TIP3    H251695   6.272   3.710  17.079  1.4809 -0.9741 -1.5582
10094TIP3   OH251696   0.775   4.335   2.679  0.1767  0.1569 -0.3044
10094TIP3    H151697   0.719   4.395   2.628 -0.6078  0.0007  0.3448
10094TIP3    H251698   0.752   4.248   2.647 -0.6102  0.0275  0.5645
10095TIP3   OH251699   5.471   3.622  16.333 -0.3512  0.0870 -0.2712
10095TIP3    H151700   5.491   3.711  16.363  0.4550  0.0581 -0.7014
10095TIP3    H251701   5.409   3.634  16.261  0.5656  0.3702 -1.0262
10096TIP3   OH251702   6.253   3.788  16.593  0.0862  0.0239  0.0279
10096TIP3    H151703   6.341   3.751  16.592  0.3150  0.4700 -2.3086
10096TIP3    H251704   6.195   3.713  16.605  0.7440 -0.1671  2.5918
10097TIP3   OH251705   6.482   0.360   5.840  0.2517  0.8057 -0.4168
10097TIP3    H151706   6.471   0.425   5.771  1.5951  0.1354 -1.3205
10097TIP3    H251707   6.575   0.366   5.863 -0.0240  0.5084  0.8316
10098TIP3   OH251708   1.778   4.755  16.106  0.3129 -0.7255  0.1460
10098TIP3    H151709   1.861   4.761  16.153  0.2836 -1.6653  0.3348
10098TIP3    H251710   1.793   4.687  16.040  0.1031  0.0184 -0.6897
10099TIP3   OH251711   0.316   3.894   3.241  0.4254 -0.3275  0.1324
10099TIP3    H151712   0.359   3.934   3.316  0.8403  2.3727 -1.4176
10099TIP3    H251713   0.229   3.870   3.273  1.0121 -0.4084  1.7591
10100TIP3   OH251714   0.475   4.140  12.386 -0.0197 -0.2464  0.1409
10100TIP3    H151715   0.507   4.087  12.313  0.0294 -0.1715  0.1083
10100TIP3    H251716   0.381   4.146  12.371  0.0211 -0.0573 -0.0287
10101TIP3   OH251717   0.728   6.149   3.941 -0.4885 -0.2744 -0.2656
10101TIP3    H151718   0.789   6.092   3.893 -1.0901 -1.3736  0.2359
10101TIP3    H251719   0.643   6.130   3.902 -1.3143 -2.5426  2.2956
10102TIP3   OH251720   6.485   2.114   3.195 -0.0717 -0.9453  0.4228
10102TIP3    H151721   6.411   2.167   3.224 -0.0129  0.3534 -1.6495
10102TIP3    H251722   6.451   2.024   3.195 -1.6223 -0.3850 -0.3872
10103TIP3   OH251723   0.352   3.592   5.625  0.2333  0.4062 -0.0742
10103TIP3    H151724   0.304   3.525   5.675  2.2196 -1.2627 -0.2700
10103TIP3    H251725   0.291   3.618   5.556 -0.6068 -1.2654 -0.0268
10104TIP3   OH251726   4.046   2.166   5.372  0.1714 -0.2344 -0.3709
10104TIP3    H151727   3.995   2.097   5.330  0.0424  1.7152 -3.6837
10104TIP3    H251728   3.987   2.241   5.376  0.6858  0.1431  2.1182
10105TIP3   OH251729   4.852   2.002   5.900  0.0113  0.2535 -0.4069
10105TIP3    H151730   4.870   2.001   5.994 -0.1175 -1.5733 -0.3658
10105TIP3    H251731   4.758   2.018   5.894  0.1749  1.3888 -0.2991
10106TIP3   OH251732   6.007   1.965  15.139 -0.3589 -0.3744  0.1649
10106TIP3    H151733   6.021   1.969  15.045  0.4082  1.1303  0.3191
10106TIP3    H251734   6.041   1.879  15.165 -0.0051 -0.5408 -0.8286
10107TIP3   OH251735   6.459   2.783  15.068  0.3694 -0.1006  0.0305
10107TIP3    H151736   6.542   2.823  15.041  0.9822 -0.5919  1.1101
10107TIP3    H251737   6.481   2.692  15.086  0.1317  0.2895  2.5884
10108TIP3   OH251738   4.563   0.241   0.664 -0.2456  0.4814  0.1034
10108TIP3    H151739   4.650   0.249   0.626  0.9968 -1.9363  2.1766
10108TIP3    H251740   4.533   0.154   0.638 -1.4702  0.7166  0.6270
10109TIP3   OH251741   4.634   2.724   3.742 -0.3085  0.4791  0.3230
10109TIP3    H151742   4.706   2.753   3.686 -0.5467 -0.7810 -0.6987
10109TIP3    H251743   4.674   2.714   3.829 -0.1867  3.5120  0.6957
10110TIP3   OH251744   6.394   6.322   5.427  0.2702  0.4168 -0.6699
10110TIP3    H151745   6.417   6.231   5.409 -0.7184  0.0457 -0.1465
10110TIP3    H251746   6.457   6.373   5.377  1.0971 -0.5504 -0.6440
10111TIP3   OH251747   5.523   2.602   2.528  0.5223 -0.2483  0.5777
10111TIP3    H151748   5.578   2.556   2.590 -0.4280 -1.5918  0.4760
10111TIP3    H251749   5.580   2.669   2.490  1.8966 -1.1928  0.8997
10112TIP3   OH251750   6.641   2.173  13.954  0.7193  1.1767 -0.0707
10112TIP3    H151751   6.664   2.085  13.927  1.4398  1.7135 -1.2809
10112TIP3    H251752   6.644   2.171  14.050  0.9468 -0.0416 -0.0966
10113TIP3   OH251753   5.202   4.434  16.833 -0.0018 -0.0563  0.1922
10113TIP3    H151754   5.138   4.479  16.779  1.3099  1.7067  0.0169
10113TIP3    H251755   5.205   4.485  16.914  2.0020  0.6305 -0.2711
10114TIP3   OH251756   1.417   5.253   1.286  0.3536 -0.7901 -0.2930
10114TIP3    H151757   1.369   5.336   1.287 -0.7113 -1.3918  1.2204
10114TIP3    H251758   1.420   5.225   1.377  1.3015 -2.0978 -0.6889
10115TIP3   OH251759   2.892   2.808   4.305 -0.0440  0.1156 -0.5903
10115TIP3    H151760   2.882   2.721   4.267 -1.8070  0.8059 -1.8929
10115TIP3    H251761   2.981   2.811   4.339  0.3026 -1.9046 -1.2368
10116TIP3   OH251762   6.525   0.107   3.870  0.1620 -0.1902  0.3833
10116TIP3    H151763   6.551   0.098   3.961  3.4213 -0.7448 -0.4784
10116TIP3    H251764   6.583   0.175   3.834  0.6500 -1.6458 -1.7963
10117TIP3   OH251765   1.448   6.401   6.025  0.3720 -0.1627 -0.8803
10117TIP3    H151766   1.496   6.469   6.072  1.3351 -0.6824 -1.1011
10117TIP3    H251767   1.409   6.347   6.093 -3.2276  2.4273 -0.5686
10118TIP3   OH251768   1.210   4.620   0.416  0.2329 -0.1919  0.0319
10118TIP3    H151769   1.208   4.685   0.345  1.2022 -2.4429 -2.2261
10118TIP3    H251770   1.240   4.669   0.493 -0.5478  2.3108 -1.1572
10119TIP3   OH251771   2.567   6.047   2.913 -0.4280 -0.2545  0.2417
10119TIP3    H151772   2.652   6.077   2.881 -0.3170  1.2499  1.7356
10119TIP3    H251773   2.584   5.959   2.947 -0.2324 -1.2673 -2.2927
10120TIP3   OH251774   3.953   0.814   0.286 -0.2484  0.0389 -0.1003
10120TIP3    H151775   4.027   0.755   0.272 -1.0071 -0.8733 -0.4262
10120TIP3    H251776   3.878   0.755   0.298 -0.8778  0.9383  0.4642
10121TIP3   OH251777   3.211   4.633   5.878 -0.4060  0.3174  0.3441
10121TIP3    H151778   3.184   4.691   5.949  2.0170  1.6224  0.3095
10121TIP3    H251779   3.220   4.691   5.802 -2.3084 -0.9394 -0.9313
10122TIP3   OH251780   0.056   5.888   2.994  0.0624 -0.3008 -0.0309
10122TIP3    H151781   0.136   5.884   2.942  1.8043  1.4364  2.2997
10122TIP3    H251782   0.057   5.976   3.032 -3.0947 -0.1557 -0.0527
10123TIP3   OH251783   4.104   0.592  12.872 -0.0409 -0.1678 -0.3108
10123TIP3    H151784   4.139   0.599  12.783 -2.3963  1.0338 -1.2332
10123TIP3    H251785   4.128   0.674  12.913  0.1711 -0.3047 -0.1567
10124TIP3   OH251786   3.829   4.277  13.699  0.0156 -0.5527  0.1958
10124TIP3    H151787   3.846   4.340  13.629 -0.3098 -0.0091  0.5921
10124TIP3    H251788   3.812   4.332  13.776 -0.9799 -1.1074  0.3904
10125TIP3   OH251789   0.884   1.363   3.389 -0.1071  0.0886  0.1030
10125TIP3    H151790   0.847   1.351   3.476  1.0501  2.6341  1.0678
10125TIP3    H251791   0.834   1.437   3.352  0.4113  0.0088 -0.7872
10126TIP3   OH251792   1.741   4.649  14.646  0.1027 -0.0951 -0.0949
10126TIP3    H151793   1.732   4.738  14.681  0.4364  0.0053 -0.2569
10126TIP3    H251794   1.730   4.592  14.722 -1.5742  0.0104 -0.2121
10127TIP3   OH251795   3.714   3.018   5.129 -0.3485 -0.3030 -0.1217
10127TIP3    H151796   3.672   2.957   5.068  0.2298 -0.6196 -0.2095
10127TIP3    H251797   3.802   3.030   5.094 -0.4097  0.4855 -0.0293
10128TIP3   OH251798   0.591   1.901  16.893 -0.6390 -0.2108  0.1651
10128TIP3    H151799   0.540   1.878  16.970  0.1850  0.2607  0.8675
10128TIP3    H251800   0.528   1.901  16.821 -1.7116  0.8028  1.0793
10129TIP3   OH251801   4.830   2.655  16.398 -0.2103 -0.1054  0.0900
10129TIP3    H151802   4.926   2.659  16.397 -0.2127 -0.0699 -0.8651
10129TIP3    H251803   4.802   2.746  16.398 -0.2187  0.0164 -3.1768
10130TIP3   OH251804   1.722   1.298  10.763 -0.4023 -0.1664  0.0893
10130TIP3    H151805   1.781   1.360  10.805 -1.1410  0.6549 -0.0561
10130TIP3    H251806   1.729   1.218  10.815  0.2005  0.1945  0.5640
10131TIP3   OH251807   0.426   6.215  17.353 -0.2198  0.2368  0.0336
10131TIP3    H151808   0.367   6.214  17.277  0.1614  0.5365 -0.2687
10131TIP3    H251809   0.440   6.122  17.372 -0.5416  0.1606 -0.0851
10132TIP3   OH251810   2.891   2.416   0.530 -0.0138  0.1423  0.3838
10132TIP3    H151811   2.892   2.353   0.602 -1.9821 -2.0877 -1.3571
10132TIP3    H251812   2.798   2.423   0.506  0.6380 -0.1262 -2.5992
10133TIP3   OH251813   4.407   5.821  12.083  0.7008  0.2921  0.7985
10133TIP3    H151814   4.386   5.829  12.176 -0.1451 -0.1108  0.6468
10133TIP3    H251815   4.323   5.803  12.041  0.5565  3.1643 -0.3889
10134TIP3   OH251816   0.997   4.249  17.017 -0.4422 -0.5630  0.8503
10134TIP3    H151817   0.927   4.248  17.083 -0.8064  1.5166  0.5388
10134TIP3    H251818   0.952   4.257  16.933 -0.0116 -3.6847  0.1933
10135TIP3   OH251819   0.309   4.399  11.919 -0.7043  0.0213  0.1363
10135TIP3    H151820   0.324   4.399  12.013 -1.4340  0.3139  0.2651
10135TIP3    H251821   0.371   4.336  11.884 -0.8494 -0.5509  0.8922
10136TIP3   OH251822   3.090   3.629  10.434 -0.6271  0.2899  0.1834
10136TIP3    H151823   3.043   3.712  10.439 -1.6103 -0.1933 -0.6404
10136TIP3    H251824   3.166   3.648  10.380 -0.6835  0.7184  0.2457
10137TIP3   OH251825   3.737   1.318   2.217 -0.3782 -0.5822 -0.2996
10137TIP3    H151826   3.743   1.229   2.252  0.1308 -0.5319 -0.2488
10137TIP3    H251827   3.807   1.323   2.151 -1.5109 -0.7741 -1.5576
10138TIP3   OH251828   0.072   5.785   1.282  0.1520 -0.5696  0.3189
10138TIP3    H151829   0.028   5.777   1.197  0.1498 -2.3481  0.4572
10138TIP3    H251830   0.158   5.823   1.261 -0.2234 -0.0828 -0.3490
10139TIP3   OH251831   1.484   1.943   1.534  0.5650 -0.1230 -0.2514
10139TIP3    H151832   1.463   2.033   1.559 -0.4375  0.5327 -3.1388
10139TIP3    H251833   1.551   1.952   1.467 -0.5417 -1.4203 -1.5960
10140TIP3   OH251834   2.617   2.117  10.636  0.3773 -0.0773 -0.3348
10140TIP3    H151835   2.654   2.061  10.568 -1.0491  0.8977 -1.9712
10140TIP3    H251836   2.580   2.192  10.589 -2.0887 -0.1219  1.3343
10141TIP3   OH251837   3.997   0.980  13.701  0.4629 -0.2299  0.0748
10141TIP3    H151838   3.926   0.916  13.697  0.0973  0.0832  1.3065
10141TIP3    H251839   3.963   1.057  13.656 -0.3769  0.2746  1.5331
10142TIP3   OH251840   5.176   5.830  11.358  0.4229  0.5052 -0.7095
10142TIP3    H151841   5.185   5.823  11.453 -2.3715  2.5438 -0.1559
10142TIP3    H251842   5.085   5.806  11.341  0.4135  1.7152 -2.6523
10143TIP3   OH251843   0.375   2.835   5.766  0.7143 -0.1733 -0.0200
10143TIP3    H151844   0.439   2.772   5.796  0.4565 -0.0452  0.8221
10143TIP3    H251845   0.427   2.904   5.723  1.1006 -0.2560  0.3157
10144TIP3   OH251846   5.695   5.022   0.506  0.3305  0.1923  0.4486
10144TIP3    H151847   5.643   4.952   0.465 -0.6540  1.9792 -1.5192
10144TIP3    H251848   5.768   4.975   0.548 -0.2991 -2.0301 -0.7427
10145TIP3   OH251849   1.805   5.299   0.032 -0.0081  0.2767  0.2995
10145TIP3    H151850   1.746   5.344   0.092 -0.0898  0.9391 -0.2587
10145TIP3    H251851   1.792   5.206   0.050 -0.7509  0.4394  0.6258
10146TIP3   OH251852   5.519   1.566   2.425 -0.0149  0.1873  0.0225
10146TIP3    H151853   5.570   1.496   2.384  0.5865  0.3343  0.5146
10146TIP3    H251854   5.469   1.522   2.494  0.5280  0.2683  0.4763
10147TIP3   OH251855   0.302   5.945  13.043  0.4156  0.5602  0.3162
10147TIP3    H151856   0.356   5.902  12.976 -1.4275  0.0877 -0.9341
10147TIP3    H251857   0.216   5.904  13.033  0.0514  0.5809  2.9210
10148TIP3   OH251858   3.494   2.172  16.789  0.2832  0.3471 -0.0257
10148TIP3    H151859   3.453   2.197  16.707 -0.5802  1.6308  0.7628
10148TIP3    H251860   3.553   2.100  16.766 -0.0055  0.6272 -1.7373
10149TIP3   OH251861   2.966   5.174  16.684 -0.3356  0.0055  0.6420
10149TIP3    H151862   2.973   5.185  16.779  1.3374  1.1518  0.4332
10149TIP3    H251863   2.941   5.261  16.652  2.3725  0.5720 -0.1943
10150TIP3   OH251864   0.205   1.578  11.653 -0.1702  0.0838 -0.3192
10150TIP3    H151865   0.161   1.515  11.595 -0.5686  0.6788 -0.6694
10150TIP3    H251866   0.202   1.661  11.606  1.3465  0.1431 -0.3435
10151TIP3   OH251867   2.109   3.589   6.450  0.2400 -0.7926 -0.0475
10151TIP3    H151868   2.066   3.574   6.534  2.0902 -0.2942  1.0560
10151TIP3    H251869   2.183   3.528   6.449  0.4412 -0.5605 -1.1660
10152TIP3   OH251870   6.522   0.614   0.331  0.0065 -0.5521 -0.1915
10152TIP3    H151871   6.551   0.544   0.389  1.5693  1.2801  1.4002
10152TIP3    H251872   6.430   0.626   0.352  0.5766  0.2206  2.2479
10153TIP3   OH251873   6.596   2.412  12.479 -0.2527 -0.2071  0.1614
10153TIP3    H151874   6.688   2.395  12.463  0.6175  1.6865  2.5258
10153TIP3    H251875   6.573   2.356  12.553 -1.0373 -0.6800 -0.4216
10154TIP3   OH251876   4.689   5.920  11.453 -0.2194 -0.0727  0.0440
10154TIP3    H151877   4.766   5.864  11.458 -0.4491 -0.3257  1.0407
10154TIP3    H251878   4.624   5.868  11.405  0.5515  0.5533 -1.7372
10155TIP3   OH251879   6.254   6.406  12.458  0.2054 -0.5448  0.5591
10155TIP3    H151880   6.337   6.362  12.475  0.3460 -1.0290 -1.2137
10155TIP3    H251881   6.201   6.341  12.414  0.1884  0.8124 -1.5534
10156TIP3   OH251882   3.154   5.309  17.175 -0.0674 -0.1730  0.1947
10156TIP3    H151883   3.143   5.216  17.193 -0.9613 -0.1423 -0.1359
10156TIP3    H251884   3.248   5.319  17.156  0.0817 -0.9509  0.4780
10157TIP3   OH251885   4.405   4.560   5.141  0.0999  0.1790  0.0004
10157TIP3    H151886   4.401   4.655   5.134 -3.0413  0.0257 -2.2186
10157TIP3    H251887   4.490   4.536   5.102  0.9407  2.0075  0.6115
10158TIP3   OH251888   6.171   0.129  13.120  1.0061  0.0504 -0.1680
10158TIP3    H151889   6.115   0.100  13.049  0.5857  0.8258 -0.1595
10158TIP3    H251890   6.177   0.053  13.178 -2.2757  0.6958  1.2518
10159TIP3   OH251891   3.019   4.051   0.683  0.4854  0.0724  0.5683
10159TIP3    H151892   2.969   3.999   0.745 -0.7818  0.6151  0.0410
10159TIP3    H251893   3.110   4.031   0.703  0.0688 -0.9680  1.5400
10160TIP3   OH251894   3.305   6.386  12.767  0.1493  0.1035  0.1687
10160TIP3    H151895   3.232   6.340  12.727  0.2128 -0.4159  0.6388
10160TIP3    H251896   3.266   6.433  12.841  0.2817 -0.1306  0.3870
10161TIP3   OH251897   4.399   5.773  15.634  0.0907  0.2436  0.2276
10161TIP3    H151898   4.431   5.733  15.553 -0.3641 -1.4660  0.8579
10161TIP3    H251899   4.304   5.766  15.628  0.0654 -0.1128  1.0242
10162TIP3   OH251900   2.668   4.399  11.831  0.0291  0.4411  0.3144
10162TIP3    H151901   2.718   4.478  11.812 -1.6036  1.4849  0.1845
10162TIP3    H251902   2.656   4.401  11.926 -0.8383  0.8905  0.2052
10163TIP3   OH251903   0.676   6.148  13.439  0.0289 -0.9278  0.0445
10163TIP3    H151904   0.611   6.195  13.386  1.1407  0.5390 -0.0760
10163TIP3    H251905   0.632   6.134  13.523 -0.8315 -0.9608 -0.3949
10164TIP3   OH251906   1.178   3.970  11.607  0.0550 -0.0259  0.7417
10164TIP3    H151907   1.107   3.919  11.568 -0.5084  1.4262 -0.1922
10164TIP3    H251908   1.136   4.022  11.676 -0.0018  1.5162 -0.4134
10165TIP3   OH251909   0.924   2.097  14.098  0.1481 -0.3145  0.2452
10165TIP3    H151910   0.917   2.139  14.013  0.5392 -0.3325  0.2006
10165TIP3    H251911   0.834   2.080  14.125 -0.1483  2.2005  1.0886
10166TIP3   OH251912   0.665   1.382  16.837 -0.2922 -0.4820 -0.5314
10166TIP3    H151913   0.756   1.411  16.848 -1.1761  2.7826 -0.7690
10166TIP3    H251914   0.646   1.333  16.917  0.6622  1.8949  1.2654
10167TIP3   OH251915   6.526   2.119  10.567 -0.1589 -0.5117  0.2669
10167TIP3    H151916   6.488   2.162  10.491  0.1886 -0.5849  0.0488
10167TIP3    H251917   6.459   2.057  10.596  0.4238 -1.9180 -1.1704
10168TIP3   OH251918   4.335   2.465   2.444  0.3931  0.3226  0.4182
10168TIP3    H151919   4.379   2.520   2.509 -0.4452  0.7718  0.6236
10168TIP3    H251920   4.268   2.522   2.406  1.5391  0.4284 -1.6375
10169TIP3   OH251921   3.897   5.369  14.635  0.2351 -0.4593 -0.3570
10169TIP3    H151922   3.860   5.441  14.687  0.2523  0.7547 -1.9424
10169TIP3    H251923   3.947   5.318  14.698  1.7618  1.9673  0.5438
10170TIP3   OH251924   2.155   3.026   4.361  0.2180  0.1408  0.0442
10170TIP3    H151925   2.250   3.017   4.367  0.1996  0.5644  1.3544
10170TIP3    H251926   2.137   3.045   4.269  1.2875 -1.1531 -0.4580
10171TIP3   OH251927   5.295   0.005  11.881 -0.0062  0.7102 -0.5457
10171TIP3    H151928   5.383   0.026  11.911 -0.2541  1.1440 -0.1100
10171TIP3    H251929   5.290  -0.091  11.885  0.2752  0.7129 -0.0886
10172TIP3   OH251930   3.628   3.787   4.355  0.1831 -0.3892  0.4019
10172TIP3    H151931   3.645   3.744   4.438  2.3230  0.8577  0.6795
10172TIP3    H251932   3.558   3.850   4.374  1.2957  0.5584  1.5596
10173TIP3   OH251933   2.636   0.588   5.743 -0.2615 -0.6325 -0.1140
10173TIP3    H151934   2.585   0.622   5.817 -0.5688 -0.4719 -0.3993
10173TIP3    H251935   2.721   0.632   5.751 -0.1401 -0.9507  0.4008
10174TIP3   OH251936   3.533   2.416   5.948  0.0231 -0.1081  0.1629
10174TIP3    H151937   3.494   2.336   5.984 -0.5285  0.8770  1.8803
10174TIP3    H251938   3.467   2.483   5.963  0.1331  0.5603 -1.9930
10175TIP3   OH251939   3.733   3.417  12.362  0.2616  0.8590  0.3014
10175TIP3    H151940   3.764   3.455  12.444 -0.0018  1.2960  0.2039
10175TIP3    H251941   3.641   3.442  12.357  0.5675  1.8814 -0.6990
10176TIP3   OH251942   3.266   5.704  12.356  0.2360 -0.4827  0.6571
10176TIP3    H151943   3.199   5.656  12.307 -0.2060  0.3646  0.3963
10176TIP3    H251944   3.341   5.708  12.297 -0.5453  1.1749 -0.3121
10177TIP3   OH251945   0.539   3.910   4.169  0.7542  0.3314 -0.3311
10177TIP3    H151946   0.586   3.991   4.151  1.8319 -0.2679 -0.3225
10177TIP3    H251947   0.602   3.841   4.148  0.0788 -0.4907  0.2725
10178TIP3   OH251948   5.875   0.799   2.031  0.0357  0.2063  0.0071
10178TIP3    H151949   5.961   0.784   2.070 -0.3457  1.2406  1.3417
10178TIP3    H251950   5.848   0.713   1.998  0.8771 -0.4897  1.0658
10179TIP3   OH251951   2.187   4.485   1.400  0.4176  0.4063 -0.3407
10179TIP3    H151952   2.142   4.451   1.477  2.1434 -1.0113  0.1204
10179TIP3    H251953   2.148   4.437   1.326 -1.2715  1.8021 -0.4020
10180TIP3   OH251954   4.884   1.276  13.713  0.0415  0.1524  0.0247
10180TIP3    H151955   4.971   1.245  13.686  0.1609  0.5222 -0.0111
10180TIP3    H251956   4.900   1.359  13.757 -0.3178  0.3440 -0.2012
10181TIP3   OH251957   6.698   4.061  11.302 -0.4739 -0.1063 -0.8330
10181TIP3    H151958   6.670   4.141  11.257 -0.9641 -0.8546 -1.8833
10181TIP3    H251959   6.695   4.085  11.395  1.4722  1.7592 -1.1665
10182TIP3   OH251960   5.039   1.173   1.765 -0.4738 -0.4181  0.1242
10182TIP3    H151961   5.027   1.090   1.813 -0.6993 -0.2392  0.3832
10182TIP3    H251962   5.089   1.228   1.826  0.1462 -0.5506 -0.2620
10183TIP3   OH251963   1.028   5.685   5.369  0.4047  0.4767 -0.4299
10183TIP3    H151964   0.951   5.691   5.426 -0.4976  1.1091 -1.6848
10183TIP3    H251965   1.099   5.719   5.423 -0.4078  0.9501  0.3734
10184TIP3   OH251966   3.620   0.970  16.455  0.5072 -0.4550  0.2132
10184TIP3    H151967   3.564   1.047  16.465  1.4786  0.4928 -1.2183
10184TIP3    H251968   3.560   0.901  16.428 -0.2090  0.1056  0.3355
10185TIP3   OH251969   2.873   3.775  10.946  0.4202 -0.1261  0.7824
10185TIP3    H151970   2.865   3.859  10.993 -1.0299 -1.0336  2.2930
10185TIP3    H251971   2.794   3.727  10.971  1.4030 -2.0983  0.2590
10186TIP3   OH251972   3.583   4.330   1.593 -1.3297 -0.2183  0.4706
10186TIP3    H151973   3.544   4.242   1.593  0.9264 -1.2947 -0.5684
10186TIP3    H251974   3.569   4.362   1.683  0.1971 -2.8051  1.7579
10187TIP3   OH251975   4.274   0.423   2.860  0.0871  0.4847  0.0714
10187TIP3    H151976   4.208   0.480   2.899 -0.3004 -0.4119  0.7544
10187TIP3    H251977   4.232   0.387   2.783 -0.8255 -1.2870  1.3359
10188TIP3   OH251978   5.308   6.024  17.536  0.1563  0.0217 -0.2537
10188TIP3    H151979   5.239   6.016  17.602 -0.7459  0.5017 -1.1105
10188TIP3    H251980   5.297   6.112  17.500  0.9632 -0.0441 -0.6947
10189TIP3   OH251981   0.877   1.597   0.602  0.2640 -0.0812 -0.3054
10189TIP3    H151982   0.968   1.610   0.628  0.6213 -1.9663 -0.4484
10189TIP3    H251983   0.882   1.553   0.517 -0.8268  1.3300 -1.1497
10190TIP3   OH251984   1.053   1.025   5.337  0.1225 -0.4072 -0.4470
10190TIP3    H151985   0.977   0.970   5.320 -0.3423  0.0172  0.1935
10190TIP3    H251986   1.027   1.080   5.412  0.5133  0.7838 -1.1545
10191TIP3   OH251987   5.499   3.470   4.752 -0.3146  0.5503 -0.0094
10191TIP3    H151988   5.496   3.385   4.796 -0.6465  0.5728  0.0115
10191TIP3    H251989   5.506   3.449   4.659 -0.2028  0.5014  0.0096
10192TIP3   OH251990   4.985   2.675   6.970  0.1642  0.3886  0.2923
10192TIP3    H151991   5.040   2.636   6.902  0.8713  0.5681  0.7485
10192TIP3    H251992   4.918   2.724   6.922  0.3781  0.1304 -0.2735
10193TIP3   OH251993   4.199   3.927   1.379  0.8154  1.3286  0.6936
10193TIP3    H151994   4.271   3.915   1.442  1.3218 -2.2529 -0.3682
10193TIP3    H251995   4.239   3.910   1.294 -0.9067  1.0883 -0.1026
10194TIP3   OH251996   0.878   6.675   5.115 -0.3763  0.2701 -0.3736
10194TIP3    H151997   0.969   6.687   5.088 -0.3707  1.8591  0.2288
10194TIP3    H251998   0.882   6.648   5.206 -0.4890  1.3877 -0.0126
10195TIP3   OH251999   6.324   6.181  12.132  0.5104 -0.4810 -0.3413
10195TIP3    H152000   6.296   6.187  12.223  1.2446 -0.4287 -0.1097
10195TIP3    H252001   6.369   6.097  12.127  1.0327 -0.1947 -0.4948
10196TIP3   OH252002   4.937   1.184  12.087  0.5792 -0.1911  0.4948
10196TIP3    H152003   4.942   1.223  11.999  0.4466  0.8691  0.9350
10196TIP3    H252004   5.025   1.195  12.123  0.8994 -1.4826  0.1712
10197TIP3   OH252005   2.232   1.432  13.603 -0.7861 -0.2267  0.0752
10197TIP3    H152006   2.292   1.458  13.534 -0.9981  0.6715  0.2212
10197TIP3    H252007   2.148   1.416  13.558 -0.5897 -0.9713 -0.0518
10198TIP3   OH252008   5.035   6.334   5.362 -0.2333  0.1075  0.4402
10198TIP3    H152009   4.987   6.256   5.390 -1.3071  0.8670  0.7690
10198TIP3    H252010   4.988   6.407   5.402  0.6491  0.9443 -0.0054
10199TIP3   OH252011   0.815   3.766   0.924  0.4866  0.1574  0.1825
10199TIP3    H152012   0.725   3.782   0.951  0.5462 -1.0445  1.1303
10199TIP3    H252013   0.855   3.853   0.922  0.1504  0.4421  2.8174
10200TIP3   OH252014   6.321   0.735   0.724 -0.5755  0.5409  0.3345
10200TIP3    H152015   6.355   0.824   0.731 -0.0297  0.3347  0.3495
10200TIP3    H252016   6.230   0.742   0.751 -0.8410  1.2852 -0.6784
10201TIP3   OH252017   2.267   2.682   4.493  0.2960  0.0128  0.1821
10201TIP3    H152018   2.329   2.752   4.472 -0.0811  0.0695 -0.7968
10201TIP3    H252019   2.241   2.700   4.583  1.7586 -0.0637  0.6459
10202TIP3   OH252020   0.706   2.173  15.592  0.5256  0.2674 -0.5186
10202TIP3    H152021   0.678   2.252  15.638  0.4334  0.4936 -0.9542
10202TIP3    H252022   0.628   2.117  15.592  0.5654  0.2113 -0.2852
10203TIP3   OH252023   6.546   6.221   4.059 -0.0974 -0.4929 -0.7313
10203TIP3    H152024   6.521   6.269   4.138  0.0688 -1.3620 -0.1386
10203TIP3    H252025   6.493   6.259   3.989 -0.1008  0.4227 -0.2454
10204TIP3   OH252026   4.417   1.978  14.032  0.1181 -0.7372 -0.1822
10204TIP3    H152027   4.426   2.026  14.115 -0.5732 -1.0202  0.0638
10204TIP3    H252028   4.379   2.041  13.972 -1.4320 -1.1413  0.3280
10205TIP3   OH252029   6.525   1.176  17.059  0.1727  0.5141  0.2683
10205TIP3    H152030   6.512   1.221  16.976  3.6393  0.2674 -0.5842
10205TIP3    H252031   6.533   1.083  17.036  0.2888  0.3278  1.0133
10206TIP3   OH252032   3.891   0.863  16.331  0.2019  0.1020 -0.7865
10206TIP3    H152033   3.953   0.916  16.381  1.4193 -1.4449 -0.5629
10206TIP3    H252034   3.811   0.864  16.383  1.4936 -1.6476  1.4508
10207TIP3   OH252035   3.755   1.229  13.949 -0.4386  0.5125  0.1008
10207TIP3    H152036   3.760   1.134  13.947 -2.2758  0.4043 -0.5977
10207TIP3    H252037   3.744   1.255  13.858 -1.2622  1.3039  0.4080
10208TIP3   OH252038   0.428   4.461   4.850 -0.5030  0.8032 -0.3137
10208TIP3    H152039   0.386   4.506   4.924  0.5857  1.1454  0.1194
10208TIP3    H252040   0.514   4.435   4.884 -1.2799 -2.1932 -0.3464
10209TIP3   OH252041   2.250   3.045   0.408  0.1367 -0.7146 -0.1386
10209TIP3    H152042   2.154   3.051   0.413  0.2043  1.1920 -0.4827
10209TIP3    H252043   2.277   3.021   0.496 -0.5894  0.0715  0.3113
10210TIP3   OH252044   2.657   4.907  13.583 -0.2359  0.4484  0.0328
10210TIP3    H152045   2.572   4.942  13.555  0.0776  0.7132 -0.5994
10210TIP3    H252046   2.635   4.834  13.640 -0.8872  0.3485 -0.3410
10211TIP3   OH252047   2.516   3.339  11.196  0.7566  0.2272 -0.0675
10211TIP3    H152048   2.562   3.331  11.112 -0.9928 -1.1561 -0.9675
10211TIP3    H252049   2.442   3.397  11.177  1.0858  0.9964  0.8998
10212TIP3   OH252050   1.954   0.154   4.683 -0.7441  0.6904  0.9955
10212TIP3    H152051   1.953   0.069   4.638 -1.3607  0.2734  1.7616
10212TIP3    H252052   1.933   0.217   4.614 -1.5819  0.0763  0.6622
10213TIP3   OH252053   6.461   3.291   1.667 -0.2321 -0.2145 -0.0399
10213TIP3    H152054   6.480   3.282   1.761  0.0168 -2.5606 -0.2648
10213TIP3    H252055   6.365   3.287   1.662 -0.2944  0.7434  0.1580
10214TIP3   OH252056   0.745   1.934   0.231 -0.3605 -0.3216  0.0673
10214TIP3    H152057   0.827   1.885   0.228 -0.3339 -0.4446  1.6726
10214TIP3    H252058   0.699   1.900   0.308 -1.1613  0.8847  0.1623
10215TIP3   OH252059   3.894   4.592   0.775 -0.1100  0.4780  0.4107
10215TIP3    H152060   3.824   4.532   0.800  2.0467 -1.7109  1.5648
10215TIP3    H252061   3.933   4.620   0.858  0.6980  1.2732 -0.2137
10216TIP3   OH252062   2.185   1.586   0.231  0.1202  0.2612  0.0564
10216TIP3    H152063   2.188   1.660   0.171  1.1552  1.0406  1.0369
10216TIP3    H252064   2.252   1.526   0.199  1.7551  1.3615  1.2321
10217TIP3   OH252065   4.901   0.467   0.515 -0.1155 -0.0421  0.2361
10217TIP3    H152066   4.961   0.393   0.506  0.4273  0.1645  1.9086
10217TIP3    H252067   4.892   0.480   0.609 -0.8826  1.4834 -0.0142
10218TIP3   OH252068   2.993   3.621   1.800  0.2754 -0.1947 -0.0334
10218TIP3    H152069   3.027   3.601   1.713 -0.5998 -0.9401 -0.2176
10218TIP3    H252070   3.070   3.619   1.857  0.5569 -1.8705 -0.4358
10219TIP3   OH252071   4.627   6.459  12.638  0.5286  0.1406 -0.0096
10219TIP3    H152072   4.696   6.525  12.647 -0.3944  0.9212  1.5984
10219TIP3    H252073   4.597   6.469  12.548  1.1036  1.2172 -0.1029
10220TIP3   OH252074   5.203   3.634   2.559 -0.1077 -0.2968  0.1300
10220TIP3    H152075   5.206   3.729   2.545 -0.1458 -0.7313 -3.7565
10220TIP3    H252076   5.269   3.599   2.500 -0.2993 -2.7640  1.2616
10221TIP3   OH252077   4.649   4.750   4.580 -0.0523  0.5234 -0.1559
10221TIP3    H152078   4.634   4.778   4.670 -0.0607  1.9447 -0.5724
10221TIP3    H252079   4.733   4.788   4.556 -0.8403  1.6553 -1.2853
10222TIP3   OH252080   4.027   4.131   0.692  0.2713  0.4165 -0.3909
10222TIP3    H152081   4.009   4.225   0.686 -0.7428  0.2435 -0.2384
10222TIP3    H252082   4.055   4.107   0.604 -2.5670  0.2708 -1.3396
10223TIP3   OH252083   6.466   6.557   3.096 -0.1836  0.1757 -0.2326
10223TIP3    H152084   6.515   6.510   3.028 -1.3135 -1.0514 -0.2488
10223TIP3    H252085   6.377   6.563   3.061 -0.7208 -0.2183  0.9912
10224TIP3   OH252086   3.046   5.378  12.823  0.3299  0.1888  0.2632
10224TIP3    H152087   2.986   5.311  12.790  0.1580  1.0610 -1.2978
10224TIP3    H252088   2.990   5.450  12.848  0.6448  0.5716 -0.1163
10225TIP3   OH252089   6.458   3.354  13.962  0.3100  0.0926  0.2315
10225TIP3    H152090   6.502   3.392  14.038  0.6684 -1.0399  0.6158
10225TIP3    H252091   6.368   3.386  13.968  1.1350  2.8866 -0.8710
10226TIP3   OH252092   5.941   2.154  12.531 -0.4563  0.7396  0.4892
10226TIP3    H152093   6.024   2.197  12.550 -0.4065  0.3619  1.1759
10226TIP3    H252094   5.874   2.217  12.558 -0.3849  0.5830  1.0535
10227TIP3   OH252095   0.690   4.309   1.632 -0.1799  0.0952  0.3535
10227TIP3    H152096   0.757   4.360   1.584  0.1654 -0.8661 -0.2077
10227TIP3    H252097   0.613   4.312   1.575  0.5308 -1.8845 -0.8048
10228TIP3   OH252098   2.220   0.332  15.403 -0.3649  0.4181 -0.1681
10228TIP3    H152099   2.160   0.386  15.351 -1.7147 -1.9899 -1.2483
10228TIP3    H252100   2.302   0.332  15.353 -0.2740  1.5720 -0.0514
10229TIP3   OH252101   2.158   6.703  16.922 -0.0435 -0.1941  0.8741
10229TIP3    H152102   2.108   6.783  16.937 -0.9347 -0.8082  1.3771
10229TIP3    H252103   2.246   6.723  16.952 -0.4928  0.3129  1.9440
10230TIP3   OH252104   3.060   2.072  14.945 -0.2257  0.2600  0.4260
10230TIP3    H152105   3.084   2.162  14.922 -1.6681  0.3389 -0.8920
10230TIP3    H252106   2.980   2.081  14.996  0.3753 -0.2120  1.4619
10231TIP3   OH252107   6.419   3.805   5.018  0.0856  0.1939  0.2655
10231TIP3    H152108   6.406   3.862   4.943  1.0769 -0.0991 -0.1451
10231TIP3    H252109   6.471   3.733   4.984 -0.3470 -0.4831  0.9984
10232TIP3   OH252110   1.905   6.004   2.238 -0.1706  0.0473 -0.3153
10232TIP3    H152111   1.825   6.030   2.194  0.2362 -1.4899 -2.0924
10232TIP3    H252112   1.963   5.974   2.168  2.0093  1.1585  0.8879
10233TIP3   OH252113   0.725   3.200   6.183  0.4556  0.7636  0.4228
10233TIP3    H152114   0.679   3.117   6.169  1.3255  0.1966  0.8534
10233TIP3    H252115   0.656   3.266   6.180 -0.6119 -0.1734  2.3645
10234TIP3   OH252116   6.608   4.690   1.857  0.6792 -0.0608  0.7696
10234TIP3    H152117   6.654   4.774   1.861 -0.7102  0.7364  0.6682
10234TIP3    H252118   6.515   4.714   1.856  0.2694 -1.5726  0.0566
10235TIP3   OH252119   6.473   2.045   4.262 -0.6071  0.5188  0.5567
10235TIP3    H152120   6.380   2.066   4.249 -0.2985  1.4018 -0.3979
10235TIP3    H252121   6.479   1.951   4.242 -0.5899  1.2562 -4.1837
10236TIP3   OH252122   1.529   3.967  14.146 -0.1166  0.3662 -0.2061
10236TIP3    H152123   1.517   4.036  14.080  1.9917  1.0050  0.0117
10236TIP3    H252124   1.547   4.014  14.227  1.5118 -0.4075 -0.0827
10237TIP3   OH252125   4.813   0.269  15.392  0.7442  0.5833 -0.2896
10237TIP3    H152126   4.746   0.284  15.326  0.4316  1.6506  0.2445
10237TIP3    H252127   4.773   0.297  15.474  0.6991 -1.7910  0.5905
10238TIP3   OH252128   2.715   4.837  17.577  0.2172  0.2555  0.1593
10238TIP3    H152129   2.625   4.857  17.603  0.3459 -1.5669  2.3210
10238TIP3    H252130   2.707   4.763  17.517  0.2410  0.7973 -0.5248
10239TIP3   OH252131   5.804   1.776  14.423 -0.4110  0.1901  0.0235
10239TIP3    H152132   5.751   1.735  14.491  1.9108 -2.6067  0.3278
10239TIP3    H252133   5.859   1.839  14.470 -0.7482  0.2838  0.2971
10240TIP3   OH252134   3.115   4.272   3.670  0.1160 -0.5113  0.1471
10240TIP3    H152135   3.108   4.198   3.730  0.2517 -0.0767  0.7087
10240TIP3    H252136   3.065   4.246   3.593 -0.3604 -0.9352  0.5939
10241TIP3   OH252137   5.619   4.745  11.509 -0.1873  0.3497 -0.6509
10241TIP3    H152138   5.626   4.749  11.414 -1.0828 -1.2668 -0.8248
10241TIP3    H252139   5.677   4.674  11.535  2.8829  2.9976  0.4666
10242TIP3   OH252140   1.593   5.588  17.430 -0.3772 -0.2000 -0.6041
10242TIP3    H152141   1.612   5.647  17.356  0.3121 -0.6640 -0.8032
10242TIP3    H252142   1.675   5.583  17.478 -1.8128  3.6466  2.8584
10243TIP3   OH252143   0.939   4.643   4.904 -0.5331  0.2765 -0.1953
10243TIP3    H152144   0.926   4.588   4.981 -1.4924  1.4830  0.5381
10243TIP3    H252145   0.945   4.732   4.939 -1.2233  0.8652 -1.5328
10244TIP3   OH252146   3.952   1.102   0.622 -0.1688  0.1285 -0.5309
10244TIP3    H152147   3.873   1.057   0.652  0.2637 -0.5205 -0.3513
10244TIP3    H252148   3.952   1.185   0.670 -1.0179  0.3807 -0.9312
10245TIP3   OH252149   4.340   3.706  13.614  0.2836  0.4414 -1.0750
10245TIP3    H152150   4.258   3.696  13.663  1.0816 -1.1259  0.0001
10245TIP3    H252151   4.313   3.751  13.533 -1.7275 -0.4707 -0.9861
10246TIP3   OH252152   6.267   4.229  13.133  0.3097 -0.3005  0.0544
10246TIP3    H152153   6.359   4.229  13.108 -0.0130  0.5040 -1.2189
10246TIP3    H252154   6.240   4.137  13.126  1.1130 -0.6220  0.9229
10247TIP3   OH252155   6.243   3.325  16.975  0.2989  0.0304 -0.4011
10247TIP3    H152156   6.289   3.399  16.935  1.1869  0.1568  0.7856
10247TIP3    H252157   6.155   3.329  16.939  0.5319  1.2561 -0.8818
10248TIP3   OH252158   0.392   1.412  11.757  0.7551  0.3068 -0.0202
10248TIP3    H152159   0.427   1.431  11.669  0.8408 -1.8207 -0.5011
10248TIP3    H252160   0.303   1.448  11.756  0.7019  0.1742 -1.0423
10249TIP3   OH252161   2.603   5.426  15.406 -0.3292  0.1706  0.0131
10249TIP3    H152162   2.658   5.476  15.467  0.7623 -0.5386 -0.3710
10249TIP3    H252163   2.612   5.335  15.434 -0.2396 -0.1019 -0.8663
10250TIP3   OH252164   1.474   6.132   1.794 -0.1930  0.7390  0.5232
10250TIP3    H152165   1.432   6.196   1.737 -0.4061 -0.2156 -0.4250
10250TIP3    H252166   1.417   6.055   1.790  1.2101 -0.2980 -0.1626
10251TIP3   OH252167   5.308   5.344  13.497  0.3589  0.1461 -0.7103
10251TIP3    H152168   5.219   5.313  13.516  0.6896 -0.8833 -0.7586
10251TIP3    H252169   5.303   5.376  13.407  0.0255  0.1143 -0.7066
10252TIP3   OH252170   1.925   6.042   0.421 -0.1498 -0.5037 -0.2045
10252TIP3    H152171   2.015   6.021   0.445 -0.3726 -0.2174  0.9297
10252TIP3    H252172   1.932   6.089   0.338  0.9781  1.8176  1.1073
10253TIP3   OH252173   4.997   3.397  17.449  0.2649 -0.1776  0.0483
10253TIP3    H152174   5.087   3.379  17.423  0.4399  0.0525  0.4792
10253TIP3    H252175   4.969   3.469  17.392 -0.0299 -0.9884 -0.8525
10254TIP3   OH252176   6.711   1.632   0.266 -0.2479 -0.1847  0.5620
10254TIP3    H152177   6.636   1.626   0.326 -1.0193 -1.5375 -0.4712
10254TIP3    H252178   6.671   1.645   0.180  0.8678  2.6940  0.3740
10255TIP3   OH252179   3.976   4.376   0.604  0.4928 -0.0684  0.0796
10255TIP3    H152180   3.905   4.422   0.648  0.6090  0.6173 -0.4400
10255TIP3    H252181   3.979   4.414   0.516  1.0686 -0.5541 -0.1194
10256TIP3   OH252182   3.551   5.700  13.105 -0.2110  0.1745  0.2682
10256TIP3    H152183   3.537   5.622  13.158 -0.7439  0.7941  1.0717
10256TIP3    H252184   3.643   5.697  13.081 -0.2660 -0.7827  0.1416
10257TIP3   OH252185   4.919   0.805  13.889 -0.6279  0.0052  0.1726
10257TIP3    H152186   4.939   0.894  13.860  1.8200 -0.4819  0.1853
10257TIP3    H252187   4.855   0.772  13.826 -1.5096  1.7047  0.1294
10258TIP3   OH252188   3.958   3.938   5.341 -0.5238 -0.2694 -0.5569
10258TIP3    H152189   3.878   3.894   5.312 -0.5124  0.2264 -1.3708
10258TIP3    H252190   4.029   3.879   5.314 -0.5610 -0.2740 -0.6419
10259TIP3   OH252191   2.952   3.123  11.219  0.1832  0.7106 -0.3683
10259TIP3    H152192   2.947   3.204  11.168  0.2561  0.6575 -0.4605
10259TIP3    H252193   2.861   3.096  11.231  0.1956  0.2593 -1.2198
10260TIP3   OH252194   1.580   6.082  12.796  0.5509  0.1434 -0.4801
10260TIP3    H152195   1.551   6.113  12.710 -0.0671  1.1267  0.0736
10260TIP3    H252196   1.664   6.127  12.810  0.1481  0.7859 -0.1195
10261TIP3   OH252197   3.712   5.675   2.941  1.3594  0.1403  0.4694
10261TIP3    H152198   3.718   5.768   2.961  0.1902 -0.0007  1.5949
10261TIP3    H252199   3.619   5.654   2.951  1.8058 -1.4507  1.7545
10262TIP3   OH252200   4.421   2.958  14.730 -0.2628 -0.0269 -0.3718
10262TIP3    H152201   4.494   2.979  14.672  2.4461 -2.6553  1.7566
10262TIP3    H252202   4.429   3.020  14.803  1.8029 -2.0052  1.2410
10263TIP3   OH252203   5.299   2.255   2.750 -0.0448 -0.8228  0.6174
10263TIP3    H152204   5.349   2.248   2.668  0.9756  0.8826  1.0398
10263TIP3    H252205   5.361   2.232   2.818 -0.3859 -0.5621  1.0227
10264TIP3   OH252206   0.827   6.079  11.489  0.6291 -0.5021 -0.1960
10264TIP3    H152207   0.819   6.168  11.524 -0.6326 -0.8457  0.4457
10264TIP3    H252208   0.904   6.083  11.432 -0.5018  1.4906 -1.7071
10265TIP3   OH252209   1.167   3.181   0.072 -0.1918 -0.0081  0.2842
10265TIP3    H152210   1.138   3.195  -0.018  2.3898 -1.8580 -0.9578
10265TIP3    H252211   1.152   3.265   0.115  0.0373  1.4993 -2.3408
10266TIP3   OH252212   4.276   1.490  11.359  0.1076 -0.5055 -0.1172
10266TIP3    H152213   4.193   1.444  11.372  0.7414 -1.5925  0.2572
10266TIP3    H252214   4.251   1.576  11.326 -1.3769  0.5673  3.2987
10267TIP3   OH252215   5.085   5.841   4.775 -0.2424 -0.2755  0.2103
10267TIP3    H152216   5.153   5.885   4.724 -0.3920  1.1610  1.1953
10267TIP3    H252217   5.076   5.755   4.734  3.6938 -1.4252  1.3190
10268TIP3   OH252218   2.458   5.977   4.828  0.3268  0.1554 -0.2892
10268TIP3    H152219   2.516   6.049   4.803 -0.3227  1.3634  1.4834
10268TIP3    H252220   2.512   5.922   4.885  0.1665  0.5140  0.2185
10269TIP3   OH252221   6.593   4.536  13.501  0.3109  0.0831 -0.1909
10269TIP3    H152222   6.594   4.591  13.578  0.1513  0.3790 -0.3981
10269TIP3    H252223   6.534   4.580  13.440 -0.5895 -0.8110  0.0033
10270TIP3   OH252224   4.872   3.841  11.922  0.0406  0.2878 -0.5306
10270TIP3    H152225   4.861   3.935  11.907  0.7956  0.3736 -0.6029
10270TIP3    H252226   4.844   3.828  12.012 -0.7230  0.4630 -0.7405
10271TIP3   OH252227   4.140   6.645  11.662 -0.1615  0.0025 -0.4231
10271TIP3    H152228   4.084   6.572  11.690 -0.8851  0.0103 -1.7643
10271TIP3    H252229   4.120   6.656  11.569  0.4568  1.4629 -0.4070
10272TIP3   OH252230   3.640   0.237  11.851  0.3119 -0.1797 -0.6878
10272TIP3    H152231   3.728   0.242  11.816  0.2105  0.3731 -0.8751
10272TIP3    H252232   3.590   0.187  11.786  0.4068 -0.1938 -0.7492
10273TIP3   OH252233   1.991   1.612  10.620  0.2821  0.0346 -0.1675
10273TIP3    H152234   2.081   1.617  10.652 -0.0359  0.2413  0.7126
10273TIP3    H252235   1.974   1.519  10.609  0.1934 -0.0790  0.8737
10274TIP3   OH252236   5.445   5.291  13.178 -0.4439 -0.7652 -0.3558
10274TIP3    H152237   5.363   5.335  13.197 -1.0262 -0.6442 -2.8443
10274TIP3    H252238   5.440   5.208  13.227 -2.2432 -0.9514 -0.7840
10275TIP3   OH252239   0.079   6.132  13.251 -0.1063 -0.0686 -0.1526
10275TIP3    H152240   0.058   6.204  13.310  0.3766 -2.4543  3.2608
10275TIP3    H252241   0.174   6.122  13.259 -0.4919 -3.1178  2.3155
10276TIP3   OH252242   6.586   6.599   3.341  0.0929  0.1790  0.2954
10276TIP3    H152243   6.550   6.665   3.400 -0.6539  0.3852 -0.3632
10276TIP3    H252244   6.517   6.585   3.276  0.1577 -1.3941  0.5194
10277TIP3   OH252245   5.459   0.777   1.948  0.3713 -0.0419 -0.3700
10277TIP3    H152246   5.498   0.823   1.874  1.8018 -1.1048 -0.3318
10277TIP3    H252247   5.522   0.789   2.019  1.5269 -3.0967 -0.7279
10278TIP3   OH252248   3.934   2.054  13.399 -0.0456  0.3609 -0.1541
10278TIP3    H152249   3.994   2.005  13.342  1.1346  0.9108  0.5734
10278TIP3    H252250   3.914   1.993  13.471  0.8860  0.6889  0.4000
10279TIP3   OH252251   5.794   4.337   1.370  0.5761  0.1495  0.7889
10279TIP3    H152252   5.831   4.298   1.291  1.7722 -0.5831  1.6737
10279TIP3    H252253   5.796   4.432   1.353  1.5491  0.0474  0.2412
10280TIP3   OH252254   3.678   6.090   5.553  0.1830  0.3245 -0.6015
10280TIP3    H152255   3.680   6.137   5.636 -2.2042  1.6675 -1.2079
10280TIP3    H252256   3.730   6.012   5.569  1.4887  1.5072  1.5064
10281TIP3   OH252257   4.784   2.978   4.563 -0.2018  0.0525 -0.2155
10281TIP3    H152258   4.857   2.934   4.519 -0.6027 -2.2710  1.3129
10281TIP3    H252259   4.790   3.069   4.532  3.3937  0.0196 -0.0757
10282TIP3   OH252260   1.785   0.744   0.066  0.1659  0.3795  0.7905
10282TIP3    H152261   1.708   0.688   0.054 -1.0638  1.4870  2.8849
10282TIP3    H252262   1.830   0.706   0.141 -0.0580  1.4709  1.5058
10283TIP3   OH252263   1.097   1.444  10.228 -0.0686 -0.3336  0.4315
10283TIP3    H152264   1.161   1.501  10.185 -0.1140 -0.8728 -0.3697
10283TIP3    H252265   1.121   1.447  10.321  0.9099 -0.2604  0.1853
10284TIP3   OH252266   2.928   6.026   2.253  0.6234 -0.2036 -0.2067
10284TIP3    H152267   2.930   6.083   2.176  1.6966 -0.3199 -0.2891
10284TIP3    H252268   2.870   6.069   2.315 -0.0864  0.0010 -1.0040
10285TIP3   OH252269   3.935   1.946   0.854  0.0506 -0.4597  0.3470
10285TIP3    H152270   3.927   2.007   0.780  1.1336 -1.9242 -1.0577
10285TIP3    H252271   4.020   1.966   0.893 -0.2484 -0.0956  0.8137
10286TIP3   OH252272   2.115   0.669  14.340 -0.4883 -0.7359  0.1266
10286TIP3    H152273   2.187   0.606  14.342 -0.2844 -0.4825  0.9124
10286TIP3    H252274   2.104   0.689  14.247  1.3514  0.2205  0.0594
10287TIP3   OH252275   5.640   1.205   1.728  0.5147  0.2720  0.4925
10287TIP3    H152276   5.635   1.298   1.705  0.0765 -0.3617 -2.4353
10287TIP3    H252277   5.733   1.187   1.739  0.6847  0.8754  0.0916
10288TIP3   OH252278   5.693   2.191  12.958 -0.0840 -0.2971 -0.7394
10288TIP3    H152279   5.771   2.245  12.944 -0.6577  0.8211  0.1972
10288TIP3    H252280   5.619   2.250  12.947 -0.7200 -0.7107  0.8728
10289TIP3   OH252281   6.592   4.094   3.994  0.9607 -0.1391  0.6792
10289TIP3    H152282   6.626   4.069   4.079  2.4145  1.2045  0.5527
10289TIP3    H252283   6.666   4.135   3.950 -0.2555  0.8916 -0.5102
10290TIP3   OH252284   5.752   3.500   1.937  0.0291  0.2067  0.1471
10290TIP3    H152285   5.692   3.567   1.969  0.2110  0.4769 -0.0798
10290TIP3    H252286   5.699   3.420   1.933  0.0478  0.1185  1.3147
10291TIP3   OH252287   1.118   1.599  13.191 -0.3149  0.2959 -0.4743
10291TIP3    H152288   1.058   1.607  13.265  1.8344  1.0068  1.2932
10291TIP3    H252289   1.117   1.506  13.170 -0.1621 -0.1026  1.1724
10292TIP3   OH252290   2.847   0.496   0.870 -0.8136  0.1022  0.7601
10292TIP3    H152291   2.848   0.555   0.945  1.1507 -0.9244  1.6307
10292TIP3    H252292   2.795   0.541   0.804 -0.0600  2.4285  1.6555
10293TIP3   OH252293   3.857   0.881   6.971 -0.1602 -0.4938 -0.1054
10293TIP3    H152294   3.931   0.834   6.933 -1.4942 -3.3121  0.4885
10293TIP3    H252295   3.782   0.854   6.918 -1.0410  0.9432  0.3482
10294TIP3   OH252296   3.477   6.337  12.484  0.0569  0.4230  0.3808
10294TIP3    H152297   3.498   6.341  12.391 -0.5510  0.7820  0.2513
10294TIP3    H252298   3.401   6.395  12.494 -1.5221 -1.6020  0.6319
10295TIP3   OH252299   0.955   6.498  11.049 -0.2317 -0.0549 -0.3636
10295TIP3    H152300   0.868   6.525  11.020  0.1385 -0.4360 -1.9529
10295TIP3    H252301   1.010   6.574  11.032 -0.4816  0.8021  2.1874
10296TIP3   OH252302   5.097   5.335  12.857 -0.0359 -0.3571 -0.4029
10296TIP3    H152303   5.084   5.288  12.939 -0.2316  1.5971  0.7630
10296TIP3    H252304   5.076   5.272  12.788 -0.0170 -1.9985  1.0424
10297TIP3   OH252305   3.138   1.963   4.750  0.0657  0.2683 -0.2678
10297TIP3    H152306   3.165   1.960   4.658  2.1064 -0.8817  0.2951
10297TIP3    H252307   3.191   1.895   4.792 -2.5856 -0.9665  1.3419
10298TIP3   OH252308   2.587   2.566  13.955 -0.4054  0.4879  0.0557
10298TIP3    H152309   2.562   2.641  14.009  2.1429  0.0318  2.0839
10298TIP3    H252310   2.677   2.548  13.981  0.1181 -1.3335 -2.6878
10299TIP3   OH252311   1.588   3.805  16.438  0.7797 -0.2027  0.3790
10299TIP3    H152312   1.548   3.776  16.356 -0.1267  0.0858  0.7115
10299TIP3    H252313   1.564   3.898  16.444  1.1083 -0.1473  0.8165
10300TIP3   OH252314   6.370   3.381  15.945 -0.4467 -0.1670  0.5948
10300TIP3    H152315   6.309   3.356  16.014 -0.6068  1.4710  1.0931
10300TIP3    H252316   6.409   3.298  15.916 -0.6215 -0.9266  2.3994
10301TIP3   OH252317   2.820   4.473   1.152  0.2099  0.8919  0.0455
10301TIP3    H152318   2.741   4.517   1.121  0.0856  2.1564  1.9430
10301TIP3    H252319   2.805   4.460   1.246  1.5057 -0.5522  0.1074
10302TIP3   OH252320   3.178   6.406   0.526 -0.4613  0.3654  0.2668
10302TIP3    H152321   3.132   6.329   0.559 -0.0751 -0.2647 -0.6431
10302TIP3    H252322   3.244   6.425   0.593 -2.2327  1.5210  1.7874
10303TIP3   OH252323   5.628   1.311  12.791  1.3369 -0.1096  0.3750
10303TIP3    H152324   5.561   1.268  12.738  1.0155 -0.2297  0.8760
10303TIP3    H252325   5.583   1.385  12.833  1.5212 -0.1799  0.7006
10304TIP3   OH252326   4.797   1.934   1.772 -0.4058  0.8394  0.3196
10304TIP3    H152327   4.760   1.897   1.692 -0.8345  1.5534  0.1893
10304TIP3    H252328   4.801   1.860   1.832 -0.2454  0.3345 -0.2950
10305TIP3   OH252329   0.987   5.534  17.263  0.3941 -0.0457  0.5294
10305TIP3    H152330   0.922   5.520  17.332  1.2302  0.3698  1.4380
10305TIP3    H252331   1.071   5.513  17.304  0.8819 -0.1530 -0.4826
10306TIP3   OH252332   6.118   6.575   5.917 -0.0757 -0.0463  0.1027
10306TIP3    H152333   6.166   6.497   5.889 -2.4481 -0.7604 -2.3852
10306TIP3    H252334   6.089   6.555   6.006  1.8665 -0.6859  0.6345
10307TIP3   OH252335   5.559   0.786   6.811 -0.6151  0.0740  0.2750
10307TIP3    H152336   5.645   0.819   6.784 -0.7330  0.1778  0.0176
10307TIP3    H252337   5.527   0.850   6.874 -1.8549  1.7749 -1.9203
10308TIP3   OH252338   3.183   3.191  15.489  0.1699 -0.2700 -0.1142
10308TIP3    H152339   3.173   3.163  15.398  1.1750  1.5278 -0.8265
10308TIP3    H252340   3.164   3.285  15.487  0.5772 -0.1358  1.4739
10309TIP3   OH252341   2.706   1.195  15.374 -0.0372  0.4697  0.3281
10309TIP3    H152342   2.800   1.187  15.359  0.5303  1.1942  3.0322
10309TIP3    H252343   2.686   1.286  15.353  0.5990  1.2614  2.8299
10310TIP3   OH252344   0.746   6.170   3.082  0.0077  0.0288 -0.4307
10310TIP3    H152345   0.717   6.169   3.173  0.4342  0.3025 -0.2861
10310TIP3    H252346   0.829   6.121   3.084  0.8101  1.3416 -0.3877
10311TIP3   OH252347   1.234   4.665   2.640  0.0043 -0.7052  0.0596
10311TIP3    H152348   1.318   4.680   2.683  0.6270  0.5733 -1.4852
10311TIP3    H252349   1.184   4.614   2.703  0.8232  1.1019  2.3534
10312TIP3   OH252350   5.378   0.377  14.936 -0.3138  0.0709  0.1732
10312TIP3    H152351   5.411   0.399  14.849  0.1666 -0.0229  0.3334
10312TIP3    H252352   5.358   0.462  14.975 -2.6888  0.0749 -0.8440
10313TIP3   OH252353   2.363   2.592   4.775  0.3135  0.0589  0.5118
10313TIP3    H152354   2.271   2.588   4.749  0.4118  1.4822 -0.1284
10313TIP3    H252355   2.372   2.521   4.838 -1.0454 -0.5661  0.0499
10314TIP3   OH252356   0.838   0.312  17.295 -0.0303  0.7010  0.1398
10314TIP3    H152357   0.880   0.379  17.350  0.6111  1.3330 -1.0869
10314TIP3    H252358   0.754   0.350  17.270 -1.5001 -0.5914  2.6482
10315TIP3   OH252359   2.995   5.257  14.056  0.1793 -0.0469  0.1418
10315TIP3    H152360   3.056   5.330  14.044 -2.3096  2.3539  1.0752
10315TIP3    H252361   3.010   5.228  14.146  1.1701 -0.7644 -0.2302
10316TIP3   OH252362   0.836   3.859  10.885  0.1160  0.4997  0.0005
10316TIP3    H152363   0.884   3.938  10.863 -1.5411  1.3686 -0.7138
10316TIP3    H252364   0.821   3.815  10.801 -0.5173  0.3784  0.1652
10317TIP3   OH252365   5.179   3.696  13.345 -0.1078  0.4739 -0.4214
10317TIP3    H152366   5.141   3.718  13.430  0.5458  1.4444 -0.3575
10317TIP3    H252367   5.255   3.641  13.366 -1.3767 -1.3961 -0.5447
10318TIP3   OH252368   2.522   0.817  15.184  0.4462 -0.2795 -0.7201
10318TIP3    H152369   2.508   0.909  15.164 -0.1998  0.0306  1.0015
10318TIP3    H252370   2.599   0.816  15.241  0.8872 -0.8915 -1.3125
10319TIP3   OH252371   3.679   4.376   2.582 -0.1478 -0.1320  0.0439
10319TIP3    H152372   3.709   4.423   2.660  2.0035 -0.0140 -0.7862
10319TIP3    H252373   3.654   4.445   2.521  1.0202 -0.0983 -0.4196
10320TIP3   OH252374   6.501   6.059   3.673  0.0082  0.1984 -1.2784
10320TIP3    H152375   6.442   5.984   3.676  0.1297  0.0992  2.2145
10320TIP3    H252376   6.587   6.022   3.652  0.1704 -0.8330  0.9149
10321TIP3   OH252377   4.060   4.150   6.348  0.1033  0.5732 -0.3601
10321TIP3    H152378   4.135   4.103   6.385 -0.1592  0.4161 -0.0230
10321TIP3    H252379   4.029   4.206   6.419 -0.8807 -0.2999 -0.0692
10322TIP3   OH252380   5.489   3.377  12.493 -0.3641  0.5358 -0.1798
10322TIP3    H152381   5.462   3.359  12.583  0.2106  0.4535 -0.0226
10322TIP3    H252382   5.577   3.342  12.486 -0.8654 -0.6235 -1.1662
10323TIP3   OH252383   4.169   4.272   4.389 -0.1779  0.5142 -0.2907
10323TIP3    H152384   4.198   4.292   4.300 -1.3779 -0.2443 -0.8707
10323TIP3    H252385   4.213   4.189   4.410 -0.7567  0.1188 -0.6130
10324TIP3   OH252386   6.131   3.443  17.206  0.1092  0.8335 -0.0488
10324TIP3    H152387   6.171   3.370  17.159  0.5552  0.0812  1.4469
10324TIP3    H252388   6.145   3.518  17.149  1.8111  0.1983 -0.5430
10325TIP3   OH252389   5.459   4.663   5.735 -0.0812  0.0567  0.3042
10325TIP3    H152390   5.542   4.707   5.718 -0.0352  0.6601  1.8654
10325TIP3    H252391   5.392   4.731   5.723 -0.1364  0.1923  1.3046
10326TIP3   OH252392   6.631   0.055  14.620 -0.4475  0.0273 -0.6595
10326TIP3    H152393   6.604  -0.018  14.676 -2.8752  2.1918  1.2219
10326TIP3    H252394   6.726   0.054  14.624 -0.4559 -1.9632  0.6944
10327TIP3   OH252395   5.702   2.722   3.364 -0.3757  0.1732 -0.2608
10327TIP3    H152396   5.635   2.770   3.412  0.0980  0.4560  0.1334
10327TIP3    H252397   5.699   2.633   3.400  2.2732  1.1210  2.9078
10328TIP3   OH252398   2.674   3.038  14.704 -0.0324 -0.5771 -0.0087
10328TIP3    H152399   2.643   3.068  14.619  1.4245 -0.9267 -0.6933
10328TIP3    H252400   2.600   2.989  14.741 -0.5458 -0.7672 -1.2564
10329TIP3   OH252401   5.293   0.652  16.554 -0.3576 -0.7093  0.0985
10329TIP3    H152402   5.330   0.620  16.636  0.4249 -0.3454 -0.1022
10329TIP3    H252403   5.298   0.577  16.495 -0.2778 -0.7740  0.1865
10330TIP3   OH252404   0.516   2.155  11.784  0.6050  0.2195 -0.1995
10330TIP3    H152405   0.526   2.244  11.752  2.5380  0.7672  1.6916
10330TIP3    H252406   0.551   2.157  11.873  2.6624 -2.7990 -0.7657
10331TIP3   OH252407   3.410   2.455   1.318 -0.9760 -0.0871 -0.0776
10331TIP3    H152408   3.387   2.455   1.411 -1.6966 -1.3901 -0.2288
10331TIP3    H252409   3.440   2.366   1.301 -0.4481  0.2577 -0.9982
10332TIP3   OH252410   6.556   0.115  15.427  0.0115  0.4219 -0.1838
10332TIP3    H152411   6.493   0.043  15.427  0.2423  0.2004  1.0135
10332TIP3    H252412   6.604   0.104  15.509  0.8031  1.2875 -0.5249
10333TIP3   OH252413   3.467   1.632  14.260 -0.3027 -0.0785  0.0564
10333TIP3    H152414   3.456   1.538  14.246  1.2746 -0.4831  1.2745
10333TIP3    H252415   3.527   1.660  14.190 -0.8431  0.0559 -0.3604
10334TIP3   OH252416   5.861   3.126   5.807  0.2177  0.7654  0.2314
10334TIP3    H152417   5.848   3.039   5.769 -0.8713  0.9184  0.2272
10334TIP3    H252418   5.799   3.130   5.880 -0.6669  1.9972 -0.5540
10335TIP3   OH252419   6.188   0.481   1.181 -0.1579 -0.4079 -0.1596
10335TIP3    H152420   6.187   0.394   1.140  0.5178 -0.6226  0.2588
10335TIP3    H252421   6.265   0.479   1.238 -0.0856  0.5052 -0.2223
10336TIP3   OH252422   4.319   2.846   6.283  0.0289  0.1527  0.3971
10336TIP3    H152423   4.279   2.760   6.283  0.5137 -0.1101 -1.3254
10336TIP3    H252424   4.253   2.904   6.244 -0.2190  0.5301  1.3607
10337TIP3   OH252425   2.842   6.655   6.013 -0.4355  0.3500 -0.1616
10337TIP3    H152426   2.766   6.629   6.065 -0.5137  1.5911  0.3735
10337TIP3    H252427   2.873   6.735   6.055 -1.0133  1.9160 -2.5495
10338TIP3   OH252428   1.012   1.942   0.713 -0.2537  0.2390  0.3793
10338TIP3    H152429   1.044   2.030   0.734  0.6602  1.0779 -3.7367
10338TIP3    H252430   1.090   1.888   0.707 -0.0344  0.7071 -2.9997
10339TIP3   OH252431   3.412   2.417  14.581  0.0079 -0.3586  0.2195
10339TIP3    H152432   3.318   2.395  14.578 -0.0121 -0.1449 -1.2802
10339TIP3    H252433   3.456   2.333  14.592 -0.3793 -0.3655  2.0588
10340TIP3   OH252434   3.303   5.999   4.202 -0.2678 -0.0485  0.4445
10340TIP3    H152435   3.211   6.007   4.225 -0.4459 -0.1343 -0.2296
10340TIP3    H252436   3.321   6.078   4.150 -0.5398 -1.1055 -1.3119
10341TIP3   OH252437   0.919   5.260   3.481  0.1705 -0.1802 -0.1530
10341TIP3    H152438   0.897   5.320   3.409  1.5372 -0.5392 -0.9195
10341TIP3    H252439   0.976   5.311   3.538 -0.4253 -0.0843  0.3600
10342TIP3   OH252440   6.685   2.322   0.018  0.7290  0.7555 -0.1789
10342TIP3    H152441   6.652   2.361   0.099  1.3084  1.8925 -0.4746
10342TIP3    H252442   6.693   2.228   0.038  1.6049  1.1226  1.3248
10343TIP3   OH252443   0.047   4.034  13.057 -0.1846  0.2801 -0.2545
10343TIP3    H152444   0.062   3.941  13.037  2.7422  0.9101 -1.5489
10343TIP3    H252445   0.083   4.045  13.145 -0.8518  0.1316  0.0398
10344TIP3   OH252446   5.213   5.787   1.625  0.5035 -0.2604 -0.3014
10344TIP3    H152447   5.282   5.853   1.617 -0.1895  0.7788  1.6770
10344TIP3    H252448   5.133   5.837   1.641 -0.7629 -1.4433 -2.4768
10345TIP3   OH252449   5.084   2.539  15.722  0.0097  0.2227  0.2187
10345TIP3    H152450   4.997   2.529  15.683 -0.5941 -0.7929  1.7000
10345TIP3    H252451   5.079   2.619  15.774 -0.2563 -0.1681  0.8029
10346TIP3   OH252452   2.224   4.095  17.166 -0.3377  0.1261  0.8588
10346TIP3    H152453   2.204   4.112  17.258 -2.7013 -1.1498  0.6816
10346TIP3    H252454   2.205   4.001  17.155 -2.1750  0.6563 -1.3227
10347TIP3   OH252455   6.171   1.521   2.942 -0.0928 -0.1464  0.8000
10347TIP3    H152456   6.190   1.519   3.036  0.0767  0.5826  0.7899
10347TIP3    H252457   6.242   1.471   2.902  0.3453  0.3165  0.9905
10348TIP3   OH252458   3.056   6.369  13.864  0.0728 -0.6974 -0.7055
10348TIP3    H152459   3.056   6.412  13.779 -0.3178  0.4447 -0.1405
10348TIP3    H252460   3.119   6.419  13.917 -1.6628  0.3261  0.4930
10349TIP3   OH252461   2.490   4.965   4.658  0.0456 -0.0786 -0.0222
10349TIP3    H152462   2.415   4.956   4.600 -0.2208 -3.0897  0.6172
10349TIP3    H252463   2.454   4.961   4.747  0.4222  4.6476  0.5886
10350TIP3   OH252464   6.273   0.768   5.676  0.3785  0.1971 -0.7051
10350TIP3    H152465   6.244   0.832   5.611 -0.5183  0.1827 -0.3301
10350TIP3    H252466   6.288   0.820   5.755 -1.5052 -0.1786 -0.0483
10351TIP3   OH252467   4.940   0.485   0.092  0.0349 -0.2055 -0.0898
10351TIP3    H152468   4.879   0.526   0.154 -0.0157 -0.1572 -0.1711
10351TIP3    H252469   5.026   0.516   0.118 -0.0219  0.1219 -0.2817
10352TIP3   OH252470   2.136   4.215  14.366  0.0439  0.3551 -0.2241
10352TIP3    H152471   2.216   4.222  14.418 -0.1579  1.0723 -0.0043
10352TIP3    H252472   2.156   4.146  14.302  0.8769  0.5899 -0.2363
10353TIP3   OH252473   6.017   0.148   5.351 -0.0118 -0.3975  0.2792
10353TIP3    H152474   6.104   0.187   5.362 -0.1440 -0.2850  1.0235
10353TIP3    H252475   6.033   0.054   5.348  0.0598 -0.4437  1.4928
10354TIP3   OH252476   4.447   0.849  15.795  0.0575  0.2085 -0.0449
10354TIP3    H152477   4.365   0.866  15.843  1.7280  1.8818  2.4587
10354TIP3    H252478   4.465   0.757  15.810 -0.7713  0.0951  0.3381
10355TIP3   OH252479   2.775   5.606   4.798  0.5067 -0.2109  0.7208
10355TIP3    H152480   2.868   5.617   4.776  0.1985 -0.0632 -0.6105
10355TIP3    H252481   2.740   5.549   4.730 -0.8365  1.4848 -0.1181
10356TIP3   OH252482   3.658   0.988   5.805  0.4633  0.5719  0.3326
10356TIP3    H152483   3.564   1.004   5.804  0.0169 -1.5174 -2.4222
10356TIP3    H252484   3.667   0.894   5.792  2.9439  0.7330  0.2964
10357TIP3   OH252485   0.636   4.462   4.312 -0.4719  0.2179  0.8307
10357TIP3    H152486   0.613   4.508   4.230  0.6052  0.8686  0.8716
10357TIP3    H252487   0.664   4.532   4.371  0.8680 -0.4626  1.0200
10358TIP3   OH252488   3.362   0.374  16.125 -0.3209 -0.6657  0.3973
10358TIP3    H152489   3.267   0.373  16.111 -0.2436  1.2109 -0.6538
10358TIP3    H252490   3.384   0.284  16.147 -1.9432 -1.8588 -2.3350
10359TIP3   OH252491   0.159   5.032  16.777  0.1692 -0.1189  0.1898
10359TIP3    H152492   0.118   5.112  16.809 -0.9414 -0.6076  0.0393
10359TIP3    H252493   0.214   5.002  16.850 -0.1059  0.3047  0.5686
10360TIP3   OH252494   4.296   2.865   6.909 -0.5502  0.2068 -0.2385
10360TIP3    H152495   4.377   2.817   6.924 -1.3755 -0.4349  2.7531
10360TIP3    H252496   4.308   2.907   6.824  2.2229 -1.1900 -0.6276
10361TIP3   OH252497   1.041   2.519   1.170 -0.0282  0.1536 -0.3195
10361TIP3    H152498   1.051   2.542   1.262  0.8269  1.1235 -0.6373
10361TIP3    H252499   0.962   2.464   1.167  0.0751 -0.0899  1.0106
10362TIP3   OH252500   4.107   2.989   6.206 -0.3286  0.2326  0.4563
10362TIP3    H152501   4.077   2.947   6.126  0.6917  1.3670 -0.5636
10362TIP3    H252502   4.046   3.062   6.219 -1.0253 -0.4611  1.2374
10363TIP3   OH252503   5.364   6.656   5.062 -0.2431  0.2371  0.1787
10363TIP3    H152504   5.291   6.685   5.008 -0.9697  1.2354  1.6338
10363TIP3    H252505   5.374   6.563   5.041 -2.2064 -0.0258  0.2455
10364TIP3   OH252506   3.797   4.672   5.416  0.0268 -0.4545  0.2160
10364TIP3    H152507   3.765   4.659   5.505  0.2511 -0.3870  0.3069
10364TIP3    H252508   3.719   4.698   5.366 -0.0010  0.0212  0.5030
10365TIP3   OH252509   5.509   2.005   2.452 -0.4330 -0.4991  0.1018
10365TIP3    H152510   5.546   1.948   2.519  1.9277  0.5782 -0.2170
10365TIP3    H252511   5.474   1.944   2.386  0.5495 -1.5769  0.5490
10366TIP3   OH252512   2.782   4.940  13.329 -0.2497  0.2972 -0.0515
10366TIP3    H152513   2.755   4.922  13.419  1.2641  0.8815  0.5530
10366TIP3    H252514   2.877   4.943  13.333 -0.1916  1.5627 -1.4288
10367TIP3   OH252515   3.972   3.450   1.837 -0.4586  0.3770  0.0726
10367TIP3    H152516   4.038   3.476   1.901  0.5141  0.0083 -0.7655
10367TIP3    H252517   3.950   3.531   1.791 -0.7421  0.5317  0.4629
10368TIP3   OH252518   5.266   2.793  14.803 -0.3405  0.1122  0.3567
10368TIP3    H152519   5.178   2.794  14.765 -0.4639  1.1848  0.6425
10368TIP3    H252520   5.319   2.842  14.741  0.1631 -0.8686 -0.0142
10369TIP3   OH252521   0.426   3.133   0.389  0.5748 -0.6253 -0.1800
10369TIP3    H152522   0.509   3.119   0.436  2.1510  1.6701 -2.0263
10369TIP3    H252523   0.380   3.199   0.441  1.8769  1.1842 -1.1783
10370TIP3   OH252524   4.194   1.308  13.972  0.3619 -0.2134  0.3647
10370TIP3    H152525   4.248   1.268  13.903  0.4134  0.2372  0.1380
10370TIP3    H252526   4.125   1.244  13.989  1.8295 -1.5228  1.7691
10371TIP3   OH252527   5.185   5.555   3.598  0.2644  0.1448  0.1215
10371TIP3    H152528   5.220   5.588   3.516 -1.5425  0.8076 -0.4308
10371TIP3    H252529   5.091   5.544   3.581  0.1110 -1.1778  1.6258
10372TIP3   OH252530   6.021   0.223   5.875  0.0278 -0.3384  0.3092
10372TIP3    H152531   5.989   0.211   5.785  0.0357  2.1323 -0.1121
10372TIP3    H252532   5.943   0.250   5.924  0.6510  2.1486  0.0904
10373TIP3   OH252533   6.162   2.271   2.831  0.3448 -0.2299 -0.2398
10373TIP3    H152534   6.100   2.314   2.772 -0.0286  0.1587  0.4198
10373TIP3    H252535   6.197   2.198   2.781  1.3401  1.0971 -1.5814
10374TIP3   OH252536   5.489   0.780   0.265  0.5202  0.0588 -0.0851
10374TIP3    H152537   5.578   0.771   0.230  0.7913 -0.1396  0.6466
10374TIP3    H252538   5.437   0.718   0.213  0.4210  1.4358 -1.7415
10375TIP3   OH252539   3.232   4.748  16.882 -0.1440 -0.7510  0.0377
10375TIP3    H152540   3.150   4.706  16.905 -0.8132  0.6474  0.3073
10375TIP3    H252541   3.299   4.683  16.902 -1.0770 -1.4071  1.1281
10376TIP3   OH252542   1.289   4.357  16.651 -0.5329  0.3066 -0.3750
10376TIP3    H152543   1.345   4.415  16.600  0.3425 -1.1129 -1.0737
10376TIP3    H252544   1.316   4.371  16.742 -0.0759  0.7145 -0.5730
10377TIP3   OH252545   5.515   3.268   2.144 -0.1214 -0.5912 -0.1971
10377TIP3    H152546   5.562   3.280   2.226  2.2899  2.7388 -1.8199
10377TIP3    H252547   5.434   3.318   2.155 -0.4093 -1.1972  0.5256
10378TIP3   OH252548   0.717   0.287   5.735 -0.9133 -0.5326  0.2454
10378TIP3    H152549   0.703   0.192   5.728  0.0000 -0.5525 -2.0072
10378TIP3    H252550   0.804   0.295   5.775 -0.7778 -0.6639 -0.0182
10379TIP3   OH252551   3.248   0.103  16.154  0.5258 -0.4347 -0.1034
10379TIP3    H152552   3.307   0.069  16.086 -0.7324  0.4056 -1.6744
10379TIP3    H252553   3.163   0.066  16.132 -0.2058  1.0633  0.1026
10380TIP3   OH252554   5.516   0.202   2.793  0.0535 -0.5370  0.4671
10380TIP3    H152555   5.467   0.195   2.711  0.1175  2.3965  0.0935
10380TIP3    H252556   5.451   0.195   2.862 -0.7276  1.7040  0.0114
10381TIP3   OH252557   5.471   4.466  11.611  0.3748  0.0701 -0.3024
10381TIP3    H152558   5.501   4.516  11.687 -0.2581  0.6443 -0.4168
10381TIP3    H252559   5.543   4.406  11.592  0.6200  0.0538  0.6279
10382TIP3   OH252560   6.610   6.229   5.963  0.0594 -0.2717  0.1653
10382TIP3    H152561   6.621   6.312   5.917 -0.8007  0.3111  0.9768
10382TIP3    H252562   6.530   6.241   6.015 -0.3814 -1.7938 -0.1097
10383TIP3   OH252563   6.421   2.395   3.695 -0.1253  0.4662  0.2345
10383TIP3    H152564   6.433   2.327   3.628 -2.7644  1.9483 -1.9503
10383TIP3    H252565   6.416   2.346   3.777  1.1627 -1.6473 -0.8482
10384TIP3   OH252566   6.585   3.220   4.931 -0.2264 -0.2869  0.2645
10384TIP3    H152567   6.527   3.236   5.006  0.2857 -1.4583  0.9304
10384TIP3    H252568   6.621   3.133   4.947  1.6775  0.3909 -0.1598
10385TIP3   OH252569   2.067   0.339   2.471 -0.0596 -0.1074  0.6145
10385TIP3    H152570   2.003   0.324   2.401 -1.3743  1.2636  1.4383
10385TIP3    H252571   2.024   0.305   2.550  1.3114 -1.4417  0.8113
10386TIP3   OH252572   2.196   5.740  12.468  0.5582  0.2289  0.0647
10386TIP3    H152573   2.206   5.690  12.387  1.0776 -2.2439  1.5535
10386TIP3    H252574   2.285   5.752  12.501  0.3715  1.3968  0.2077
10387TIP3   OH252575   6.536   4.046   1.918 -0.0504 -0.0605 -0.1066
10387TIP3    H152576   6.516   4.133   1.882  0.0012  0.2299  0.5496
10387TIP3    H252577   6.588   4.064   1.996  1.6073 -0.7536 -1.0046
10388TIP3   OH252578   1.535   1.031  11.572  0.1085  0.3385 -0.5413
10388TIP3    H152579   1.476   0.957  11.584  0.9092 -0.0727  0.9808
10388TIP3    H252580   1.564   1.023  11.481 -1.7870  0.2991 -1.2058
10389TIP3   OH252581   3.528   0.987  15.034 -0.6835 -0.7212  0.8678
10389TIP3    H152582   3.492   0.900  15.019  0.7147 -0.8792 -2.3443
10389TIP3    H252583   3.468   1.046  14.987  0.8764 -0.5637 -1.0679
10390TIP3   OH252584   5.825   4.975  12.504  0.5977 -0.2370  0.1291
10390TIP3    H152585   5.774   4.933  12.435  1.9815  0.7899 -1.6044
10390TIP3    H252586   5.845   4.905  12.566  1.9475 -1.9707 -2.1206
10391TIP3   OH252587   1.170   0.369  11.426 -0.2894  0.4022 -0.4677
10391TIP3    H152588   1.137   0.351  11.338 -0.4053 -0.3908 -0.2717
10391TIP3    H252589   1.241   0.431  11.413  0.2854 -0.3936 -1.2101
10392TIP3   OH252590   1.316   6.379   5.203 -0.4177  0.2102 -0.8196
10392TIP3    H152591   1.288   6.291   5.230  1.1278 -0.8462 -2.4316
10392TIP3    H252592   1.271   6.438   5.263  1.9916 -1.8204  3.3744
10393TIP3   OH252593   4.347   3.940   0.890 -0.8646  0.3019  0.3829
10393TIP3    H152594   4.372   4.007   0.826 -1.5432  0.2641  0.0672
10393TIP3    H252595   4.401   3.864   0.869 -1.5495  0.0618 -0.5891
10394TIP3   OH252596   1.049   4.699  13.140  1.0245  0.2315  0.6844
10394TIP3    H152597   1.018   4.614  13.168  0.0164  1.1205  2.4257
10394TIP3    H252598   1.122   4.719  13.198  0.0849  1.3180  1.5283
10395TIP3   OH252599   3.937   4.271   2.344  0.4661 -0.3000 -0.2402
10395TIP3    H152600   3.954   4.181   2.314  0.1949 -0.8931  1.2859
10395TIP3    H252601   3.884   4.260   2.423 -0.9063  1.2620 -0.8693
10396TIP3   OH252602   5.902   2.936   3.098  0.2842  0.1614  0.1328
10396TIP3    H152603   5.936   3.023   3.081  0.3170  0.5365  1.8837
10396TIP3    H252604   5.951   2.879   3.038 -0.4981  1.4287 -1.7998
10397TIP3   OH252605   4.441   4.112   5.711 -0.1629  0.4167  0.3620
10397TIP3    H152606   4.503   4.162   5.657 -0.4669  0.7109  0.2806
10397TIP3    H252607   4.472   4.021   5.705 -0.6346  0.3225 -0.9407
10398TIP3   OH252608   2.855   4.544  16.291  0.0753  0.8064  0.6020
10398TIP3    H152609   2.814   4.624  16.256  1.4613  2.0526  1.7072
10398TIP3    H252610   2.813   4.531  16.376 -0.8694 -0.2758  0.0055
10399TIP3   OH252611   2.552   2.049  10.977  0.2145 -0.0486  0.2430
10399TIP3    H152612   2.633   2.029  10.930 -1.0316  1.6529 -2.9585
10399TIP3    H252613   2.494   1.975  10.957  0.6660 -0.9431  1.9945
10400TIP3   OH252614   5.117   2.298  16.515  0.1334  0.3881 -0.4005
10400TIP3    H152615   5.090   2.207  16.504 -0.1362  0.6161 -1.7721
10400TIP3    H252616   5.037   2.349  16.502 -0.4954  0.7620  3.5935
10401TIP3   OH252617   2.504   1.727   3.156  0.3553 -0.2699 -0.0738
10401TIP3    H152618   2.425   1.739   3.102  0.6219 -1.9766 -0.9123
10401TIP3    H252619   2.477   1.667   3.225  0.1700  1.4739  1.4411
10402TIP3   OH252620   2.027   5.996  11.074 -0.4288 -0.3001 -0.2647
10402TIP3    H152621   2.021   5.908  11.038 -0.2672 -0.4375  0.0343
10402TIP3    H252622   1.945   6.009  11.122 -0.7120 -0.0570 -0.8097
10403TIP3   OH252623   4.747   3.378  15.295  0.1640 -0.2750  0.1290
10403TIP3    H152624   4.700   3.453  15.332 -0.8471 -1.1767  0.7109
10403TIP3    H252625   4.833   3.382  15.336 -0.6040 -0.6802  1.8626
10404TIP3   OH252626   1.643   0.278  15.308 -0.5319 -0.1414  0.5081
10404TIP3    H152627   1.649   0.337  15.233 -0.7425 -0.3621  0.3180
10404TIP3    H252628   1.731   0.281  15.348 -0.5477  0.3210  0.5185
10405TIP3   OH252629   4.988   3.694  16.118  0.0069 -0.0264  0.6230
10405TIP3    H152630   4.913   3.681  16.176 -0.3938 -0.2479  0.0646
10405TIP3    H252631   4.949   3.707  16.032  0.6266 -0.6663  0.2352
10406TIP3   OH252632   1.709   3.683   2.509 -0.8995 -0.0102 -0.0095
10406TIP3    H152633   1.689   3.637   2.591 -2.2623  1.2761  0.4427
10406TIP3    H252634   1.688   3.774   2.528  2.1113  0.9464 -0.7346
10407TIP3   OH252635   1.064   1.419  14.097 -0.4914 -0.1944  0.9425
10407TIP3    H152636   0.983   1.427  14.046 -0.0438 -0.3511  0.2005
10407TIP3    H252637   1.090   1.328  14.088  0.7648  0.2550 -0.3863
10408TIP3   OH252638   2.439   5.428  10.418  0.3242  0.3192 -0.4550
10408TIP3    H152639   2.506   5.497  10.422  0.5661  0.0452  1.9349
10408TIP3    H252640   2.362   5.471  10.380  0.5823  1.8596  0.6606
10409TIP3   OH252641   0.621   3.132  13.823 -0.2826  0.4048 -0.4381
10409TIP3    H152642   0.614   3.078  13.902 -0.0580  0.6131 -0.2752
10409TIP3    H252643   0.697   3.189  13.839  1.5270 -1.4172 -1.9210
10410TIP3   OH252644   0.344   2.795  14.425  0.1555  0.4247  0.1874
10410TIP3    H152645   0.398   2.801  14.346  0.2875 -0.9427  0.1577
10410TIP3    H252646   0.254   2.793  14.393  0.2399 -1.0428 -0.0041
10411TIP3   OH252647   1.098   6.421   0.687  0.2420  0.1948  0.5370
10411TIP3    H152648   1.004   6.435   0.701 -0.0121 -2.3494  2.1633
10411TIP3    H252649   1.104   6.390   0.596 -0.3277  1.2586  0.1141
10412TIP3   OH252650   4.356   1.302  17.189 -0.0951  0.4384 -0.0671
10412TIP3    H152651   4.323   1.383  17.226  0.4923  0.8233 -0.3754
10412TIP3    H252652   4.293   1.235  17.217  0.0941  0.7906  1.2511
10413TIP3   OH252653   4.547   0.001  14.809 -0.0314  0.3937  0.0695
10413TIP3    H152654   4.578   0.083  14.771  0.2054 -0.4551 -1.6264
10413TIP3    H252655   4.487  -0.035  14.744  0.1819 -0.9794  0.6032
10414TIP3   OH252656   1.176   4.339  10.705 -0.4756 -0.2096 -0.5010
10414TIP3    H152657   1.094   4.382  10.729 -0.8245 -1.5896  0.9989
10414TIP3    H252658   1.169   4.252  10.745  2.0312 -0.1063  0.3052
10415TIP3   OH252659   1.623   1.840   3.053  0.4811  0.2748  0.0921
10415TIP3    H152660   1.616   1.857   3.146  0.3759  2.5969 -0.2737
10415TIP3    H252661   1.599   1.923   3.011 -1.3949 -1.2207 -2.0737
10416TIP3   OH252662   4.765   4.214  15.697 -0.5816  0.8190 -0.1927
10416TIP3    H152663   4.672   4.193  15.693 -0.0729 -1.6205 -0.6508
10416TIP3    H252664   4.772   4.274  15.772 -2.6425  2.0938 -0.9183
10417TIP3   OH252665   2.157   1.917  13.864 -0.3816 -0.3890 -0.0342
10417TIP3    H152666   2.233   1.870  13.898 -0.3543 -0.1802  0.1995
10417TIP3    H252667   2.086   1.896  13.925 -0.0291  0.9760  0.8856
10418TIP3   OH252668   6.607   0.930  13.690 -0.2864 -0.2567  0.0562
10418TIP3    H152669   6.651   0.852  13.656  0.3310 -0.4965  1.3724
10418TIP3    H252670   6.536   0.896  13.744  0.2535  0.0765  0.9871
10419TIP3   OH252671   2.019   6.367  15.409 -0.0103  0.4865 -0.2085
10419TIP3    H152672   2.034   6.295  15.470 -1.7130 -0.7916 -1.1937
10419TIP3    H252673   2.104   6.409  15.399  0.8706 -0.9392  0.9713
10420TIP3   OH252674   1.313   5.701  15.759 -0.1736  0.0589  0.3519
10420TIP3    H152675   1.359   5.618  15.749 -0.0485  0.2657 -0.9947
10420TIP3    H252676   1.224   5.682  15.729 -0.3004  0.2727  0.5929
10421TIP3   OH252677   4.084   1.348   1.776  0.1845  0.1850 -0.0375
10421TIP3    H152678   4.070   1.419   1.714  0.6981 -1.1683 -1.7853
10421TIP3    H252679   4.179   1.343   1.788  0.0965  0.4094  0.8611
10422TIP3   OH252680   0.628   2.907  17.357  0.2468 -0.2997 -0.3788
10422TIP3    H152681   0.660   2.996  17.371  1.9971 -1.0134  0.5470
10422TIP3    H252682   0.533   2.917  17.346  0.4579  1.7059 -0.7982
10423TIP3   OH252683   2.324   6.084  17.125  0.1924  0.1532  0.1755
10423TIP3    H152684   2.390   6.020  17.152  1.1664  0.6556 -0.9154
10423TIP3    H252685   2.373   6.147  17.072 -0.2582  2.9586  2.7814
10424TIP3   OH252686   1.001   0.632   5.536  0.1668  0.4760  0.1436
10424TIP3    H152687   0.957   0.701   5.585 -0.6104 -0.9939  1.6106
10424TIP3    H252688   1.066   0.598   5.597 -1.0448 -1.6138  0.3631
10425TIP3   OH252689   2.026   0.537   1.095 -0.1418  0.1095 -0.1592
10425TIP3    H152690   2.070   0.515   1.013 -0.4342 -0.9969 -0.0400
10425TIP3    H252691   2.089   0.512   1.163 -0.0891  0.5737 -0.0366
10426TIP3   OH252692   0.100   0.817  17.361  0.1805  0.3155 -0.7632
10426TIP3    H152693   0.180   0.812  17.310 -0.1193 -0.6844 -1.1576
10426TIP3    H252694   0.128   0.807  17.452  0.4235 -1.0197 -0.9670
10427TIP3   OH252695   1.154   5.571   1.536 -0.2156 -0.0228 -0.2201
10427TIP3    H152696   1.118   5.484   1.516 -0.1705 -0.2863  0.7735
10427TIP3    H252697   1.078   5.625   1.557 -0.3186  0.4233 -1.6258
10428TIP3   OH252698   3.370   2.744   6.879 -0.3175 -0.8943  0.1136
10428TIP3    H152699   3.449   2.692   6.891  0.6890  0.3706 -0.7516
10428TIP3    H252700   3.358   2.748   6.784 -1.3262 -0.9375  0.2322
10429TIP3   OH252701   1.472   1.393  12.363 -0.2931 -0.2666  0.0835
10429TIP3    H152702   1.404   1.403  12.430 -1.2726  0.0476 -0.9388
10429TIP3    H252703   1.504   1.482  12.348 -1.7376  0.0239 -1.5359
10430TIP3   OH252704   4.596   3.121  11.971  0.4394 -0.0039  0.0723
10430TIP3    H152705   4.560   3.126  11.882 -0.8389  0.1143  0.5752
10430TIP3    H252706   4.660   3.050  11.967 -1.2959 -1.6162 -0.3937
10431TIP3   OH252707   0.972   5.542   2.699 -0.4211 -0.2066  0.2372
10431TIP3    H152708   1.064   5.567   2.707 -0.5133 -0.0351  0.7904
10431TIP3    H252709   0.941   5.588   2.621  0.3177 -1.3559 -0.7795
10432TIP3   OH252710   2.111   3.869   5.076  0.3668 -0.4484  0.3875
10432TIP3    H152711   2.186   3.915   5.113  1.1598 -1.8755  0.6514
10432TIP3    H252712   2.103   3.789   5.129 -2.0320  0.1535  1.0696
10433TIP3   OH252713   1.423   1.090   1.620  0.8449  0.2326  0.1649
10433TIP3    H152714   1.420   1.132   1.534  1.0063  0.7449  0.4025
10433TIP3    H252715   1.354   1.133   1.670 -0.0131 -0.8507 -0.0420
10434TIP3   OH252716   4.218   3.887   0.180  0.4477 -0.0661 -0.3567
10434TIP3    H152717   4.138   3.938   0.172  0.8103  0.6367  0.4242
10434TIP3    H252718   4.194   3.812   0.233  0.4708  0.5176  0.4897
10435TIP3   OH252719   5.749   3.037   0.838  0.8283 -0.0680 -0.0617
10435TIP3    H152720   5.808   3.038   0.763  1.7914 -3.2904  0.4903
10435TIP3    H252721   5.778   2.962   0.891 -2.8022 -0.9664  1.0089
10436TIP3   OH252722   3.962   2.722  12.430 -0.6131 -0.6112 -0.5964
10436TIP3    H152723   4.051   2.733  12.396 -0.5393 -1.6317 -0.7727
10436TIP3    H252724   3.956   2.629  12.452 -1.5356 -0.4905 -0.2946
10437TIP3   OH252725   1.685   3.193  15.366  0.4054  0.1200 -0.1994
10437TIP3    H152726   1.706   3.138  15.441  2.1010 -1.5916 -1.8063
10437TIP3    H252727   1.750   3.168  15.299 -0.6371  1.9855 -2.0228
10438TIP3   OH252728   4.177   5.667  14.055 -0.3264 -0.3415  0.3775
10438TIP3    H152729   4.268   5.642  14.044 -0.4970 -1.0375  0.4936
10438TIP3    H252730   4.127   5.595  14.017 -0.8278  1.3676 -2.5181
10439TIP3   OH252731   4.442   0.241  15.315 -0.2731 -0.7134  0.3123
10439TIP3    H152732   4.489   0.158  15.307  0.7432 -0.1189 -0.1423
10439TIP3    H252733   4.435   0.257  15.409  0.3123 -0.8906  0.3900
10440TIP3   OH252734   1.890   3.102   1.489 -0.2288 -0.8410 -0.6262
10440TIP3    H152735   1.828   3.148   1.432 -1.7397 -0.7753  0.9992
10440TIP3    H252736   1.835   3.047   1.545  1.1366 -0.4386  1.1988
10441TIP3   OH252737   5.432   4.505   5.072  0.2913 -0.5307 -0.2837
10441TIP3    H152738   5.526   4.503   5.086  0.1147 -0.1766  1.1862
10441TIP3    H252739   5.407   4.596   5.088 -0.4077 -0.7964  0.2072
10442TIP3   OH252740   4.983   6.006  13.228 -0.1249 -0.1723  0.0768
10442TIP3    H152741   5.077   5.994  13.246 -0.2045 -0.4249  0.3449
10442TIP3    H252742   4.980   6.066  13.154  0.2177  0.8095  0.8432
10443TIP3   OH252743   0.424   6.115  11.281  0.3001 -0.4638 -0.4996
10443TIP3    H152744   0.441   6.167  11.202 -2.8042  0.6493 -0.5749
10443TIP3    H252745   0.348   6.157  11.321  0.3714 -2.3858  1.8854
10444TIP3   OH252746   4.872   1.168   5.019  0.1485 -0.9874  0.1757
10444TIP3    H152747   4.817   1.122   5.083 -1.6366  0.7912  0.0279
10444TIP3    H252748   4.936   1.103   4.991 -1.7535 -3.1311  0.5203
10445TIP3   OH252749   5.028   5.212   4.617  0.5435 -0.1450  0.3127
10445TIP3    H152750   5.078   5.239   4.540  1.0039 -1.9787 -0.0663
10445TIP3    H252751   4.939   5.244   4.601  0.3133 -1.5798 -1.6242
10446TIP3   OH252752   1.668   4.599  12.596 -0.2326  0.0422 -0.1177
10446TIP3    H152753   1.646   4.523  12.543  0.1892 -0.0943 -0.1033
10446TIP3    H252754   1.754   4.578  12.633 -0.1608  0.4774 -0.0297
10447TIP3   OH252755   4.434   4.910   1.789 -1.5355 -0.3335 -0.5751
10447TIP3    H152756   4.441   4.995   1.832 -1.6410 -0.5889 -0.0425
10447TIP3    H252757   4.341   4.896   1.776 -1.4604  0.1558 -1.7472
10448TIP3   OH252758   0.834   0.256  12.939  1.0443  0.3212  0.3128
10448TIP3    H152759   0.855   0.188  13.002  0.1965 -0.7226 -0.4848
10448TIP3    H252760   0.740   0.267  12.946  1.0325  0.6672 -0.2925
10449TIP3   OH252761   1.145   2.750  15.326 -0.8854 -0.3757  0.6585
10449TIP3    H152762   1.161   2.812  15.255  1.2958 -0.9046  0.6291
10449TIP3    H252763   1.093   2.800  15.390  0.3755  1.3452  0.4079
10450TIP3   OH252764   4.149   0.598   5.442  0.9199  0.5954  0.1979
10450TIP3    H152765   4.221   0.577   5.502  0.3911 -1.5553  0.1464
10450TIP3    H252766   4.118   0.513   5.410 -1.4779  1.4525  0.0177
10451TIP3   OH252767   4.788   3.806  14.264 -0.3964  0.2850 -0.1939
10451TIP3    H152768   4.733   3.868  14.311  1.1439  1.3453  0.2803
10451TIP3    H252769   4.758   3.720  14.293 -0.4281  0.8843  1.6387
10452TIP3   OH252770   2.754   2.671   0.277 -0.1143 -0.5123  0.3256
10452TIP3    H152771   2.727   2.756   0.241 -0.5990 -0.5418  0.6081
10452TIP3    H252772   2.831   2.691   0.330 -0.9923 -0.0201  1.4573
10453TIP3   OH252773   2.683   2.355  15.018  0.2307  0.1478  0.0475
10453TIP3    H152774   2.711   2.438  15.056  0.0509  0.8586 -1.3149
10453TIP3    H252775   2.711   2.359  14.927 -2.3006 -0.0569 -0.7982
10454TIP3   OH252776   3.149   3.939   1.849 -0.1608 -0.1240 -0.4745
10454TIP3    H152777   3.076   3.974   1.900  0.5724  1.2092 -0.2913
10454TIP3    H252778   3.226   3.984   1.884  0.9232 -2.2790  0.1020
10455TIP3   OH252779   1.677   3.647   4.045  0.7103  0.7432 -0.0360
10455TIP3    H152780   1.704   3.733   4.076  0.5022  0.4067  1.1020
10455TIP3    H252781   1.655   3.598   4.124 -0.0177 -0.0758 -0.7237
10456TIP3   OH252782   5.451   5.729   3.181 -0.1273  1.0067 -0.2342
10456TIP3    H152783   5.451   5.701   3.089 -0.6017 -0.7688  0.2758
10456TIP3    H252784   5.543   5.749   3.199  0.1958 -0.0121 -0.7002
10457TIP3   OH252785   2.578   0.046   0.933  0.4515 -0.0177  0.0653
10457TIP3    H152786   2.601  -0.040   0.967 -1.4322  0.3903  2.6234
10457TIP3    H252787   2.626   0.108   0.988 -1.7866  0.6401  1.3894
10458TIP3   OH252788   2.658   3.503   4.284 -0.4846  0.2032 -0.5233
10458TIP3    H152789   2.651   3.445   4.360  0.4625  1.9430  0.9657
10458TIP3    H252790   2.671   3.443   4.210  0.5860 -1.4949  0.9450
10459TIP3   OH252791   1.793   4.287  15.103 -0.4566  0.3247 -0.1716
10459TIP3    H152792   1.758   4.235  15.031 -2.0315  2.0936 -0.7823
10459TIP3    H252793   1.857   4.345  15.061 -1.4316  1.4099 -0.2018
10460TIP3   OH252794   5.137   6.641   1.701 -0.3775  0.1852  0.0473
10460TIP3    H152795   5.134   6.575   1.632 -1.5913  1.4233 -1.1404
10460TIP3    H252796   5.228   6.672   1.700  0.3756 -1.8336  1.0412
10461TIP3   OH252797   0.285   3.480   4.169 -0.1587 -0.2533 -0.6037
10461TIP3    H152798   0.326   3.499   4.085 -1.1170  0.6138 -0.8956
10461TIP3    H252799   0.358   3.466   4.229  0.5898  1.4220 -1.0663
10462TIP3   OH252800   0.389   5.989  15.524 -0.2976 -0.2784 -0.3317
10462TIP3    H152801   0.298   5.969  15.545 -0.3833  1.6808  1.4727
10462TIP3    H252802   0.394   5.982  15.429 -2.1298 -1.0974 -0.4117
10463TIP3   OH252803   3.349   5.524   2.003  0.2306 -0.3902  0.2020
10463TIP3    H152804   3.407   5.532   2.079  0.9887 -2.5600 -0.0683
10463TIP3    H252805   3.407   5.534   1.928 -0.1090 -0.5252 -0.0799
10464TIP3   OH252806   3.438   2.283   3.520 -0.3327 -0.5931  0.5633
10464TIP3    H152807   3.490   2.350   3.565 -1.5392 -0.1077  1.2702
10464TIP3    H252808   3.441   2.207   3.579  0.4779 -0.9631  0.0738
10465TIP3   OH252809   5.876   3.414  15.103  1.0480  0.3497 -0.0937
10465TIP3    H152810   5.910   3.503  15.113 -0.0533  0.7936 -0.1939
10465TIP3    H252811   5.818   3.402  15.178  1.3453 -0.3728  0.0312
10466TIP3   OH252812   3.686   6.152  11.132 -0.5120 -0.3118 -0.3440
10466TIP3    H152813   3.744   6.191  11.066 -0.1540  0.0145  0.1587
10466TIP3    H252814   3.598   6.179  11.105 -0.2191  1.5515  0.4377
10467TIP3   OH252815   2.712   2.404   4.145 -0.0648  0.1433 -0.3385
10467TIP3    H152816   2.751   2.337   4.090  1.7448  1.4892 -0.8231
10467TIP3    H252817   2.666   2.462   4.084 -1.8270 -0.7295  0.0985
10468TIP3   OH252818   6.092   1.141  13.142 -0.2031 -0.4379 -0.3874
10468TIP3    H152819   6.170   1.161  13.193  1.2508 -1.0504 -2.2850
10468TIP3    H252820   6.123   1.087  13.070 -2.6697 -2.1830 -0.2516
10469TIP3   OH252821   4.409   3.976  10.779 -0.4288 -0.4290 -0.6417
10469TIP3    H152822   4.492   3.936  10.803  0.6401  0.9678 -1.7992
10469TIP3    H252823   4.344   3.906  10.787  0.7647 -1.4354  0.7048
10470TIP3   OH252824   4.664   3.257   3.494 -0.0944 -0.4441 -0.2879
10470TIP3    H152825   4.750   3.298   3.484 -0.2632  0.5279  1.7903
10470TIP3    H252826   4.617   3.314   3.554 -2.0079 -1.2832 -0.9032
10471TIP3   OH252827   3.062   1.897  15.234  0.1557 -0.3682  0.2614
10471TIP3    H152828   3.039   1.969  15.293  1.3881 -1.2677  1.9273
10471TIP3    H252829   3.041   1.929  15.147 -1.4174  1.1520  1.1541
10472TIP3   OH252830   2.040   1.392   5.020 -0.3695  0.0698 -0.0564
10472TIP3    H152831   2.017   1.316   5.073  1.5452  0.1088  0.9316
10472TIP3    H252832   2.076   1.355   4.939  0.2704 -0.0827  0.2927
10473TIP3   OH252833   1.016   0.309   1.894 -0.0844 -0.3462 -0.3046
10473TIP3    H152834   0.997   0.216   1.881 -1.8265 -0.1603  0.4988
10473TIP3    H252835   0.984   0.327   1.983 -0.0289  1.0754 -0.5472
10474TIP3   OH252836   2.047   2.453  16.974  0.4656 -0.1030 -0.2251
10474TIP3    H152837   2.097   2.417  17.048  1.1027  0.1314 -0.5299
10474TIP3    H252838   2.043   2.547  16.992  0.6165 -0.0478 -0.4816
10475TIP3   OH252839   2.140   2.247  14.369 -0.2973  0.0780 -0.0093
10475TIP3    H152840   2.217   2.302  14.380  1.3656 -2.0348 -0.5419
10475TIP3    H252841   2.131   2.237  14.274 -0.5237 -0.6436  0.0855
10476TIP3   OH252842   1.344   1.294   4.402 -0.0433 -0.6983  0.4193
10476TIP3    H152843   1.418   1.233   4.396 -0.1515 -0.9690  1.5965
10476TIP3    H252844   1.267   1.237   4.409 -0.2320 -0.4287  0.5732
10477TIP3   OH252845   1.309   4.015   0.339  0.2468  0.0286 -0.1096
10477TIP3    H152846   1.293   4.051   0.426  1.4580  0.4713 -0.0473
10477TIP3    H252847   1.254   4.068   0.280 -0.8146 -0.4766  0.4006
10478TIP3   OH252848   3.317   5.110  13.927 -0.5734 -0.3071 -0.1556
10478TIP3    H152849   3.371   5.034  13.948 -1.4023 -0.8853 -0.0894
10478TIP3    H252850   3.237   5.098  13.977 -1.3806 -0.2211 -1.3823
10479TIP3   OH252851   4.653   1.327  17.164 -0.6037  0.1981  0.0696
10479TIP3    H152852   4.561   1.299  17.163 -0.3468 -0.6797  0.0115
10479TIP3    H252853   4.668   1.360  17.075 -0.7667 -0.0120 -0.0392
10480TIP3   OH252854   5.557   0.735   0.636  0.5889  0.2176  0.0179
10480TIP3    H152855   5.468   0.708   0.615  1.7327 -1.6593 -3.0887
10480TIP3    H252856   5.546   0.802   0.703 -3.1524  0.3467 -0.4893
10481TIP3   OH252857   6.231   2.709  11.830  0.4978  0.9210  0.4387
10481TIP3    H152858   6.272   2.624  11.811  0.4177  1.1389 -0.7281
10481TIP3    H252859   6.262   2.767  11.762 -0.9312  1.3534  0.1142
10482TIP3   OH252860   0.076   1.624   3.849 -0.0492 -0.5921 -0.2392
10482TIP3    H152861   0.022   1.545   3.850 -1.3962  0.2861  1.3305
10482TIP3    H252862   0.105   1.635   3.940  0.2283  0.6368 -0.4583
10483TIP3   OH252863   1.981   1.495  11.206  0.5177 -0.0937  0.2012
10483TIP3    H152864   1.943   1.565  11.259 -0.6698  0.6385 -1.5305
10483TIP3    H252865   2.012   1.538  11.127 -1.1014 -1.5839 -1.3304
10484TIP3   OH252866   1.772   2.176  13.728  0.2019 -0.3203  0.1240
10484TIP3    H152867   1.685   2.204  13.698  0.4925  1.0461  0.4972
10484TIP3    H252868   1.759   2.151  13.820 -0.3287 -2.8076 -0.5631
10485TIP3   OH252869   2.169   3.505   5.176 -0.0434 -0.2923  0.2099
10485TIP3    H152870   2.111   3.565   5.222 -2.1058 -0.3106 -2.1521
10485TIP3    H252871   2.124   3.486   5.093  1.7780 -2.9901 -0.3087
10486TIP3   OH252872   0.396   3.451  13.854  0.1363 -0.4283  0.0562
10486TIP3    H152873   0.455   3.389  13.811  0.2039  0.1951 -0.7716
10486TIP3    H252874   0.333   3.395  13.900 -0.2267 -1.1466 -1.2423
10487TIP3   OH252875   0.796   2.721  15.270 -0.5230  0.6586  0.0364
10487TIP3    H152876   0.817   2.678  15.187  0.4016  0.7313  0.2214
10487TIP3    H252877   0.881   2.742  15.309 -0.7346 -2.3993  2.6264
10488TIP3   OH252878   1.491   5.022   4.205 -0.2770 -0.5145 -0.2454
10488TIP3    H152879   1.548   4.947   4.226  0.1388 -0.2487 -0.4209
10488TIP3    H252880   1.404   4.993   4.232  0.1164 -0.4704  1.1916
10489TIP3   OH252881   6.241   4.477   2.943 -0.1430 -0.8326 -0.8064
10489TIP3    H152882   6.166   4.438   2.899  0.1860 -0.6699 -1.5302
10489TIP3    H252883   6.207   4.510   3.026 -1.0641  0.0487 -1.5126
10490TIP3   OH252884   0.719   5.069   3.296 -0.3779 -0.2735  0.1454
10490TIP3    H152885   0.739   5.082   3.203 -0.4041  1.5965  0.3720
10490TIP3    H252886   0.794   5.019   3.329 -0.2816 -0.8111 -0.8385
10491TIP3   OH252887   0.778   6.337  15.757 -0.1393  0.0992 -0.0289
10491TIP3    H152888   0.845   6.380  15.811 -1.8672  2.2991  0.5248
10491TIP3    H252889   0.808   6.353  15.667  0.1883  0.8839  0.2065
10492TIP3   OH252890   4.416   5.019   3.339  0.6238 -0.2775  0.1431
10492TIP3    H152891   4.449   4.998   3.426  0.4103 -1.3286 -0.0209
10492TIP3    H252892   4.381   4.936   3.305 -1.5710  0.6230  0.0240
10493TIP3   OH252893   1.310   1.240   2.561  0.1968  0.1713 -0.0014
10493TIP3    H152894   1.281   1.320   2.518 -1.3610  0.0938  0.8644
10493TIP3    H252895   1.406   1.250   2.566 -0.0389  2.5707  1.2331
10494TIP3   OH252896   1.305   0.101  14.838  0.5625  0.2401 -0.6379
10494TIP3    H152897   1.320   0.170  14.902  1.0560 -0.6818  0.2536
10494TIP3    H252898   1.256   0.034  14.885 -0.9621  0.4602 -1.8083
10495TIP3   OH252899   1.456   4.476  14.708 -0.0614  0.2121 -0.4498
10495TIP3    H152900   1.542   4.513  14.688 -0.3049  0.2097 -1.5735
10495TIP3    H252901   1.459   4.459  14.802  1.3102 -0.1759 -0.5390
10496TIP3   OH252902   3.944   0.832  13.046 -1.0121  0.0921 -0.1899
10496TIP3    H152903   3.943   0.802  13.137  0.4822  0.7903  0.0855
10496TIP3    H252904   3.852   0.829  13.019 -1.4559 -0.3330  1.2742
10497TIP3   OH252905   4.044   6.654   4.029 -0.0162 -0.7560  0.2868
10497TIP3    H152906   3.970   6.702   4.065 -0.8354 -1.1228 -0.8490
10497TIP3    H252907   4.102   6.722   3.995 -0.3103 -0.5030  0.2889
10498TIP3   OH252908   2.789   3.159   0.495 -0.0760  0.4348 -0.5181
10498TIP3    H152909   2.844   3.169   0.573 -0.7055 -0.5584  0.0757
10498TIP3    H252910   2.812   3.073   0.460 -0.3656  0.5405 -0.9754
10499TIP3   OH252911   5.538   5.551  11.424  0.1544 -0.2320 -0.2316
10499TIP3    H152912   5.450   5.533  11.457  0.4770 -0.7167  0.3816
10499TIP3    H252913   5.526   5.619  11.358 -0.9440 -1.7170 -1.6410
10500TIP3   OH252914   6.213   6.473   2.662 -0.1074  0.1758  0.2149
10500TIP3    H152915   6.138   6.427   2.627  0.1888  0.1241 -0.3558
10500TIP3    H252916   6.197   6.565   2.642 -0.8104  0.3693  1.5578
10501TIP3   OH252917   6.613   5.352  12.094 -0.5697 -0.0374 -0.4315
10501TIP3    H152918   6.662   5.375  12.173 -0.5271  0.9894 -0.7415
10501TIP3    H252919   6.648   5.267  12.069 -0.8524 -0.5606  0.8567
10502TIP3   OH252920   5.374   3.680  16.657 -0.6693 -0.3628  0.0468
10502TIP3    H152921   5.432   3.678  16.580 -0.1219 -1.9054  0.4603
10502TIP3    H252922   5.303   3.739  16.632  0.6042  0.8720 -0.8237
10503TIP3   OH252923   0.235   0.240  15.944 -0.5941  0.9521  1.0410
10503TIP3    H152924   0.310   0.220  16.000  1.2358  2.3717 -0.7478
10503TIP3    H252925   0.261   0.320  15.897 -1.8433 -0.2806 -1.9912
10504TIP3   OH252926   2.554   4.751  17.365  0.2363 -0.4158 -0.3243
10504TIP3    H152927   2.464   4.771  17.341 -0.3549 -0.1511  1.9716
10504TIP3    H252928   2.563   4.657  17.348 -0.5261 -0.4806 -0.3718
10505TIP3   OH252929   6.701   6.425   2.376  0.5408 -0.1512  0.1160
10505TIP3    H152930   6.797   6.420   2.385  0.4534  1.2209  2.6333
10505TIP3    H252931   6.669   6.349   2.425  0.3062  0.4950  0.9727
10506TIP3   OH252932   1.533   3.309   2.980 -0.0431  0.4577  0.1866
10506TIP3    H152933   1.508   3.392   3.019 -0.3244  1.3131 -1.6817
10506TIP3    H252934   1.497   3.242   3.039  1.2688  1.5935  2.3988
10507TIP3   OH252935   0.125   1.012  13.844  0.2881  0.1198 -0.5287
10507TIP3    H152936   0.053   0.990  13.785  0.0137 -0.5937  0.0654
10507TIP3    H252937   0.166   1.089  13.803 -0.6842  0.4261 -0.9690
10508TIP3   OH252938   0.680   1.740   4.260 -0.3067 -0.6126 -0.0087
10508TIP3    H152939   0.625   1.667   4.233  1.0914 -1.4407 -0.7768
10508TIP3    H252940   0.682   1.735   4.356 -2.1662 -0.0682  0.0850
10509TIP3   OH252941   5.625   4.558  15.440  0.2923 -0.0958 -0.4094
10509TIP3    H152942   5.535   4.528  15.439  0.5644 -0.9856  0.4195
10509TIP3    H252943   5.663   4.517  15.518  1.2867  0.6245 -0.4981
10510TIP3   OH252944   0.407   5.582   4.447 -0.1093  0.1938 -0.3956
10510TIP3    H152945   0.426   5.491   4.423 -0.4857  0.0980 -0.3371
10510TIP3    H252946   0.381   5.623   4.365  1.0987  0.5285 -0.6286
10511TIP3   OH252947   2.608   1.732  13.083 -0.1803 -0.1605 -0.2649
10511TIP3    H152948   2.524   1.756  13.123 -0.8020 -2.6716  0.0851
10511TIP3    H252949   2.601   1.764  12.993 -0.8594  1.0210  0.1786
10512TIP3   OH252950   0.532   4.727   3.072  0.0798 -0.6457  0.0696
10512TIP3    H152951   0.583   4.691   2.999 -0.7962 -1.8207  0.0181
10512TIP3    H252952   0.597   4.743   3.141  0.9083  0.4244 -0.9182
10513TIP3   OH252953   2.953   4.314   4.083 -0.6368  0.1391  0.1606
10513TIP3    H152954   2.880   4.253   4.092  0.2304 -1.0245 -0.3505
10513TIP3    H252955   2.948   4.369   4.162 -1.4453 -0.6030  0.6480
10514TIP3   OH252956   4.065   2.452  15.456 -0.0592 -0.8462  0.3238
10514TIP3    H152957   4.133   2.415  15.513  1.2678 -1.1568 -1.3463
10514TIP3    H252958   4.106   2.453  15.369 -2.8454 -2.8953 -1.1841
10515TIP3   OH252959   4.639   2.719   1.987  0.1608 -0.3295  0.3574
10515TIP3    H152960   4.644   2.676   2.073  3.9149  0.9317  0.9469
10515TIP3    H252961   4.627   2.647   1.925  0.4537 -1.5938  1.7164
10516TIP3   OH252962   4.037   2.388   3.109  0.3277 -0.0610 -0.1927
10516TIP3    H152963   3.971   2.453   3.084  0.5872  0.8934  1.5057
10516TIP3    H252964   3.987   2.307   3.121 -0.3321  0.3418 -0.1545
10517TIP3   OH252965   4.032   5.254  15.054  0.5817  0.3377 -0.0426
10517TIP3    H152966   3.950   5.263  15.006  0.6282 -2.1310 -0.7339
10517TIP3    H252967   4.005   5.234  15.144  0.1508 -4.0452 -0.9225
10518TIP3   OH252968   4.450   0.130   1.358  0.6336 -0.0053  0.0122
10518TIP3    H152969   4.505   0.207   1.372  0.3172 -0.0389  1.6150
10518TIP3    H252970   4.510   0.063   1.324  1.3165  0.3630  0.4667
10519TIP3   OH252971   6.371   4.562   2.657 -1.0768  0.3764 -0.7986
10519TIP3    H152972   6.383   4.568   2.752 -1.4994  0.7862 -0.7696
10519TIP3    H252973   6.290   4.513   2.645  0.0629 -1.5581 -0.9876
10520TIP3   OH252974   1.338   5.928  14.824  0.2133 -0.3408  0.2645
10520TIP3    H152975   1.282   5.930  14.746  0.5036 -0.7063  0.0447
10520TIP3    H252976   1.426   5.941  14.790  0.3017 -0.1202  0.5757
10521TIP3   OH252977   1.374   1.866   2.524  0.0165 -0.3802 -0.0952
10521TIP3    H152978   1.353   1.799   2.589  0.1355 -0.4121 -0.0895
10521TIP3    H252979   1.468   1.856   2.509 -0.0055 -0.3551 -0.2521
10522TIP3   OH252980   5.494   4.506  14.696  0.2368  0.2546 -0.3800
10522TIP3    H152981   5.476   4.478  14.606  0.3620 -0.0148 -0.3233
10522TIP3    H252982   5.569   4.565  14.688  0.6192 -0.2242 -0.3909
10523TIP3   OH252983   5.470   0.240   0.234 -0.2725  0.2074 -0.0561
10523TIP3    H152984   5.449   0.302   0.303  0.5936  0.9199 -0.4101
10523TIP3    H252985   5.539   0.185   0.271  1.0111  1.3214 -0.7103
10524TIP3   OH252986   2.172   3.619  14.432 -0.1089  0.0788  0.2984
10524TIP3    H152987   2.140   3.672  14.360 -1.2378 -0.7895  0.1425
10524TIP3    H252988   2.100   3.561  14.454  0.5433 -0.3222  1.5094
10525TIP3   OH252989   4.118   5.152  17.355  0.0858 -0.3155 -0.9830
10525TIP3    H152990   4.146   5.191  17.273  0.8322  1.2805 -0.0180
10525TIP3    H252991   4.055   5.085  17.329  2.1693 -1.6672 -3.0224
10526TIP3   OH252992   2.113   3.652   1.062  0.4156  0.6704  0.0014
10526TIP3    H152993   2.135   3.588   1.130 -1.3151  0.9533  0.8889
10526TIP3    H252994   2.020   3.638   1.046  0.1353  2.5866 -0.2063
10527TIP3   OH252995   4.411   6.675  17.385  0.0673 -0.4388 -0.5997
10527TIP3    H152996   4.415   6.766  17.416 -0.0512 -0.5529 -0.2445
10527TIP3    H252997   4.366   6.680  17.301 -2.1279 -0.4474  0.5300
10528TIP3   OH252998   6.335   4.295  16.974 -0.8177  0.4160  0.6448
10528TIP3    H152999   6.337   4.341  17.058 -2.8957  0.0400  0.9545
10528TIP3    H253000   6.317   4.204  16.996 -1.1105  0.2614 -0.1871
10529TIP3   OH253001   4.076   6.375   5.876  0.9403 -0.4416 -0.8033
10529TIP3    H153002   4.150   6.420   5.917 -0.0799  1.2096 -0.6640
10529TIP3    H253003   4.032   6.332   5.950 -0.5151  1.9802 -0.1521
10530TIP3   OH253004   0.866   4.491   2.447  0.5825  0.4336  0.0241
10530TIP3    H153005   0.928   4.504   2.375  0.0220 -0.1853 -0.5970
10530TIP3    H253006   0.893   4.408   2.487  1.2515  1.0711  0.9133
10531TIP3   OH253007   0.874   3.952   1.195  0.0399 -0.3325 -0.4528
10531TIP3    H153008   0.902   3.862   1.213  1.1276  0.4514  2.2679
10531TIP3    H253009   0.792   3.962   1.243  0.1354  0.2202 -0.3919
10532TIP3   OH253010   1.146   3.063  16.254  0.2118  0.1047  0.2533
10532TIP3    H153011   1.147   2.983  16.202 -0.5336  0.4813 -0.3629
10532TIP3    H253012   1.053   3.081  16.269  0.3778  0.6870  0.6475
10533TIP3   OH253013   1.297   0.695   3.500  0.1170 -0.5734 -0.4178
10533TIP3    H153014   1.328   0.634   3.433  0.6586  1.3810 -2.0777
10533TIP3    H253015   1.203   0.681   3.504 -0.0047 -0.3916 -2.0138
10534TIP3   OH253016   6.561   0.709   3.899  0.6103  0.3487  0.3800
10534TIP3    H153017   6.538   0.634   3.954 -0.6196 -0.3767 -1.0888
10534TIP3    H253018   6.558   0.676   3.810 -0.5508  2.2899 -0.3500
10535TIP3   OH253019   1.466   3.406   1.429  0.0286  0.0038 -0.2034
10535TIP3    H153020   1.401   3.415   1.498  0.8925 -0.6439  0.7135
10535TIP3    H253021   1.486   3.496   1.403 -1.6079  0.2012 -0.8896
10536TIP3   OH253022   3.226   0.346  13.193  0.4258  0.3902 -0.1765
10536TIP3    H153023   3.268   0.262  13.206  0.7457  0.5143 -0.3855
10536TIP3    H253024   3.213   0.382  13.281 -1.8070 -0.8765  0.0851
10537TIP3   OH253025   2.675   0.287   5.335  0.0894 -0.1565 -0.0025
10537TIP3    H153026   2.709   0.197   5.332 -0.6273 -0.4439 -3.2482
10537TIP3    H253027   2.675   0.310   5.428 -1.1352 -4.0707  1.1585
10538TIP3   OH253028   0.556   1.608  11.221 -0.2084 -0.2035  0.2476
10538TIP3    H153029   0.584   1.576  11.136  1.4998  1.6107  0.0789
10538TIP3    H253030   0.536   1.528  11.271 -2.7522 -1.2892 -2.2478
10539TIP3   OH253031   0.245   6.689  12.404 -0.0844 -0.0842 -0.0791
10539TIP3    H153032   0.338   6.715  12.407 -0.4104  1.2075 -0.4505
10539TIP3    H253033   0.239   6.632  12.327 -0.0177  1.8023 -1.5772
10540TIP3   OH253034   2.062   3.797  17.585  0.0024  0.4447  0.3845
10540TIP3    H153035   2.133   3.808  17.649  0.0478 -1.2732  0.6625
10540TIP3    H253036   1.983   3.793  17.638 -0.1250  0.6249  0.2077
10541TIP3   OH253037   3.688   4.307   0.068 -0.3160  0.1472  0.6345
10541TIP3    H153038   3.635   4.227   0.070 -0.4363  0.2222  0.4877
10541TIP3    H253039   3.741   4.297  -0.011 -2.2600  1.4326 -0.9272
10542TIP3   OH253040   3.295   2.816   4.049  0.4191 -0.4560 -0.1868
10542TIP3    H153041   3.205   2.822   4.018 -0.0660 -0.7021  1.1229
10542TIP3    H253042   3.309   2.723   4.066  1.7864 -0.8130 -2.7740
10543TIP3   OH253043   5.904   6.508  14.229 -0.2978  0.3135  0.1936
10543TIP3    H153044   5.855   6.588  14.209  1.1733  0.9671 -1.0236
10543TIP3    H253045   5.996   6.535  14.228  0.4790 -1.8773 -3.0881
10544TIP3   OH253046   3.538   2.315  12.850  0.1840 -0.6872 -0.4523
10544TIP3    H153047   3.546   2.284  12.760  1.0101  0.3385 -0.7588
10544TIP3    H253048   3.625   2.350  12.870  0.3358 -1.8531  1.1204
10545TIP3   OH253049   3.724   0.298   5.037 -0.1791 -0.1368 -0.0935
10545TIP3    H153050   3.755   0.380   4.999 -0.3726  0.7189  1.5196
10545TIP3    H253051   3.754   0.231   4.976  1.7631  0.9419 -0.4091
10546TIP3   OH253052   4.563   3.789  13.123  0.1669 -0.4487  0.2141
10546TIP3    H153053   4.657   3.786  13.139  0.1052  1.0660  1.0506
10546TIP3    H253054   4.546   3.715  13.064  1.7777 -1.0684  0.4840
10547TIP3   OH253055   4.578   1.806  17.117  0.0842 -0.3608 -0.0847
10547TIP3    H153056   4.498   1.840  17.156  0.6492  0.4241  0.4297
10547TIP3    H253057   4.549   1.741  17.053 -0.9199 -0.6008  0.6067
10548TIP3   OH253058   5.639   2.594   2.046  0.3149 -0.1576 -0.3696
10548TIP3    H153059   5.558   2.644   2.032  0.4592  0.3536  0.5886
10548TIP3    H253060   5.622   2.509   2.004 -0.0313  0.5785 -1.7772
10549TIP3   OH253061   2.066   4.893   5.571  0.4378 -0.4038  0.2156
10549TIP3    H153062   2.081   4.883   5.477  1.1258 -0.0678  0.2800
10549TIP3    H253063   2.120   4.968   5.596 -0.7437  0.3376  0.6418
10550TIP3   OH253064   4.537   2.137  11.496 -0.2211  0.4532  0.0453
10550TIP3    H153065   4.624   2.103  11.475  0.3763  0.6711  1.9550
10550TIP3    H253066   4.537   2.146  11.591 -2.2637  0.6893  0.0743
10551TIP3   OH253067   0.483   3.798   3.563 -0.3672 -0.4589 -0.3395
10551TIP3    H153068   0.489   3.883   3.518  2.6714  0.1160  0.8967
10551TIP3    H253069   0.428   3.816   3.639  1.1500  0.7790  0.5221
10552TIP3   OH253070   1.426   0.540   2.375  0.2066 -0.0561  0.1369
10552TIP3    H153071   1.392   0.569   2.291 -2.1814 -0.6184  0.8200
10552TIP3    H253072   1.510   0.499   2.355  0.1188  0.6325 -1.8144
10553TIP3   OH253073   5.201   1.988   2.241  0.2496 -0.4319 -0.3013
10553TIP3    H153074   5.130   2.011   2.300  1.5079  0.9396  0.7619
10553TIP3    H253075   5.254   1.925   2.290  1.3829  0.8247  0.1692
10554TIP3   OH253076   1.011   0.188   0.038  0.0222  0.3747  0.7483
10554TIP3    H153077   1.059   0.235  -0.030  0.3090 -0.8738  0.0517
10554TIP3    H253078   1.054   0.213   0.120  2.0978 -0.9282  0.1223
10555TIP3   OH253079   1.731   0.033   3.563  0.1921  0.2260 -0.0285
10555TIP3    H153080   1.743   0.125   3.540  0.5471  0.1864 -0.0007
10555TIP3    H253081   1.774  -0.016   3.494 -0.4337  0.0629 -0.3165
10556TIP3   OH253082   3.309   0.107  13.278  0.1806 -0.0409  0.2873
10556TIP3    H153083   3.339   0.042  13.341  1.2562  0.7945  0.6842
10556TIP3    H253084   3.340   0.076  13.194 -0.2581 -0.5816  0.3223
10557TIP3   OH253085   1.919   4.067  14.371  0.6164 -0.4120 -0.1740
10557TIP3    H153086   1.842   4.104  14.328  0.3188  0.3615  0.9750
10557TIP3    H253087   1.992   4.120  14.339  0.6259 -0.8600 -0.9211
10558TIP3   OH253088   3.983   0.312  17.112 -0.7344 -0.0204 -0.3281
10558TIP3    H153089   3.993   0.251  17.039 -0.0439 -1.7642  1.1488
10558TIP3    H253090   3.888   0.322  17.122 -0.8482  1.1191 -2.0982
10559TIP3   OH253091   2.866   4.176  14.951 -0.4614 -0.4403  0.6450
10559TIP3    H153092   2.781   4.198  14.914 -0.9771  2.0891  3.0211
10559TIP3    H253093   2.929   4.218  14.892 -1.2047  2.3303  1.6550
10560TIP3   OH253094   3.557   5.620   3.207 -0.7350  0.2245  0.2323
10560TIP3    H153095   3.531   5.688   3.145 -0.7225  0.8087  0.8533
10560TIP3    H253096   3.622   5.663   3.263  2.1140 -1.3643 -1.6637
10561TIP3   OH253097   5.506   3.409  17.200  0.1276  0.2149  0.1958
10561TIP3    H153098   5.564   3.484  17.186 -0.3295  0.4997 -0.1705
10561TIP3    H253099   5.426   3.431  17.153  0.6697 -1.3291 -1.6009
10562TIP3   OH253100   4.692   3.779  11.193 -0.0594 -0.5189  0.1091
10562TIP3    H153101   4.741   3.779  11.110  1.1538 -2.7617  0.7441
10562TIP3    H253102   4.600   3.783  11.166  0.3426  0.0196 -1.2764
10563TIP3   OH253103   0.792   3.441  16.682 -1.0588 -0.1496  0.5272
10563TIP3    H153104   0.744   3.424  16.601  0.0170 -0.1600 -0.1305
10563TIP3    H253105   0.731   3.490  16.737 -1.9319 -0.4639 -0.1334
10564TIP3   OH253106   2.122   1.401  14.781  0.1864  0.0188 -0.5222
10564TIP3    H153107   2.207   1.423  14.820 -0.9938  1.5622  1.3642
10564TIP3    H253108   2.059   1.457  14.827 -1.6225  0.5936 -3.4137
10565TIP3   OH253109   4.996   3.700   6.875 -0.1289 -0.5094  0.4751
10565TIP3    H153110   5.000   3.619   6.823  0.8556  1.0035 -1.9914
10565TIP3    H253111   4.903   3.723   6.876 -0.4285 -1.6412  1.2406
10566TIP3   OH253112   1.467   2.574   1.763 -0.1253 -0.0530 -0.5042
10566TIP3    H153113   1.423   2.659   1.763  0.7029  0.3873 -0.7519
10566TIP3    H253114   1.485   2.556   1.670 -2.0735 -1.4641 -0.6823
10567TIP3   OH253115   4.160   3.467  11.229 -0.2752  0.8824 -0.3132
10567TIP3    H153116   4.206   3.454  11.146 -1.4225 -0.3962 -0.8036
10567TIP3    H253117   4.077   3.421  11.217 -0.4132  0.5461  1.6084
10568TIP3   OH253118   0.414   6.642   1.925  0.0074  0.0758 -0.7717
10568TIP3    H153119   0.343   6.701   1.950  0.0760 -0.6139  1.2123
10568TIP3    H253120   0.374   6.583   1.861 -0.9967  0.1622 -0.2481
10569TIP3   OH253121   0.521   2.259  14.108  0.3204  0.3776 -0.1039
10569TIP3    H153122   0.443   2.307  14.081 -0.3349  1.3043  2.9914
10569TIP3    H253123   0.582   2.327  14.138  1.7044 -0.4338 -0.9753
10570TIP3   OH253124   4.387   3.847  13.882 -0.3171  0.3636  0.3223
10570TIP3    H153125   4.396   3.939  13.855 -0.3770  0.4712  0.6658
10570TIP3    H253126   4.380   3.799  13.800 -0.7905  0.7219  0.1429
10571TIP3   OH253127   6.444   1.551  12.601 -0.0536  0.2374 -0.2437
10571TIP3    H153128   6.505   1.490  12.557  1.7955  2.4055 -0.8984
10571TIP3    H253129   6.359   1.509  12.593  0.6004 -0.7674 -3.5853
10572TIP3   OH253130   3.339   0.652  13.467  0.4828  0.0592  0.3111
10572TIP3    H153131   3.399   0.648  13.542  2.3278  2.3614 -0.9383
10572TIP3    H253132   3.389   0.618  13.394 -0.6420 -0.3631 -0.2895
10573TIP3   OH253133   0.357   5.920   3.255 -0.4380  0.3047 -0.4984
10573TIP3    H153134   0.265   5.945   3.244 -0.1183  2.1326  0.6249
10573TIP3    H253135   0.388   5.974   3.328  1.1906 -1.2236  0.0183
10574TIP3   OH253136   3.803   1.513  17.208 -0.5840 -0.3577  0.6883
10574TIP3    H153137   3.791   1.430  17.254 -0.7428 -0.0938  1.1310
10574TIP3    H253138   3.893   1.510  17.175 -0.2719 -0.3100  1.5228
10575TIP3   OH253139   2.331   4.706   1.312 -0.4534  0.2199  0.1472
10575TIP3    H153140   2.281   4.634   1.350 -0.8910 -1.6579 -3.4940
10575TIP3    H253141   2.264   4.763   1.274 -0.0060  0.1470 -0.7760
10576TIP3   OH253142   1.095   3.758   2.072  0.2908 -0.3609  0.6659
10576TIP3    H153143   1.117   3.846   2.103 -0.5797  0.4722 -0.9499
10576TIP3    H253144   1.047   3.772   1.990 -1.0944 -2.2809  1.0556
10577TIP3   OH253145   3.460   3.414  16.166 -0.3744  0.3132  0.3142
10577TIP3    H153146   3.464   3.442  16.075  0.4028 -0.4105  0.1065
10577TIP3    H253147   3.464   3.494  16.217  0.7231  0.6456 -0.2700
10578TIP3   OH253148   2.211   1.191   1.037  0.1776 -0.6626 -0.0968
10578TIP3    H153149   2.257   1.194   1.121 -0.0601 -0.2877  0.0237
10578TIP3    H253150   2.201   1.098   1.018  1.0039 -0.7482 -0.1357
10579TIP3   OH253151   0.024   2.654  15.171  0.7469 -0.4850 -0.6207
10579TIP3    H153152  -0.032   2.593  15.218  3.0841 -1.5966  0.9410
10579TIP3    H253153   0.017   2.628  15.079  0.2316 -1.8687 -0.2100
10580TIP3   OH253154   1.333   5.808  12.793 -0.3514 -0.0052 -0.1559
10580TIP3    H153155   1.391   5.819  12.717  0.4496 -2.3017  0.0564
10580TIP3    H253156   1.355   5.722  12.828 -1.6115  0.4483  1.9409
10581TIP3   OH253157   0.738   6.061   0.098  0.2298 -0.4245  0.6821
10581TIP3    H153158   0.719   6.132   0.159 -0.0241 -0.2987  0.4563
10581TIP3    H253159   0.823   6.083   0.061 -0.8692  1.0026 -1.1429
10582TIP3   OH253160   1.817   3.492  10.318 -0.2619  0.1284  0.6879
10582TIP3    H153161   1.733   3.525  10.350 -0.2355  2.4933 -1.4294
10582TIP3    H253162   1.882   3.547  10.360  0.0168  0.4520 -0.1592
10583TIP3   OH253163   2.377   4.608  15.101 -0.1556  0.7570  0.4395
10583TIP3    H153164   2.301   4.652  15.140 -0.2638  0.3122  0.7341
10583TIP3    H253165   2.452   4.646  15.148 -0.2692  0.4016  0.9135
10584TIP3   OH253166   4.646   6.208   3.757  0.5280  0.4128  0.0391
10584TIP3    H153167   4.660   6.200   3.851 -1.9131  0.5190  0.4678
10584TIP3    H253168   4.605   6.125   3.731  0.1382  0.8242 -0.7016
10585TIP3   OH253169   0.412   1.713  12.893 -0.2720  0.0317  0.0797
10585TIP3    H153170   0.380   1.635  12.848 -0.3086  0.0277  0.1117
10585TIP3    H253171   0.333   1.752  12.931 -0.1242 -0.4611  0.9278
10586TIP3   OH253172   6.031   6.518   2.354  0.1123  0.6657 -0.3023
10586TIP3    H153173   6.096   6.473   2.299 -0.2012 -0.0825 -0.0529
10586TIP3    H253174   6.030   6.469   2.436  0.0333  1.3418  0.1075
10587TIP3   OH253175   0.316   3.879   3.777  0.4256  0.1976 -0.3398
10587TIP3    H153176   0.316   3.947   3.845 -0.3249 -0.4450  0.3427
10587TIP3    H253177   0.238   3.826   3.798  1.5924 -1.5252 -0.1660
10588TIP3   OH253178   0.925   1.554   6.188  0.3618  0.3798  0.0478
10588TIP3    H153179   0.842   1.598   6.168 -0.8545 -1.8433 -0.0450
10588TIP3    H253180   0.981   1.576   6.113 -0.3375  1.3978 -0.2040
10589TIP3   OH253181   5.596   4.908   0.806 -1.3937  0.3912 -0.2543
10589TIP3    H153182   5.543   4.933   0.881 -0.1467  0.7581  0.5309
10589TIP3    H253183   5.657   4.981   0.794  0.5190 -1.0212  0.3690
10590TIP3   OH253184   2.277   0.920   1.897 -0.7485 -0.3340 -0.5321
10590TIP3    H153185   2.361   0.904   1.940 -0.8973  1.4919  0.5244
10590TIP3    H253186   2.252   0.835   1.861  0.1081 -1.6523  1.7337
10591TIP3   OH253187   0.388   3.748  11.868 -0.2819  0.1080 -0.1308
10591TIP3    H153188   0.367   3.672  11.813  1.9008 -0.3824 -0.3520
10591TIP3    H253189   0.466   3.722  11.916 -0.8440  1.3749  1.5779
10592TIP3   OH253190   2.904   4.308   0.946 -0.2241 -0.1922  0.0843
10592TIP3    H153191   2.947   4.376   0.895  1.9707 -1.6880 -0.1975
10592TIP3    H253192   2.881   4.351   1.029  0.9036  0.9487 -0.1616
10593TIP3   OH253193   0.484   5.957  12.436  0.1687  0.3510  0.2921
10593TIP3    H153194   0.467   5.989  12.348 -0.3793  0.0698  0.2869
10593TIP3    H253195   0.579   5.948  12.441  0.2009  0.3510 -0.2713
10594TIP3   OH253196   6.413   5.650   4.838 -0.1869 -0.1047 -0.9018
10594TIP3    H153197   6.357   5.725   4.862  2.5767  2.0036 -0.4715
10594TIP3    H253198   6.413   5.650   4.742  1.1017  1.6045 -0.9419
10595TIP3   OH253199   5.398   4.557   0.434 -0.3236  0.4138 -0.3319
10595TIP3    H153200   5.411   4.636   0.486  2.5111  0.2039 -0.5766
10595TIP3    H253201   5.373   4.590   0.347 -1.2485  0.9188  0.1127
10596TIP3   OH253202   3.450   3.090   6.361 -0.2640  0.0512 -0.2349
10596TIP3    H153203   3.498   3.112   6.441 -0.7772  0.3060  0.0072
10596TIP3    H253204   3.388   3.023   6.388 -1.7143  1.4247  0.0242
10597TIP3   OH253205   6.398   6.246  13.127  0.0481  0.3342 -0.0329
10597TIP3    H153206   6.467   6.193  13.087 -0.0404 -0.8966  1.3578
10597TIP3    H253207   6.349   6.282  13.053  0.5856 -0.9241 -1.0340
10598TIP3   OH253208   1.139   4.787  17.053  0.1849  0.2183  0.6932
10598TIP3    H153209   1.229   4.762  17.033  0.1287 -0.8936  1.7514
10598TIP3    H253210   1.147   4.853  17.122  0.2006  0.5572  0.3732
10599TIP3   OH253211   0.894   6.429   0.299 -0.2955 -0.2598  0.0492
10599TIP3    H153212   0.946   6.430   0.219  0.9316 -0.3422  0.8216
10599TIP3    H253213   0.858   6.517   0.306 -2.3017 -0.8606 -1.7522
10600TIP3   OH253214   1.962   5.114   3.078 -0.1324 -0.3681 -0.1977
10600TIP3    H153215   1.873   5.105   3.044 -0.3048  0.8728 -0.1171
10600TIP3    H253216   1.950   5.134   3.171  0.1978  0.5731 -0.3492
10601TIP3   OH253217   6.557   0.076  11.632 -0.2354  0.1606  0.2145
10601TIP3    H153218   6.506  -0.004  11.635 -0.4349  0.3038  1.1665
10601TIP3    H253219   6.640   0.051  11.591 -1.1815  0.0060 -1.6740
10602TIP3   OH253220   2.628   4.383   4.446  0.2782  0.1336 -0.1539
10602TIP3    H153221   2.583   4.467   4.431 -0.6082 -0.5038 -1.2334
10602TIP3    H253222   2.637   4.378   4.541 -2.1419  0.2264  0.1629
10603TIP3   OH253223   4.529   2.386   5.583  0.0795 -0.0546  0.5701
10603TIP3    H153224   4.537   2.481   5.579  1.8001 -0.1790  0.2303
10603TIP3    H253225   4.535   2.366   5.677 -1.5959  0.2367  0.7629
10604TIP3   OH253226   0.943   0.767  13.925 -0.2947 -0.1025 -0.5705
10604TIP3    H153227   0.938   0.769  14.021 -0.2434 -2.0120 -0.4870
10604TIP3    H253228   0.860   0.803  13.896  0.3902  2.2248  0.1150
10605TIP3   OH253229   0.143   1.620   4.915  0.8420  0.2859 -0.2623
10605TIP3    H153230   0.182   1.704   4.890 -1.5817  1.3694 -0.7523
10605TIP3    H253231   0.130   1.574   4.832 -0.3877  0.6693 -0.3017
10606TIP3   OH253232   1.712   5.636  12.255  0.8452 -0.3234  0.8001
10606TIP3    H153233   1.755   5.555  12.227  0.8574 -0.3596  0.9228
10606TIP3    H253234   1.784   5.691  12.287  0.8099 -0.3527  0.9294
10607TIP3   OH253235   4.781   0.889  11.890  0.1927 -0.1675 -0.0256
10607TIP3    H153236   4.834   0.829  11.942 -0.3274 -1.0533 -0.4970
10607TIP3    H253237   4.744   0.835  11.820  0.6376  0.9418 -1.1558
10608TIP3   OH253238   3.455   2.684  16.640 -0.1020  0.0970 -0.1529
10608TIP3    H153239   3.471   2.662  16.548 -0.6949  3.1888 -1.1034
10608TIP3    H253240   3.373   2.639  16.662 -0.8693  0.6921 -1.6925
10609TIP3   OH253241   3.143   5.410   1.095  0.2339 -0.2487 -0.4344
10609TIP3    H153242   3.094   5.468   1.154  0.6622 -0.2738 -0.0500
10609TIP3    H253243   3.195   5.355   1.153 -0.5386 -1.3752 -0.7602
10610TIP3   OH253244   3.108   0.175   1.637  0.3877 -0.5928  0.4001
10610TIP3    H153245   3.196   0.148   1.664  0.5227  0.0924  0.6688
10610TIP3    H253246   3.060   0.093   1.627  1.3450 -1.0387 -0.7994
10611TIP3   OH253247   5.911   3.555  11.789 -0.0913  0.0617 -0.2572
10611TIP3    H153248   5.824   3.582  11.760  1.4687  2.3176 -3.3873
10611TIP3    H253249   5.929   3.609  11.866 -0.9985  0.3889 -0.2680
10612TIP3   OH253250   2.287   5.706   5.255 -0.2958 -0.7656  0.3370
10612TIP3    H153251   2.239   5.779   5.216  0.9213  0.5259  1.1602
10612TIP3    H253252   2.255   5.702   5.345  1.2273  0.2634  0.9660
10613TIP3   OH253253   5.728   5.255  14.536  0.5350  0.0495  0.2367
10613TIP3    H153254   5.712   5.221  14.448  0.8511 -0.0798  0.2270
10613TIP3    H253255   5.644   5.246  14.581 -0.0320  1.4319 -0.4851
10614TIP3   OH253256   3.522   2.741  16.096 -0.0744 -0.2260  0.3650
10614TIP3    H153257   3.567   2.815  16.137 -1.6933 -0.2871  2.4429
10614TIP3    H253258   3.477   2.778  16.021  1.2854  0.3357 -0.1991
10615TIP3   OH253259   4.507   4.208  13.605  0.0200 -0.6048 -0.0233
10615TIP3    H153260   4.493   4.264  13.529 -0.5743 -0.4088  0.2303
10615TIP3    H253261   4.442   4.236  13.669  0.7002 -0.5666  0.6784
10616TIP3   OH253262   3.830   5.930  13.158  0.4142 -0.4469  0.2459
10616TIP3    H153263   3.882   5.962  13.231 -0.7726 -1.2644  1.4922
10616TIP3    H253264   3.740   5.929  13.191 -0.0842 -1.2866 -1.0644
10617TIP3   OH253265   4.502   4.016   4.022 -0.0771 -0.7480  0.1406
10617TIP3    H153266   4.518   4.027   3.928  0.9788 -0.3012  0.3554
10617TIP3    H253267   4.588   4.001   4.059 -0.4767 -0.8145  1.0625
10618TIP3   OH253268   3.291   6.242   6.483 -0.1687 -0.2861 -0.3651
10618TIP3    H153269   3.355   6.172   6.495 -1.4029 -1.2630  0.8868
10618TIP3    H253270   3.332   6.319   6.522 -0.3290 -1.2729  1.9368
10619TIP3   OH253271   4.553   2.739   0.792  0.6127  0.3319 -0.2608
10619TIP3    H153272   4.512   2.770   0.712 -1.2126 -0.8805  0.1292
10619TIP3    H253273   4.626   2.799   0.808 -0.8283  2.4300 -1.1837
10620TIP3   OH253274   6.306   5.796  15.554 -0.0434 -0.1877 -0.6981
10620TIP3    H153275   6.320   5.809  15.648  0.9768  0.0025 -0.8690
10620TIP3    H253276   6.265   5.710  15.548  0.8445 -0.6548 -0.1557
10621TIP3   OH253277   1.179   0.126  16.584  0.4157  0.2443 -0.3444
10621TIP3    H153278   1.214   0.124  16.673  0.1832  0.3605 -0.2498
10621TIP3    H253279   1.207   0.211  16.550 -0.2371  0.5733 -0.0783
10622TIP3   OH253280   1.349   1.940  11.052 -0.1303 -0.2872  0.4184
10622TIP3    H153281   1.365   1.936  10.958  0.5252  1.6062  0.3976
10622TIP3    H253282   1.392   1.862  11.087 -0.9618 -1.3709 -0.9086
10623TIP3   OH253283   0.496   2.985  13.388 -0.6057  0.1237  0.2352
10623TIP3    H153284   0.527   3.065  13.431  1.2431 -0.7880  0.7247
10623TIP3    H253285   0.509   3.001  13.295  0.6720  0.0599  0.3878
10624TIP3   OH253286   1.880   2.264  14.078  0.0448  0.1403  0.4314
10624TIP3    H153287   1.917   2.281  13.991  2.1667  0.2869  1.3093
10624TIP3    H253288   1.883   2.349  14.122  1.0858 -0.3645  1.3815
10625TIP3   OH253289   4.100   5.983  17.582 -0.3113  0.7260 -0.3103
10625TIP3    H153290   4.180   5.933  17.564 -0.3840  0.4643  0.0698
10625TIP3    H253291   4.131   6.063  17.625 -0.3228 -0.0024  1.1409
10626TIP3   OH253292   3.383   1.312  12.688  0.2717 -0.4174  0.2147
10626TIP3    H153293   3.456   1.301  12.749  0.8825 -1.4955 -0.6628
10626TIP3    H253294   3.309   1.268  12.730  0.3396 -0.0665  0.7178
10627TIP3   OH253295   2.934   5.159   2.872  0.3231 -0.1976  0.1845
10627TIP3    H153296   2.889   5.115   2.800 -0.2152  2.1924 -1.0604
10627TIP3    H253297   3.022   5.178   2.838 -0.0765  1.3402 -0.0586
10628TIP3   OH253298   1.640   5.232   6.153  0.4836  0.8869 -0.3824
10628TIP3    H153299   1.732   5.258   6.152  0.8662 -0.1642  1.6420
10628TIP3    H253300   1.626   5.196   6.241 -1.9785  1.3970 -0.4872
10629TIP3   OH253301   2.627   3.279   0.092  0.2948 -0.0538 -0.0225
10629TIP3    H153302   2.650   3.357   0.041 -1.6478  0.7885  0.2777
10629TIP3    H253303   2.645   3.206   0.034  0.9571  0.6983 -0.7928
10630TIP3   OH253304   1.865   1.578   0.787  0.2610  0.3730  0.0187
10630TIP3    H153305   1.924   1.550   0.857  2.8293  1.9611 -1.3641
10630TIP3    H253306   1.900   1.536   0.708 -0.0980  1.7938 -0.9266
10631TIP3   OH253307   3.277   1.060  10.788 -0.5131  0.3955  0.1907
10631TIP3    H153308   3.323   1.090  10.867  0.8254  0.4788 -0.5879
10631TIP3    H253309   3.306   0.970  10.776  1.4538  1.1778 -1.6510
10632TIP3   OH253310   6.437   4.317  14.049 -0.0227 -0.3855 -0.4903
10632TIP3    H153311   6.363   4.310  13.988  1.0936  0.9401 -2.0710
10632TIP3    H253312   6.512   4.338  13.993  1.4646 -1.1339  1.1372
10633TIP3   OH253313   0.765   0.290  15.488  0.4274 -0.0792 -0.2534
10633TIP3    H153314   0.790   0.209  15.445 -0.0882 -0.2896 -0.1679
10633TIP3    H253315   0.831   0.302  15.557 -0.4216 -1.3253  0.8361
10634TIP3   OH253316   0.063   4.788   3.456 -0.0129  0.1543 -0.6101
10634TIP3    H153317   0.085   4.698   3.477 -0.5454 -0.0299 -0.8215
10634TIP3    H253318  -0.002   4.813   3.522  1.7096  1.1228  0.8304
10635TIP3   OH253319   4.429   5.499   1.124 -0.3840 -0.1093  0.6078
10635TIP3    H153320   4.424   5.467   1.214 -3.1875 -1.3069  0.1518
10635TIP3    H253321   4.483   5.578   1.129  1.4600 -1.4017  2.9008
10636TIP3   OH253322   5.339   5.952  12.876  0.4360 -0.4412 -0.0979
10636TIP3    H153323   5.353   5.870  12.924  1.3213 -0.3053 -0.1047
10636TIP3    H253324   5.304   5.925  12.791  1.5693 -0.8851 -0.4401
10637TIP3   OH253325   5.490   5.533   0.182  0.5044  0.3228 -0.9195
10637TIP3    H153326   5.523   5.471   0.246 -1.0086  0.1384 -0.2697
10637TIP3    H253327   5.527   5.617   0.208 -1.5237  0.6180  1.4112
10638TIP3   OH253328   1.479   2.471  12.287  0.3368  0.0989 -0.2402
10638TIP3    H153329   1.574   2.483  12.289  0.3065  0.2957  0.1405
10638TIP3    H253330   1.467   2.377  12.280  0.5719 -0.2068  2.3393
10639TIP3   OH253331   1.276   4.049   4.241  0.1020 -0.2990  0.5994
10639TIP3    H153332   1.229   3.967   4.259  1.4583 -1.1486  0.4124
10639TIP3    H253333   1.332   4.029   4.166  2.2604  0.0267  2.0343
10640TIP3   OH253334   3.851   5.711  11.987  0.1070  0.6678 -0.2699
10640TIP3    H153335   3.924   5.649  11.985 -0.7135 -0.3353  0.1555
10640TIP3    H253336   3.794   5.683  11.915 -0.6924  0.3798  0.4605
10641TIP3   OH253337   1.138   3.413  12.503  0.3792  0.2972  0.7777
10641TIP3    H153338   1.182   3.416  12.588 -1.4196  0.5928  1.7492
10641TIP3    H253339   1.049   3.382  12.523  0.7079 -2.4352 -1.3687
10642TIP3   OH253340   6.553   3.940  14.176 -0.2835  0.0832  0.0725
10642TIP3    H153341   6.502   3.989  14.242 -0.4188  2.9569 -1.9669
10642TIP3    H253342   6.639   3.928  14.217 -0.8640  0.2837  1.4104
10643TIP3   OH253343   3.726   4.770   3.505  0.2641 -0.2785 -0.2910
10643TIP3    H153344   3.691   4.790   3.591 -1.8102 -0.7888 -0.9618
10643TIP3    H253345   3.778   4.691   3.517 -0.5336 -0.7080  0.3795
10644TIP3   OH253346   4.136   5.891  12.357  0.0825  0.0163 -0.2751
10644TIP3    H153347   4.136   5.938  12.440  0.7315 -1.5830  0.6672
10644TIP3    H253348   4.226   5.893  12.327  0.3897 -1.6603  0.4242
10645TIP3   OH253349   2.237   0.384   1.253  0.9537 -0.2734  0.2854
10645TIP3    H153350   2.163   0.330   1.280 -0.0953  0.9217 -0.1048
10645TIP3    H253351   2.280   0.332   1.185 -0.9353 -0.0182 -1.1852
10646TIP3   OH253352   0.312   2.160   1.743 -0.3763  0.7755 -0.6296
10646TIP3    H153353   0.233   2.198   1.782 -0.1819  1.2291 -0.6622
10646TIP3    H253354   0.287   2.072   1.717 -0.3966  0.2719  0.9607
10647TIP3   OH253355   4.981   5.073  16.000 -0.3971  0.0859 -0.5970
10647TIP3    H153356   5.026   4.993  16.025 -0.8125 -0.8268 -2.5974
10647TIP3    H253357   5.021   5.141  16.054  1.4091 -1.1332 -0.3221
10648TIP3   OH253358   1.473   0.861  17.050 -0.2800  0.6079 -0.4025
10648TIP3    H153359   1.466   0.773  17.012  0.5189  0.2030  0.3570
10648TIP3    H253360   1.409   0.862  17.121 -0.3731  0.6828 -0.4872
10649TIP3   OH253361   1.150   4.639  11.003  0.2339 -0.1714  0.2892
10649TIP3    H153362   1.099   4.562  10.978 -0.5256  0.4163 -0.0062
10649TIP3    H253363   1.145   4.696  10.926  2.0309 -0.4371 -0.0771
10650TIP3   OH253364   5.429   4.061  16.644 -0.0673 -0.2680  0.2480
10650TIP3    H153365   5.358   3.999  16.626  0.5100 -0.6598 -0.7278
10650TIP3    H253366   5.386   4.146  16.644 -0.3741 -0.3752 -1.5758
10651TIP3   OH253367   4.574   6.644  12.321  0.2568  0.4795  0.3828
10651TIP3    H153368   4.559   6.550  12.329  1.5276  0.2870  0.5828
10651TIP3    H253369   4.596   6.657  12.228 -0.2554  0.6490  0.2759
10652TIP3   OH253370   1.711   4.825  14.338  0.0370  0.3235 -0.2776
10652TIP3    H153371   1.617   4.810  14.326  0.3586  0.2584 -3.4476
10652TIP3    H253372   1.723   4.825  14.433 -3.0160 -0.4936  0.2142
10653TIP3   OH253373   1.881   4.664   5.309  0.1389 -0.2201  0.1992
10653TIP3    H153374   1.850   4.577   5.286  1.5264 -0.7853  0.3543
10653TIP3    H253375   1.829   4.689   5.386 -0.5997 -0.7024 -0.1463
10654TIP3   OH253376   5.778   1.099   1.058 -0.2390  0.2351 -0.0040
10654TIP3    H153377   5.731   1.178   1.030 -0.0261  0.2306 -0.3860
10654TIP3    H253378   5.857   1.099   1.004 -0.6371 -0.6899 -0.6186
10655TIP3   OH253379   0.995   1.310   2.387 -0.4090 -0.5211  0.6526
10655TIP3    H153380   0.951   1.230   2.358 -1.8919  0.2682  0.6718
10655TIP3    H253381   1.078   1.310   2.339 -2.1687  0.0500 -2.6344
10656TIP3   OH253382   1.200   4.152  15.730 -0.0049 -0.4248  0.0812
10656TIP3    H153383   1.108   4.127  15.732 -0.0416 -0.2564  0.9418
10656TIP3    H253384   1.202   4.241  15.766  0.3534  0.0614 -1.0970
10657TIP3   OH253385   2.623   4.396   5.690  0.3216 -0.3378 -0.1140
10657TIP3    H153386   2.672   4.324   5.650  0.8662 -0.0992  0.1119
10657TIP3    H253387   2.607   4.367   5.780  1.1822  0.1158  0.2006
10658TIP3   OH253388   1.639   3.841  14.944 -0.3950 -0.1027  0.2530
10658TIP3    H153389   1.720   3.851  14.994  0.2830 -1.6221 -0.4799
10658TIP3    H253390   1.600   3.928  14.944  0.0152  0.1690  2.6493
10659TIP3   OH253391   4.495   6.674   0.668  0.5245  0.1252 -0.1124
10659TIP3    H153392   4.569   6.647   0.722  0.2141 -3.8547 -1.3590
10659TIP3    H253393   4.419   6.669   0.727  0.8598  1.6264  0.4894
10660TIP3   OH253394   1.119   3.456   0.104 -0.5930  0.4774 -0.3296
10660TIP3    H153395   1.149   3.509   0.178 -0.2472  1.5718 -1.2383
10660TIP3    H253396   1.059   3.513   0.056  0.0470  0.1949 -1.5091
10661TIP3   OH253397   5.050   5.235  13.486  0.2730  0.1220  0.0235
10661TIP3    H153398   5.096   5.192  13.415  0.6555  0.7165 -0.0919
10661TIP3    H253399   5.004   5.164  13.531 -1.4767 -0.0481 -1.8948
10662TIP3   OH253400   6.241   3.787  14.334 -0.3537 -0.7368  0.4863
10662TIP3    H153401   6.302   3.853  14.366 -1.6762  1.4753 -1.2360
10662TIP3    H253402   6.155   3.817  14.363 -1.2135 -0.4572 -2.0378
10663TIP3   OH253403   3.219   0.908  16.295 -0.3598 -0.8433  0.3887
10663TIP3    H153404   3.140   0.861  16.269 -0.9131  0.7867 -1.1012
10663TIP3    H253405   3.256   0.856  16.365 -2.0016 -2.4014  0.1716
10664TIP3   OH253406   0.577   4.231   3.739 -0.3038 -0.1471 -0.2966
10664TIP3    H153407   0.670   4.215   3.726  0.2130  1.6724  0.6917
10664TIP3    H253408   0.543   4.251   3.652  0.6313  0.8898 -0.4431
10665TIP3   OH253409   3.675   1.158   6.043 -0.2129  1.1995  0.0442
10665TIP3    H153410   3.667   1.116   6.128 -4.6526  0.7106 -0.3720
10665TIP3    H253411   3.662   1.087   5.979 -0.2379  2.0621 -0.9407
10666TIP3   OH253412   3.246   0.396  11.006  0.5532  0.4255  0.1300
10666TIP3    H153413   3.274   0.486  10.993 -0.2556  0.6481 -0.1351
10666TIP3    H253414   3.186   0.378  10.934  0.9271 -0.4222  0.0144
10667TIP3   OH253415   5.942   5.290  11.107 -0.4996  0.2084  0.4337
10667TIP3    H153416   5.929   5.381  11.136 -1.7335  0.5303 -1.0198
10667TIP3    H253417   5.854   5.253  11.105 -0.0393 -0.9476  0.7027
10668TIP3   OH253418   2.176   5.019   2.460 -0.3988  0.2306  0.3665
10668TIP3    H153419   2.209   5.017   2.549 -0.1191  0.6534  0.2799
10668TIP3    H253420   2.244   5.066   2.411  1.4572 -3.3707 -0.9114
10669TIP3   OH253421   1.977   2.901  16.678 -0.2109  0.0459  0.4952
10669TIP3    H153422   2.053   2.920  16.733  1.3103 -1.2123 -1.0514
10669TIP3    H253423   1.938   2.987  16.662  1.9546  1.0089 -0.0890
10670TIP3   OH253424   5.525   1.088  14.453  0.3716 -0.2161 -0.4543
10670TIP3    H153425   5.433   1.110  14.467  0.6916  1.4514 -0.7491
10670TIP3    H253426   5.542   1.016  14.514 -1.4444 -1.4859 -1.3415
10671TIP3   OH253427   4.256   5.775  16.990 -0.3923 -0.2821 -0.4313
10671TIP3    H153428   4.262   5.808  17.079 -1.0609 -0.1382 -0.4353
10671TIP3    H253429   4.237   5.852  16.936 -1.1899 -0.5466 -0.5388
10672TIP3   OH253430   4.179   4.826   4.198  0.5523 -0.2053 -0.4382
10672TIP3    H153431   4.212   4.916   4.206  1.5970 -0.6768  0.8831
10672TIP3    H253432   4.228   4.789   4.124 -1.0450  0.7610 -2.0616
10673TIP3   OH253433   3.960   4.388   1.395 -0.5124 -0.5047  0.6299
10673TIP3    H153434   4.043   4.352   1.427  0.9731  2.7052  0.7694
10673TIP3    H253435   3.978   4.410   1.304 -1.1029  0.4392  0.7324
10674TIP3   OH253436   3.248   2.803  17.259 -0.5950  0.0228  0.1646
10674TIP3    H153437   3.336   2.766  17.257 -0.3409  0.6000  0.3929
10674TIP3    H253438   3.226   2.807  17.352 -1.2742 -1.0587  0.0655
10675TIP3   OH253439   4.323   2.930   0.900 -0.8681  0.0600  0.0074
10675TIP3    H153440   4.401   2.880   0.878 -0.9363  0.0359 -0.1754
10675TIP3    H253441   4.353   3.021   0.899 -0.7348  0.0222  0.3795
10676TIP3   OH253442   3.833   1.656   1.765  0.2868  0.7451 -0.4063
10676TIP3    H153443   3.808   1.742   1.730  0.8242  1.2556  0.4397
10676TIP3    H253444   3.795   1.594   1.703 -0.6684  1.5705 -0.6855
10677TIP3   OH253445   3.683   3.583  15.604 -0.4447 -0.1696  0.2020
10677TIP3    H153446   3.620   3.655  15.602  0.7862  0.9703  0.7854
10677TIP3    H253447   3.642   3.516  15.657 -1.1382  0.5968  0.6588
10678TIP3   OH253448   4.726   4.176   5.336 -0.7801  0.1036  0.3308
10678TIP3    H153449   4.714   4.187   5.430 -0.2912  1.0849  0.2930
10678TIP3    H253450   4.733   4.265   5.301 -0.5284 -0.2491 -0.5732
10679TIP3   OH253451   6.366   1.518  15.930  0.1077  0.2673  0.3135
10679TIP3    H153452   6.336   1.427  15.927  0.3758  0.1699  0.5381
10679TIP3    H253453   6.437   1.522  15.866 -1.0455  0.7524 -0.9910
10680TIP3   OH253454   1.909   0.064   5.342 -0.2451  0.3399 -0.0697
10680TIP3    H153455   1.877   0.052   5.431 -3.4618 -0.8454 -1.2329
10680TIP3    H253456   2.001   0.038   5.345 -0.7432 -1.4523  2.5367
10681TIP3   OH253457   2.084   5.696   4.647  0.7063  0.2294 -0.4679
10681TIP3    H153458   2.048   5.609   4.630 -0.7869  0.5834  0.6702
10681TIP3    H253459   2.177   5.681   4.664  0.3329 -1.2481  0.4083
10682TIP3   OH253460   4.645   6.109   1.195 -0.4394  0.1217 -0.3233
10682TIP3    H153461   4.622   6.156   1.115 -3.1199  0.1969  0.3987
10682TIP3    H253462   4.672   6.022   1.165 -0.3877  0.4865 -1.3592
10683TIP3   OH253463   4.847   3.703  15.868 -0.0277 -0.1938 -0.0407
10683TIP3    H153464   4.832   3.797  15.880 -2.0312 -0.6502  1.5584
10683TIP3    H253465   4.804   3.682  15.786  0.0863  0.2127 -0.2072
10684TIP3   OH253466   3.171   4.344  10.935 -0.0637  0.3303 -0.1019
10684TIP3    H153467   3.179   4.406  10.862  0.6343 -1.5396 -1.6927
10684TIP3    H253468   3.105   4.281  10.906 -0.8168  0.3110  1.5127
10685TIP3   OH253469   5.187   1.683  16.352 -0.1230  0.7411 -0.2782
10685TIP3    H153470   5.123   1.689  16.281 -2.3137  2.1934  1.6822
10685TIP3    H253471   5.173   1.597  16.390  2.1384 -0.7030 -2.4302
10686TIP3   OH253472   5.007   5.527   5.087 -0.5988  0.3985  0.5081
10686TIP3    H153473   5.044   5.442   5.112 -0.2805  0.5299  0.4865
10686TIP3    H253474   5.057   5.553   5.010 -0.5378  0.7179  0.6551
10687TIP3   OH253475   6.008   6.061  10.768  0.6734  0.2660 -0.2063
10687TIP3    H153476   6.052   6.012  10.699 -0.6914  0.0862 -0.9756
10687TIP3    H253477   5.915   6.052  10.749  0.3423  2.2120  0.3015
10688TIP3   OH253478   5.569   4.950  12.738 -0.6230  0.0526 -0.1871
10688TIP3    H153479   5.660   4.983  12.739 -0.6517  0.1315 -0.0997
10688TIP3    H253480   5.550   4.935  12.645 -0.1279 -1.0725 -0.1157
10689TIP3   OH253481   3.361   2.793  15.509  0.0382 -0.0115  0.1216
10689TIP3    H153482   3.335   2.702  15.498 -2.9153  0.6154  0.9165
10689TIP3    H253483   3.347   2.833  15.423 -0.2119  0.0211  0.1782
10690TIP3   OH253484   5.238   5.379   2.214 -0.5241  0.3506 -0.2369
10690TIP3    H153485   5.196   5.294   2.197  0.6231 -1.0096  2.9751
10690TIP3    H253486   5.225   5.394   2.307  1.3518  2.5861 -0.2587
10691TIP3   OH253487   6.166   3.262  13.499  0.5342  0.0582  0.0643
10691TIP3    H153488   6.086   3.245  13.449  1.0845  1.5643 -1.4198
10691TIP3    H253489   6.235   3.219  13.448  1.0275  1.1178 -0.1741
10692TIP3   OH253490   4.352   5.759   2.677  0.2334  0.2721 -0.4245
10692TIP3    H153491   4.328   5.686   2.619 -2.1935 -1.4140  2.3848
10692TIP3    H253492   4.285   5.826   2.660 -0.4884 -0.2293  0.3637
10693TIP3   OH253493   1.375   0.343  15.022 -0.0684 -0.2252  0.5599
10693TIP3    H153494   1.309   0.412  15.010 -0.0558 -0.2328  0.4434
10693TIP3    H253495   1.457   0.391  15.032 -0.3813 -0.0950  3.0765
10694TIP3   OH253496   0.820   1.142  16.172 -0.8586 -0.1404  0.2371
10694TIP3    H153497   0.883   1.174  16.235 -0.9110 -0.2130  0.3258
10694TIP3    H253498   0.865   1.148  16.087  0.2513 -2.5832  0.5572
10695TIP3   OH253499   6.209   1.748   0.156  0.6553 -0.3346  0.0005
10695TIP3    H153500   6.263   1.812   0.109  0.7293  0.0481  0.5932
10695TIP3    H253501   6.155   1.708   0.088  1.0078 -0.0433 -0.4621
10696TIP3   OH253502   6.588   4.803   3.195  0.2826 -0.4432 -0.3972
10696TIP3    H153503   6.524   4.841   3.136  0.3673  0.2032 -0.0819
10696TIP3    H253504   6.559   4.830   3.282  1.5216  0.7208 -0.3023
10697TIP3   OH253505   1.165   2.351  11.412 -0.1589  0.1670 -0.3059
10697TIP3    H153506   1.129   2.389  11.492 -0.8287 -0.3302 -0.3606
10697TIP3    H253507   1.259   2.361  11.420 -0.2638  0.6784  0.2631
10698TIP3   OH253508   1.315   0.116  11.450 -0.4298  0.2096  0.3183
10698TIP3    H153509   1.405   0.129  11.482  0.0188 -0.1934 -0.7484
10698TIP3    H253510   1.275   0.202  11.455  0.2297  0.5315  0.1761
10699TIP3   OH253511   5.844   5.720   1.518  0.1263  0.4578 -0.0974
10699TIP3    H153512   5.938   5.703   1.524  0.3612  2.0635  1.8123
10699TIP3    H253513   5.818   5.681   1.434  2.8429  1.5479 -1.5816
10700TIP3   OH253514   3.901   0.478  11.832 -0.6984  0.2702 -0.4854
10700TIP3    H153515   3.934   0.462  11.743 -1.2149  0.3738 -0.6947
10700TIP3    H253516   3.816   0.434  11.835 -2.6808  3.6751 -1.4233
10701TIP3   OH253517   1.367   6.441   2.235  0.7863  0.6087  0.1019
10701TIP3    H153518   1.353   6.500   2.309  0.4722  1.0053 -0.2675
10701TIP3    H253519   1.380   6.499   2.160  2.0019  0.2165 -0.0054
10702TIP3   OH253520   0.617   5.191   1.855  0.1421  0.3491 -0.3828
10702TIP3    H153521   0.602   5.159   1.944  1.5687  0.9086  0.0793
10702TIP3    H253522   0.624   5.286   1.864 -1.1890  0.5665 -1.3246
10703TIP3   OH253523   1.937   1.383   0.617 -0.1066  0.2976 -0.0225
10703TIP3    H153524   1.846   1.357   0.598  0.2864 -0.4419 -0.9759
10703TIP3    H253525   1.974   1.309   0.663 -0.0783  0.7481  0.6905
10704TIP3   OH253526   3.844   1.921   0.450 -0.1921  0.5809 -0.1423
10704TIP3    H153527   3.892   1.892   0.373  0.5289  1.0930  0.0978
10704TIP3    H253528   3.906   1.977   0.497 -1.6654  3.0225 -0.8874
10705TIP3   OH253529   1.130   4.632   4.370  0.3985  0.3269 -0.8026
10705TIP3    H153530   1.142   4.725   4.350 -1.7086  0.5634 -1.3017
10705TIP3    H253531   1.093   4.632   4.458 -1.6635  0.1787 -1.6090
10706TIP3   OH253532   6.148   6.237  12.717 -0.0706 -0.1695 -0.6752
10706TIP3    H153533   6.097   6.306  12.676 -1.3400  0.2032  1.3789
10706TIP3    H253534   6.083   6.171  12.743  0.4794  0.0709  1.5376
10707TIP3   OH253535   1.007   1.097   5.741 -0.1081 -0.1554 -0.0951
10707TIP3    H153536   0.967   1.131   5.821 -0.9453 -1.4686  0.0654
10707TIP3    H253537   1.099   1.083   5.763 -0.2171  0.0049  0.4641
10708TIP3   OH253538   1.207   6.201   2.133  0.0553  0.2454 -0.7573
10708TIP3    H153539   1.284   6.257   2.122  0.8818 -0.4553  1.0460
10708TIP3    H253540   1.202   6.185   2.228 -1.5032 -0.8578 -0.9855
10709TIP3   OH253541   4.326   1.703   0.793 -0.1390 -0.2454 -0.5431
10709TIP3    H153542   4.398   1.726   0.851 -0.8604 -0.6053  0.5323
10709TIP3    H253543   4.298   1.786   0.755 -0.0209  0.0850  0.0751
10710TIP3   OH253544   3.698   6.469  16.172  0.2075 -0.4746 -0.1791
10710TIP3    H153545   3.736   6.550  16.207  1.5701 -1.1351 -0.0320
10710TIP3    H253546   3.769   6.405  16.179 -1.3586 -2.1683  1.4070
10711TIP3   OH253547   0.621   0.419   3.813 -0.1728  0.3467 -0.0696
10711TIP3    H153548   0.578   0.338   3.787  1.6927 -0.6026 -0.3540
10711TIP3    H253549   0.562   0.488   3.782 -1.5095 -0.8728 -0.3456
10712TIP3   OH253550   1.150   5.324  15.577  0.5530 -0.5208 -0.1788
10712TIP3    H153551   1.059   5.318  15.606  0.7280  0.0263  0.5380
10712TIP3    H253552   1.161   5.254  15.513 -0.2529 -0.8649  0.0577
10713TIP3   OH253553   0.070   1.419   0.049  0.1685 -0.1842 -0.2193
10713TIP3    H153554   0.085   1.433  -0.045  0.3824  0.2680 -0.1169
10713TIP3    H253555   0.152   1.444   0.091 -0.1254  0.2000  0.1413
10714TIP3   OH253556   1.029   3.400   1.410  0.3982 -1.2597  0.3097
10714TIP3    H153557   0.969   3.351   1.466  0.3658 -1.4762  0.0879
10714TIP3    H253558   1.035   3.348   1.330 -2.1031  0.5967 -1.2323
10715TIP3   OH253559   0.574   1.744   1.770  0.2283  0.0559  0.3514
10715TIP3    H153560   0.531   1.699   1.842 -0.1082 -1.4319 -0.7444
10715TIP3    H253561   0.551   1.836   1.782 -0.8514 -0.3322  1.4253
10716TIP3   OH253562   5.090   6.191  16.684  0.3907  0.1726  0.3866
10716TIP3    H153563   5.156   6.160  16.622  0.7942  0.0305  0.8791
10716TIP3    H253564   5.120   6.159  16.769  1.2590  2.5470  1.0610
10717TIP3   OH253565   2.100   4.797   3.635 -0.3893 -0.6139 -0.4542
10717TIP3    H153566   2.114   4.761   3.722 -2.3354 -0.2597  0.0564
10717TIP3    H253567   2.096   4.720   3.578  2.2999 -0.7903 -0.5278
10718TIP3   OH253568   2.769   3.541   1.422 -0.1625 -0.1511 -0.5676
10718TIP3    H153569   2.800   3.514   1.336  1.4781 -0.4232  0.0863
10718TIP3    H253570   2.833   3.506   1.484 -2.1603 -1.3871  0.9401
10719TIP3   OH253571   2.790   4.320   2.878 -0.1736 -0.0979  0.2149
10719TIP3    H153572   2.851   4.345   2.808 -0.4723  0.8245  0.2718
10719TIP3    H253573   2.780   4.399   2.931 -3.2239  0.5371 -1.1014
10720TIP3   OH253574   0.677   4.799   0.622  0.1783 -0.2012 -1.4440
10720TIP3    H153575   0.626   4.879   0.610  0.1591 -0.1009 -0.6885
10720TIP3    H253576   0.640   4.738   0.558 -0.1945  0.2019 -1.6195
10721TIP3   OH253577   4.200   3.496  15.519  0.3170  0.2229  0.0467
10721TIP3    H153578   4.155   3.452  15.592  0.1052 -0.1866 -0.3272
10721TIP3    H253579   4.181   3.589  15.532 -1.4637 -0.0058 -0.6578
10722TIP3   OH253580   4.420   0.898  12.862  0.2780 -0.5758  0.0653
10722TIP3    H153581   4.458   0.930  12.944  0.2754  3.0412 -1.1783
10722TIP3    H253582   4.328   0.925  12.867  0.1139 -0.9380 -0.8727
10723TIP3   OH253583   4.846   3.230  16.563 -0.0663  0.0976  0.3880
10723TIP3    H153584   4.851   3.323  16.542 -1.5277  0.0614 -0.2204
10723TIP3    H253585   4.770   3.221  16.621 -0.7782 -0.8680 -0.6373
10724TIP3   OH253586   0.589   4.315   1.318 -0.0351  0.0060 -0.5444
10724TIP3    H153587   0.547   4.346   1.398 -2.2459  2.1192 -2.3717
10724TIP3    H253588   0.516   4.295   1.259  1.5223 -0.6512 -2.3475
10725TIP3   OH253589   3.672   6.491  16.977 -0.2758  0.0489  0.0779
10725TIP3    H153590   3.720   6.443  16.909 -2.7544 -0.6907 -1.2430
10725TIP3    H253591   3.731   6.491  17.052  2.1277 -0.0727 -1.6865
10726TIP3   OH253592   1.598   2.477  13.780 -0.0301  0.7219 -0.0041
10726TIP3    H153593   1.620   2.426  13.858 -0.2797  2.5373  1.3121
10726TIP3    H253594   1.514   2.518  13.801 -1.6696 -1.0606 -2.4338
10727TIP3   OH253595   5.528   0.845   1.695 -0.0848 -0.3901  0.1288
10727TIP3    H153596   5.536   0.769   1.637 -0.1978 -0.4738  0.2234
10727TIP3    H253597   5.467   0.903   1.650  1.0352  0.2580 -0.6069
10728TIP3   OH253598   2.059   4.313  17.229  0.0672  0.0524 -0.3272
10728TIP3    H153599   2.122   4.254  17.189 -0.6482 -0.3710 -0.8532
10728TIP3    H253600   2.062   4.392  17.174 -1.2831 -0.7196 -1.5725
10729TIP3   OH253601   0.909   4.468  16.488 -0.1163 -0.2014  0.1312
10729TIP3    H153602   0.902   4.403  16.558 -1.2026  1.1961  1.3895
10729TIP3    H253603   0.960   4.539  16.526 -1.4886  0.9815 -0.1254
10730TIP3   OH253604   1.141   4.799   2.977  0.1970 -0.4632  0.4906
10730TIP3    H153605   1.177   4.750   3.051  0.6019  0.7702  1.1354
10730TIP3    H253606   1.212   4.857   2.950  0.8203 -2.3065 -2.2487
10731TIP3   OH253607   4.212   3.805  17.480 -0.1478  0.0636 -0.1869
10731TIP3    H153608   4.161   3.742  17.530 -0.1495  0.0471 -0.2091
10731TIP3    H253609   4.224   3.879  17.540 -3.3764  1.7208 -1.3120
10732TIP3   OH253610   0.062   3.699   4.650  0.1786 -0.3165 -0.0158
10732TIP3    H153611   0.137   3.699   4.710  0.0402  0.2419  0.1641
10732TIP3    H253612   0.093   3.650   4.574  0.2034 -1.4254  0.6832
10733TIP3   OH253613   1.509   2.854  11.444  0.6307 -0.6057 -0.3259
10733TIP3    H153614   1.508   2.790  11.372 -1.8565  1.5031 -2.3866
10733TIP3    H253615   1.566   2.924  11.412  0.2888 -0.0955  0.1678
10734TIP3   OH253616   1.591   0.602   0.626  0.6297 -0.0399  0.2009
10734TIP3    H153617   1.530   0.633   0.559 -0.9397 -2.2993  0.4717
10734TIP3    H253618   1.629   0.523   0.589  0.8701 -0.5040  1.3880
10735TIP3   OH253619   3.890   0.708  11.979 -0.1934 -0.3747  0.1788
10735TIP3    H153620   3.866   0.779  11.919 -1.4446 -0.1660  0.9068
10735TIP3    H253621   3.906   0.633  11.921  0.8910  0.3991 -0.5780
10736TIP3   OH253622   4.682   3.764  17.198 -0.3566 -0.3554  0.0715
10736TIP3    H153623   4.743   3.712  17.250  0.7360  2.6438  2.0786
10736TIP3    H253624   4.599   3.757  17.244 -0.2450 -0.4177  0.2662
10737TIP3   OH253625   5.985   5.018   2.629 -0.3875  0.2403  0.1041
10737TIP3    H153626   6.060   5.008   2.688 -0.2351  0.4616 -0.0493
10737TIP3    H253627   6.023   5.006   2.542 -0.6350 -0.2182  0.0590
10738TIP3   OH253628   2.210   5.602  15.848  0.0376 -0.3466 -0.7788
10738TIP3    H153629   2.167   5.571  15.767 -0.2056  0.5651 -1.0100
10738TIP3    H253630   2.299   5.622  15.821 -0.4340  1.3638 -1.1918
10739TIP3   OH253631   5.673   4.541  14.185 -0.7327  0.1801 -0.5810
10739TIP3    H153632   5.600   4.505  14.235 -1.0621  2.3500  0.6502
10739TIP3    H253633   5.697   4.473  14.123 -0.6876 -2.4896  2.1461
10740TIP3   OH253634   4.777   3.605   1.261  0.0345  0.3844  0.3815
10740TIP3    H153635   4.836   3.641   1.194 -1.3506 -0.3595 -1.3177
10740TIP3    H253636   4.692   3.644   1.241 -0.3958  0.2590  1.8447
10741TIP3   OH253637   3.015   0.919  17.441 -0.1213 -0.5545 -0.1421
10741TIP3    H153638   3.020   0.999  17.389 -0.8802 -0.1387  0.3976
10741TIP3    H253639   3.101   0.912  17.483  0.9356 -1.5405 -2.3332
10742TIP3   OH253640   4.212   6.249   2.331 -0.4368  0.3998  0.2776
10742TIP3    H153641   4.136   6.263   2.388 -1.0829 -0.4728 -0.3453
10742TIP3    H253642   4.201   6.312   2.260 -1.0611 -0.3093 -0.2716
10743TIP3   OH253643   2.286   2.153   1.423 -0.5156 -0.2612 -0.0999
10743TIP3    H153644   2.297   2.099   1.501  1.6990  0.1542 -0.0603
10743TIP3    H253645   2.303   2.093   1.350  1.4878  0.2230 -0.0726
10744TIP3   OH253646   1.743   1.563  12.108  0.3723 -0.1585  0.1563
10744TIP3    H153647   1.760   1.654  12.085 -1.5016 -0.1923 -1.5716
10744TIP3    H253648   1.714   1.566  12.200 -0.5415  1.1135 -0.1537
10745TIP3   OH253649   3.298   5.109   0.486  0.3472 -0.0986 -0.2485
10745TIP3    H153650   3.265   5.176   0.426  1.0072 -0.7309 -1.3581
10745TIP3    H253651   3.249   5.030   0.463  0.9573 -0.4672 -0.2939
10746TIP3   OH253652   5.569   6.456   5.398 -0.7821 -0.2930  0.0722
10746TIP3    H153653   5.606   6.520   5.336 -0.0038  0.5647  1.3856
10746TIP3    H253654   5.477   6.480   5.405 -1.1922 -1.1614 -1.6513
10747TIP3   OH253655   6.270   6.383  16.217 -0.1915  0.1306 -0.0637
10747TIP3    H153656   6.343   6.370  16.157 -0.5276  1.5296 -0.8097
10747TIP3    H253657   6.285   6.469  16.255 -0.5139 -0.3215  1.1362
10748TIP3   OH253658   2.515   5.562  16.781 -0.1454 -0.5667 -0.1591
10748TIP3    H153659   2.434   5.536  16.735  0.1252  1.9157 -2.2651
10748TIP3    H253660   2.484   5.610  16.857 -0.6429 -0.8165 -0.1930
10749TIP3   OH253661   0.974   0.442  14.145 -0.1953  0.1948  0.3591
10749TIP3    H153662   0.938   0.376  14.204 -1.9510  1.5036  0.8155
10749TIP3    H253663   1.068   0.425  14.145 -0.5855 -2.5359  0.1452
10750TIP3   OH253664   6.628   0.990   5.576  0.0707 -0.2734 -0.5384
10750TIP3    H153665   6.602   1.032   5.494  0.6949 -0.6487 -0.9421
10750TIP3    H253666   6.595   1.047   5.645 -2.0180 -0.8406 -0.9958
10751TIP3   OH253667   5.443   5.949   1.857  0.0764 -0.3035 -0.3293
10751TIP3    H153668   5.468   5.895   1.932  0.5228 -0.4825 -0.6009
10751TIP3    H253669   5.521   5.952   1.803 -0.0804  0.2679 -0.5304
10752TIP3   OH253670   2.374   3.310  15.108 -0.1366 -0.5530  0.1597
10752TIP3    H153671   2.283   3.294  15.081  0.4227 -2.0570 -1.0119
10752TIP3    H253672   2.413   3.222  15.111  1.5579  0.1445 -0.4067
10753TIP3   OH253673   3.437   0.878   2.531  0.0936  0.0127  1.1784
10753TIP3    H153674   3.382   0.886   2.453  1.0468 -1.1867  0.3528
10753TIP3    H253675   3.383   0.915   2.601 -0.5539  1.7011 -0.1132
10754TIP3   OH253676   6.007   5.744   3.178 -0.8560 -0.2908 -0.4692
10754TIP3    H153677   6.060   5.824   3.175 -0.3019 -0.6681 -2.6726
10754TIP3    H253678   6.019   5.711   3.267 -1.0593  2.0176  0.4978
10755TIP3   OH253679   3.267   2.294   2.584 -0.3412  0.3173  0.7068
10755TIP3    H153680   3.270   2.232   2.511 -2.5175 -1.3417  1.8780
10755TIP3    H253681   3.270   2.380   2.543 -1.7721 -0.5573 -1.3941
10756TIP3   OH253682   0.146   0.740  11.539  0.0869 -0.6014  0.4673
10756TIP3    H153683   0.091   0.680  11.590  0.9389 -0.1730  1.9394
10756TIP3    H253684   0.209   0.774  11.602  0.8748  0.3324 -0.7875
10757TIP3   OH253685   2.731   1.063  11.786  0.0687  0.4506 -0.1041
10757TIP3    H153686   2.812   1.021  11.757 -0.4017 -1.7476  1.4859
10757TIP3    H253687   2.759   1.148  11.819  1.6421  0.0238 -0.2344
10758TIP3   OH253688   1.454   2.107  17.228 -0.6770  0.1596 -0.6943
10758TIP3    H153689   1.410   2.037  17.277  1.2635  0.1017  1.1433
10758TIP3    H253690   1.442   2.185  17.283  2.7011 -0.1782  0.8080
10759TIP3   OH253691   0.783   3.516   6.535 -0.0371  0.3194 -0.1046
10759TIP3    H153692   0.796   3.444   6.597  1.3365 -0.6369 -1.4404
10759TIP3    H253693   0.693   3.503   6.504  0.4848 -1.4662 -1.0426
10760TIP3   OH253694   3.093   4.351   2.811 -0.2465 -0.5762  0.1778
10760TIP3    H153695   3.137   4.284   2.758  2.8015  2.0763 -1.0744
10760TIP3    H253696   3.099   4.430   2.757 -1.1674  1.2940  2.6495
10761TIP3   OH253697   2.162   3.499  13.314  0.0342 -0.4473  0.0644
10761TIP3    H153698   2.185   3.591  13.305 -0.4499 -0.4480 -1.4303
10761TIP3    H253699   2.131   3.473  13.227  0.7936 -2.1877  0.2671
10762TIP3   OH253700   1.510   6.284  17.018  0.2254 -0.5499 -0.3484
10762TIP3    H153701   1.425   6.241  17.018  0.0184 -0.1500 -1.0556
10762TIP3    H253702   1.571   6.216  17.049  0.0926 -1.7659 -2.5514
10763TIP3   OH253703   5.419   4.996  14.255 -0.0048  0.6697 -0.0105
10763TIP3    H153704   5.364   4.981  14.178 -0.6172  1.4743  0.2623
10763TIP3    H253705   5.428   5.091  14.260  1.8882  0.5484 -0.3672
10764TIP3   OH253706   1.923   6.136  15.981  0.3410 -0.3622  0.0895
10764TIP3    H153707   1.857   6.145  16.050 -0.1492 -1.5777 -0.2138
10764TIP3    H253708   1.873   6.122  15.901  0.9629 -1.1721 -0.1631
10765TIP3   OH253709   2.644   5.115  11.471  0.0261  0.7004  0.5980
10765TIP3    H153710   2.551   5.130  11.488 -0.0071  0.3038  0.7624
10765TIP3    H253711   2.664   5.033  11.514 -0.2687 -0.7909 -1.9095
10766TIP3   OH253712   3.318   0.576   5.034  0.3111 -0.2753 -0.1387
10766TIP3    H153713   3.365   0.657   5.017  1.0096 -0.9726 -1.7941
10766TIP3    H253714   3.363   0.511   4.980 -1.6126 -1.2744 -0.6271
10767TIP3   OH253715   2.641   2.113  12.899 -0.3578 -0.4926 -0.0710
10767TIP3    H153716   2.637   2.184  12.964  0.9110  0.6363 -1.1744
10767TIP3    H253717   2.549   2.094  12.880 -0.8153 -1.3179  2.4683
10768TIP3   OH253718   1.284   0.320   2.414  0.0771  1.0809 -0.4408
10768TIP3    H153719   1.334   0.397   2.387 -0.3490  1.7331  0.5778
10768TIP3    H253720   1.270   0.333   2.508 -1.0704  0.3658 -0.5050
10769TIP3   OH253721   6.545   2.401   3.053 -0.2351  0.1945  0.4874
10769TIP3    H153722   6.625   2.430   3.009 -0.4947  1.3854  0.7629
10769TIP3    H253723   6.576   2.355   3.131  0.2097 -1.1505 -0.4508
10770TIP3   OH253724   5.972   0.854   4.601  0.5008  0.4618 -0.5007
10770TIP3    H153725   5.885   0.820   4.581  0.9543 -0.6094 -0.7380
10770TIP3    H253726   6.013   0.869   4.516  0.4320  1.3177 -0.3948
10771TIP3   OH253727   5.829   3.086  12.198 -0.2435 -0.4434 -0.5109
10771TIP3    H153728   5.831   3.016  12.133  0.5255 -0.6691 -0.2395
10771TIP3    H253729   5.849   3.165  12.148  1.1682 -0.7217 -0.4258
10772TIP3   OH253730   3.647   2.719   0.516 -0.3627 -0.5806 -0.2438
10772TIP3    H153731   3.625   2.812   0.520  0.6841 -0.3251 -0.2075
10772TIP3    H253732   3.581   2.677   0.572 -1.2046  0.0579 -0.7355
10773TIP3   OH253733   4.426   1.189  14.634 -0.3878  0.4488 -0.0054
10773TIP3    H153734   4.414   1.277  14.670 -1.7214  0.6821 -0.9356
10773TIP3    H253735   4.451   1.204  14.543  0.9122 -0.1438  0.2416
10774TIP3   OH253736   3.491   3.116   0.318 -0.2702  0.1091 -0.3971
10774TIP3    H153737   3.485   3.185   0.252  0.3063  0.6910  0.1414
10774TIP3    H253738   3.430   3.143   0.386 -0.2812 -0.0758 -0.3338
10775TIP3   OH253739   4.839   5.811   5.836  0.6085  0.7778 -0.5821
10775TIP3    H153740   4.914   5.764   5.799  0.4510 -0.4540  0.5678
10775TIP3    H253741   4.763   5.773   5.793  0.5390  0.6472 -0.3482
10776TIP3   OH253742   5.699   2.095   3.979 -0.0666  1.0032  0.1542
10776TIP3    H153743   5.768   2.075   3.916 -0.7919 -0.3952 -0.2509
10776TIP3    H253744   5.698   2.021   4.039 -1.2868  0.9218  0.0688
10777TIP3   OH253745   2.904   1.966   0.700 -0.1415  0.1430 -0.0229
10777TIP3    H153746   2.963   1.923   0.762  1.2514  2.3138  0.2780
10777TIP3    H253747   2.895   1.904   0.628  3.3690  0.0235 -0.5612
10778TIP3   OH253748   0.335   3.200  15.152 -0.2586  0.4037  0.6989
10778TIP3    H153749   0.352   3.106  15.153  2.4415  0.8204  1.7089
10778TIP3    H253750   0.279   3.216  15.228  1.3837 -0.0890  2.0398
10779TIP3   OH253751   4.979   5.399  15.666 -0.2044 -0.3593 -0.0123
10779TIP3    H153752   5.052   5.448  15.704 -0.5478  0.0767  0.0925
10779TIP3    H253753   4.904   5.459  15.672 -0.5936 -0.8424 -0.0270
10780TIP3   OH253754   1.745   5.491   1.182 -0.1607 -0.4399  0.6341
10780TIP3    H153755   1.816   5.490   1.117  2.0455  0.1670  2.8900
10780TIP3    H253756   1.677   5.436   1.143  1.4379 -0.8927 -1.7586
10781TIP3   OH253757   1.995   2.392  16.642 -0.5743  0.3883 -0.4138
10781TIP3    H153758   2.014   2.480  16.675  0.7925 -1.0250  3.0323
10781TIP3    H253759   1.931   2.357  16.704  1.6688 -2.2459  0.6248
10782TIP3   OH253760   4.067   0.092   3.177  0.4567 -0.5431  0.0396
10782TIP3    H153761   4.038   0.081   3.087 -0.4952 -0.5034  0.3329
10782TIP3    H253762   3.987   0.112   3.226  1.3173  2.4056  0.4259
10783TIP3   OH253763   3.391   3.384  13.431 -0.0371  0.2935  0.3107
10783TIP3    H153764   3.417   3.293  13.447 -0.9421  0.2502  1.6976
10783TIP3    H253765   3.461   3.437  13.468  0.2336  0.1657 -0.0171
10784TIP3   OH253766   6.381   1.100   5.095  0.2780  0.8089 -0.2413
10784TIP3    H153767   6.369   1.012   5.131 -0.3707  1.2068  0.5519
10784TIP3    H253768   6.470   1.099   5.059 -0.1029 -0.4867 -1.2080
10785TIP3   OH253769   3.384   0.550   5.541  0.0343 -0.5767 -0.1328
10785TIP3    H153770   3.350   0.509   5.621  1.8924  1.4138  1.8124
10785TIP3    H253771   3.475   0.520   5.536 -0.1697 -0.9829 -1.7698
10786TIP3   OH253772   3.250   1.765   0.482 -0.9431  0.3817 -0.1676
10786TIP3    H153773   3.223   1.777   0.573  0.0461 -0.2769  0.2412
10786TIP3    H253774   3.211   1.681   0.456  0.0926 -0.2384  0.2052
10787TIP3   OH253775   5.336   2.203  15.250  0.0389 -0.1505  0.1145
10787TIP3    H153776   5.429   2.189  15.265 -0.3213 -1.3873  1.4244
10787TIP3    H253777   5.302   2.117  15.226 -0.4874  0.6281 -2.2228
10788TIP3   OH253778   2.522   4.118  14.856 -0.1484  0.4054 -0.2326
10788TIP3    H153779   2.458   4.048  14.868  0.1947  0.1121 -0.0994
10788TIP3    H253780   2.579   4.086  14.785  0.3271  0.3168  0.1871
10789TIP3   OH253781   1.858   2.378  12.735  0.2411  0.1006  0.4983
10789TIP3    H153782   1.894   2.290  12.739 -1.6788 -0.6789  1.9805
10789TIP3    H253783   1.770   2.367  12.700  0.8058  1.7863 -1.6874
10790TIP3   OH253784   4.317   5.473   1.757  0.3515  0.0200  0.4538
10790TIP3    H153785   4.281   5.522   1.831 -0.4670  2.4350 -1.3949
10790TIP3    H253786   4.381   5.533   1.717 -0.2514 -0.5948 -1.5818
10791TIP3   OH253787   6.578   3.794  13.531 -0.6058  0.1332 -0.0018
10791TIP3    H153788   6.650   3.839  13.487  1.4973 -2.9211 -0.0265
10791TIP3    H253789   6.527   3.754  13.461 -0.5932 -0.0987  0.1194
10792TIP3   OH253790   5.644   0.183   5.785 -0.3906 -0.0246  0.0581
10792TIP3    H153791   5.710   0.166   5.718  0.9297 -1.2146  1.5685
10792TIP3    H253792   5.646   0.278   5.797  1.4646 -0.0689  0.4067
10793TIP3   OH253793   5.111   6.458  11.527 -0.3343  0.0417  0.2858
10793TIP3    H153794   5.186   6.462  11.585  0.0943  0.7869 -0.2997
10793TIP3    H253795   5.053   6.528  11.556 -0.8138 -0.5256  0.7319
10794TIP3   OH253796   0.287   1.014   1.733 -0.1321 -0.1634  0.0181
10794TIP3    H153797   0.325   1.083   1.786 -2.4777 -0.1937  1.8605
10794TIP3    H253798   0.220   1.057   1.681  0.4631 -0.5726 -1.1289
10795TIP3   OH253799   0.920   1.118  11.031  0.2248  0.1638  0.6618
10795TIP3    H153800   0.926   1.099  10.937 -2.1999  0.1057  0.4708
10795TIP3    H253801   0.999   1.078  11.068  1.3642  0.4035 -1.3546
10796TIP3   OH253802   0.348   5.960  15.262 -0.3602  0.4857  0.2241
10796TIP3    H153803   0.329   5.896  15.193  1.7321 -0.9911  0.9324
10796TIP3    H253804   0.386   6.034  15.216 -3.1255  1.4795 -0.6528
10797TIP3   OH253805   2.111   1.779   3.854 -0.4678 -0.0438 -0.3048
10797TIP3    H153806   2.093   1.697   3.901  0.3671  0.0047  0.1330
10797TIP3    H253807   2.148   1.837   3.921 -0.2140  0.3836 -0.8070
10798TIP3   OH253808   6.097   3.159   3.320 -0.4350 -0.1631 -0.5581
10798TIP3    H153809   6.083   3.143   3.227  2.5105 -0.5901 -1.0162
10798TIP3    H253810   6.044   3.092   3.364 -1.1648 -0.5215 -1.9225
10799TIP3   OH253811   2.951   3.573   0.552  0.3926  0.1690 -0.0007
10799TIP3    H153812   2.864   3.560   0.589  1.3183  2.9302  3.7268
10799TIP3    H253813   2.979   3.485   0.528 -2.8327 -0.9993 -0.0192
10800TIP3   OH253814   3.074   1.842   6.249 -0.6392  0.4401  0.1594
10800TIP3    H153815   3.019   1.785   6.304 -0.5220  1.1170  0.9984
10800TIP3    H253816   3.084   1.922   6.300  1.0658  0.3654  0.0001
10801TIP3   OH253817   6.155   0.841  16.873 -0.4854  0.4687 -0.5263
10801TIP3    H153818   6.154   0.754  16.913 -0.2583  0.5837 -0.2649
10801TIP3    H253819   6.076   0.884  16.908 -1.1687  0.0098 -1.4719
10802TIP3   OH253820   3.200   0.015  11.937 -0.2250 -0.1724 -0.6128
10802TIP3    H153821   3.224  -0.062  11.988  1.1580  0.8721  0.4016
10802TIP3    H253822   3.208   0.088  11.998 -2.0040  0.7461 -1.4058
10803TIP3   OH253823   2.594   5.525   1.701 -0.4269  0.5742  0.6610
10803TIP3    H153824   2.644   5.570   1.768  0.7651  1.2634 -0.6298
10803TIP3    H253825   2.642   5.443   1.686  0.1630  1.0755 -0.3270
10804TIP3   OH253826   3.248   5.155  15.157  0.1017  0.4861  0.0206
10804TIP3    H153827   3.195   5.091  15.203  0.5310  0.8388  1.0329
10804TIP3    H253828   3.316   5.103  15.113  1.2260  0.2976  1.8756
10805TIP3   OH253829   6.489   0.451  14.558  0.4850  0.1243  0.4578
10805TIP3    H153830   6.493   0.471  14.652  2.9397  0.2997  0.3941
10805TIP3    H253831   6.423   0.382  14.551  0.4425 -0.0869  2.3506
10806TIP3   OH253832   4.685   0.779   6.284  0.3231 -0.3948 -0.3486
10806TIP3    H153833   4.772   0.807   6.313  0.4701 -0.7171 -0.4710
10806TIP3    H253834   4.653   0.851   6.230  0.4805 -0.2388 -0.2334
10807TIP3   OH253835   2.177   1.144  11.772  1.1178 -0.1953 -0.0244
10807TIP3    H153836   2.207   1.198  11.698 -1.8230  1.3241 -0.2446
10807TIP3    H253837   2.154   1.060  11.732 -3.9266  1.6950 -1.8231
10808TIP3   OH253838   3.956   4.923   3.316  0.2222  0.0763  0.7131
10808TIP3    H153839   4.007   4.996   3.282 -0.5317  1.3265  2.1731
10808TIP3    H253840   3.865   4.952   3.310 -0.2078 -1.3084  0.0536
10809TIP3   OH253841   0.147   4.708   0.831  0.3505 -0.2305  0.0539
10809TIP3    H153842   0.054   4.714   0.851  0.3866  1.8442 -0.1771
10809TIP3    H253843   0.188   4.682   0.913 -0.4194 -1.1478  0.1599
10810TIP3   OH253844   3.925   1.643   2.730 -0.1103 -0.7563 -0.5038
10810TIP3    H153845   3.851   1.674   2.678  0.8849  0.9975 -0.9351
10810TIP3    H253846   3.992   1.622   2.666  0.0182 -1.7216 -0.0737
10811TIP3   OH253847   3.061   3.996   3.145  0.3291 -0.1706  0.3393
10811TIP3    H153848   3.112   3.999   3.064  1.6719 -1.6956  1.0865
10811TIP3    H253849   2.983   3.945   3.123  0.2857  0.1081 -0.1748
10812TIP3   OH253850   0.031   6.517   4.153 -0.0115  0.5983  0.3969
10812TIP3    H153851   0.064   6.466   4.079  0.5571  2.5517 -0.7614
10812TIP3    H253852  -0.052   6.553   4.122 -1.3538 -1.0050  1.8657
10813TIP3   OH253853   4.305   6.239  12.212 -0.0226 -0.1466  0.1887
10813TIP3    H153854   4.345   6.229  12.298 -0.9427  0.7527  0.7454
10813TIP3    H253855   4.212   6.255  12.230 -0.7498 -2.4411 -1.0689
10814TIP3   OH253856   6.006   2.332  12.232  0.3504  0.1629  0.1757
10814TIP3    H153857   6.072   2.346  12.300  0.3566  0.9725  0.0180
10814TIP3    H253858   6.050   2.279  12.165  0.1457 -1.1928  1.0787
10815TIP3   OH253859   2.717   5.999   5.054  0.1610  0.1322 -0.3443
10815TIP3    H153860   2.773   6.031   4.983 -1.6933  0.3162 -1.8146
10815TIP3    H253861   2.687   5.913   5.024  2.0107 -1.3822  1.8183
10816TIP3   OH253862   4.304   2.671   2.797 -0.5070  0.0090 -0.3328
10816TIP3    H153863   4.242   2.720   2.744  0.3337  0.5396 -0.8515
10816TIP3    H253864   4.389   2.684   2.754 -0.2198 -1.7583 -0.3871
10817TIP3   OH253865   6.166   0.433   2.349  0.5501  0.1036  0.1353
10817TIP3    H153866   6.249   0.400   2.316  0.2218 -0.7771  0.1658
10817TIP3    H253867   6.101   0.370   2.318 -0.0877  0.6780  0.2689
10818TIP3   OH253868   5.639   4.142  14.772 -0.0890 -0.2504 -0.4668
10818TIP3    H153869   5.628   4.080  14.700 -4.3381  0.0023 -0.2624
10818TIP3    H253870   5.551   4.172  14.793  1.2659  2.2168  2.7091
10819TIP3   OH253871   5.253   1.266   0.265 -0.2005  0.4747  0.4433
10819TIP3    H153872   5.328   1.303   0.218  0.2384  1.2038  1.6542
10819TIP3    H253873   5.224   1.192   0.212  0.0742  1.4457 -1.1093
10820TIP3   OH253874   5.033   0.352  11.766  0.2378  0.3885 -0.1348
10820TIP3    H153875   5.047   0.277  11.824  0.3593  1.4383  1.2633
10820TIP3    H253876   4.964   0.324  11.707  0.7425 -1.0496 -0.0729
10821TIP3   OH253877   0.224   1.089  16.589  0.0243  0.0905  0.2196
10821TIP3    H153878   0.135   1.123  16.578  0.6064  2.2734  1.6958
10821TIP3    H253879   0.275   1.164  16.618  1.6604 -1.7872  2.6272
10822TIP3   OH253880   0.125   4.086  12.274  0.2713 -0.1712  0.0338
10822TIP3    H153881   0.083   4.090  12.360 -0.2400 -0.3024 -0.2038
10822TIP3    H253882   0.116   4.174  12.237  0.1128 -0.2267 -0.0605
10823TIP3   OH253883   1.073   1.557  12.778  0.1476  0.2809  0.0528
10823TIP3    H153884   0.998   1.565  12.837  0.0252 -1.3170  0.1679
10823TIP3    H253885   1.125   1.485  12.815  1.6057  1.1686 -0.1822
10824TIP3   OH253886   4.633   0.451   6.078 -0.4491  0.4345  0.0234
10824TIP3    H153887   4.554   0.476   6.125  0.3392 -2.1177  3.0697
10824TIP3    H253888   4.603   0.429   5.990 -3.0227  0.3327  0.8470
10825TIP3   OH253889   4.451   2.507   4.352 -0.0176  0.1675  0.5317
10825TIP3    H153890   4.521   2.515   4.417  2.0447 -0.4304 -1.4948
10825TIP3    H253891   4.439   2.412   4.342 -1.4939  0.2571  1.1817
10826TIP3   OH253892   1.403   4.746  16.993 -0.2997 -0.0806 -0.1204
10826TIP3    H153893   1.487   4.787  16.973  1.3244 -2.1226  1.9470
10826TIP3    H253894   1.410   4.722  17.086 -2.4087 -2.0104 -0.3731
10827TIP3   OH253895   3.596   3.728  15.328  0.8999  0.0124  0.0737
10827TIP3    H153896   3.524   3.666  15.333 -0.0687  1.1151  0.2373
10827TIP3    H253897   3.572   3.788  15.257  2.1547 -0.1910 -0.5597
10828TIP3   OH253898   1.433   3.900   4.739 -0.0081  0.0963  0.2781
10828TIP3    H153899   1.463   3.970   4.796  0.4259  0.7994 -0.7830
10828TIP3    H253900   1.345   3.927   4.711  0.8132  1.1370 -1.5049
10829TIP3   OH253901   3.788   4.220  14.818  0.5758 -0.1978 -0.4537
10829TIP3    H153902   3.767   4.127  14.830  1.9374 -0.4985 -0.1692
10829TIP3    H253903   3.882   4.220  14.798  0.7718  1.1693  0.3560
10830TIP3   OH253904   4.678   6.535   1.903  0.4269 -0.5087 -0.6168
10830TIP3    H153905   4.723   6.616   1.878  0.7795 -0.0165  1.4155
10830TIP3    H253906   4.585   6.558   1.902  0.5890  0.8748  2.5794
10831TIP3   OH253907   6.559   5.597   4.147  0.1134 -0.1047  0.3321
10831TIP3    H153908   6.618   5.659   4.105 -0.4460  0.6949  0.7111
10831TIP3    H253909   6.544   5.530   4.080  1.9849 -0.7171  0.4597
10832TIP3   OH253910   4.759   5.015   4.510 -0.0260 -0.3623  0.3765
10832TIP3    H153911   4.849   4.983   4.499 -0.3021 -0.9906 -0.1283
10832TIP3    H253912   4.765   5.109   4.497  0.4812 -0.4660 -0.1734
10833TIP3   OH253913   5.175   1.152  12.890 -0.4555 -0.3133 -0.5354
10833TIP3    H153914   5.144   1.076  12.940  1.9337 -0.7496  0.4371
10833TIP3    H253915   5.240   1.192  12.947 -0.5382  1.5783 -1.7053
10834TIP3   OH253916   5.044   1.188  14.275 -0.5204 -0.0987  0.1197
10834TIP3    H153917   5.005   1.250  14.337  0.9911  1.0489 -0.0245
10834TIP3    H253918   5.052   1.238  14.194  0.0833 -0.7146 -0.2045
10835TIP3   OH253919   2.194   0.052   1.380  0.5728 -0.9200  0.1960
10835TIP3    H153920   2.253   0.051   1.455  0.6616  0.5823  0.1797
10835TIP3    H253921   2.248   0.023   1.307  1.7405  1.6627 -0.0754
10836TIP3   OH253922   4.569   1.350   5.031 -0.1054  0.0821 -0.5056
10836TIP3    H153923   4.477   1.365   5.054  0.1040 -1.1060  1.2815
10836TIP3    H253924   4.596   1.276   5.086  1.6450 -0.2610 -1.7395
10837TIP3   OH253925   3.902   5.339   2.343  0.4816  0.5445  0.0691
10837TIP3    H153926   3.953   5.356   2.263 -0.5839 -0.0749 -0.7747
10837TIP3    H253927   3.819   5.384   2.328 -0.8079 -1.8339 -0.4204
10838TIP3   OH253928   3.581   3.287   3.658 -0.7847  0.1661  0.1431
10838TIP3    H153929   3.664   3.304   3.615 -0.6549 -0.7912 -0.0012
10838TIP3    H253930   3.561   3.368   3.704 -0.2727  0.7471 -0.6374
10839TIP3   OH253931   4.859   3.906  17.459  0.1769 -0.2025  0.0358
10839TIP3    H153932   4.910   3.968  17.511 -0.0628 -0.5861  0.7497
10839TIP3    H253933   4.770   3.914  17.493 -0.1223 -0.0009 -0.7602
10840TIP3   OH253934   2.945   4.505   2.156 -0.5156  0.5692 -0.3028
10840TIP3    H153935   2.954   4.450   2.234  0.1322 -0.8045 -1.2964
10840TIP3    H253936   3.035   4.528   2.133 -0.8014  3.1165  0.7513
10841TIP3   OH253937   4.218   5.158  11.144 -0.2485 -0.3378 -0.8864
10841TIP3    H153938   4.284   5.100  11.182 -1.1019 -0.0885  1.1164
10841TIP3    H253939   4.267   5.219  11.090  1.0778 -0.6332 -0.0568
10842TIP3   OH253940   2.562   6.660  17.324  0.6416 -0.4058  0.0807
10842TIP3    H153941   2.572   6.565  17.333 -0.3750 -0.5804 -0.3785
10842TIP3    H253942   2.639   6.688  17.276  1.3343 -0.8785  0.8957
10843TIP3   OH253943   4.921   2.911   1.254 -0.0279  0.3668  0.0644
10843TIP3    H153944   4.964   2.867   1.181  1.7768  1.6373  0.2899
10843TIP3    H253945   4.954   2.866   1.332  1.8299  1.9552  0.2974
10844TIP3   OH253946   3.154   2.489   3.984 -0.4471  0.3591  0.1558
10844TIP3    H153947   3.207   2.418   3.946 -2.8343 -1.3016 -0.3474
10844TIP3    H253948   3.195   2.507   4.069  0.5741 -1.2714  0.0567
10845TIP3   OH253949   3.436   2.878   5.879 -0.3809  0.0176  0.6226
10845TIP3    H153950   3.390   2.944   5.929 -2.3149 -1.0551  0.3537
10845TIP3    H253951   3.480   2.823   5.944 -1.7302 -0.5403  1.0864
10846TIP3   OH253952   3.731   0.529   6.361  0.1439  0.2368 -0.1638
10846TIP3    H153953   3.683   0.611   6.366  1.9497  1.3383  0.1487
10846TIP3    H253954   3.689   0.480   6.290 -0.8255  1.5247 -0.5108
10847TIP3   OH253955   2.225   4.680  17.440  0.4410 -0.1169 -0.4019
10847TIP3    H153956   2.134   4.674  17.411 -0.0898  0.4655  1.0191
10847TIP3    H253957   2.219   4.711  17.531  2.1119  1.4773 -0.7675
10848TIP3   OH253958   2.390   2.787   5.559 -0.5541 -0.0672  0.0440
10848TIP3    H153959   2.432   2.701   5.557 -0.6754 -0.1279  0.0715
10848TIP3    H253960   2.434   2.837   5.490 -2.0519 -0.8892 -1.5822
10849TIP3   OH253961   2.447   3.262  11.463 -0.2702 -0.7292 -0.2795
10849TIP3    H153962   2.456   3.301  11.376 -0.8705 -0.9555 -0.4528
10849TIP3    H253963   2.500   3.182  11.459 -0.3487 -0.7722 -0.4574
10850TIP3   OH253964   2.569   4.368  12.866  0.0230  0.2393 -0.0576
10850TIP3    H153965   2.635   4.300  12.855  0.8801  1.1503 -0.6021
10850TIP3    H253966   2.490   4.331  12.827  0.7396 -0.0673 -1.2699
10851TIP3   OH253967   3.371   1.474  14.653  0.2994 -0.0771  0.1071
10851TIP3    H153968   3.283   1.510  14.648  0.9286  1.4164 -0.7757
10851TIP3    H253969   3.370   1.401  14.591 -0.1324  0.3192 -0.3583
10852TIP3   OH253970   4.934   0.584   3.404  0.2405  0.4947 -0.2932
10852TIP3    H153971   4.989   0.542   3.469 -0.4435 -0.4152 -0.2793
10852TIP3    H253972   4.940   0.678   3.424  0.8391  0.3069  0.4350
10853TIP3   OH253973   6.523   3.390   2.064 -0.2586 -0.1284  0.4475
10853TIP3    H153974   6.592   3.363   2.004 -1.3577 -2.8378  0.2772
10853TIP3    H253975   6.463   3.441   2.008  1.1953  1.7379  0.4751
10854TIP3   OH253976   2.457   0.605   6.043  1.1516 -0.2841 -0.0420
10854TIP3    H153977   2.426   0.681   6.093 -1.4163 -2.7785  2.4884
10854TIP3    H253978   2.380   0.549   6.033  2.6992 -2.1748 -2.7232
10855TIP3   OH253979   0.532   5.574  11.682 -0.0503 -0.6685 -0.2566
10855TIP3    H153980   0.458   5.518  11.704  0.3646 -1.5165 -0.9774
10855TIP3    H253981   0.515   5.603  11.592 -0.3953  0.6086  0.1868
10856TIP3   OH253982   6.160   3.374   2.330  0.2308  0.2647 -0.4109
10856TIP3    H153983   6.070   3.389   2.359 -0.2157 -1.0554 -1.0116
10856TIP3    H253984   6.211   3.443   2.372 -1.0599  1.0431 -0.0676
10857TIP3   OH253985   1.487   1.360   3.220  0.3023  0.0627 -0.2791
10857TIP3    H153986   1.392   1.359   3.217  0.3139 -1.1998 -2.7841
10857TIP3    H253987   1.511   1.447   3.186  0.1039  1.0557  1.9624
10858TIP3   OH253988   1.021   1.638  11.846  0.2457 -0.0875  0.0298
10858TIP3    H153989   1.098   1.646  11.790  0.0134 -0.7353 -0.3869
10858TIP3    H253990   0.972   1.719  11.832 -1.3129 -1.4224 -2.9643
10859TIP3   OH253991   1.923   5.803  12.315 -0.0860  0.3822 -0.0828
10859TIP3    H153992   1.950   5.771  12.401 -1.8461  0.0378  0.3847
10859TIP3    H253993   1.882   5.888  12.332 -0.0599  0.5134 -0.6362
10860TIP3   OH253994   4.019   1.927  17.429  0.2768 -0.2740 -0.4475
10860TIP3    H153995   3.956   1.919  17.357 -0.4617 -2.1082  0.3460
10860TIP3    H253996   3.973   1.892  17.505  1.4749  0.4861  0.6744
10861TIP3   OH253997   0.790   2.688  17.248 -0.4506 -0.2355  0.2354
10861TIP3    H153998   0.744   2.767  17.276  0.8654  0.3992  0.7071
10861TIP3    H253999   0.721   2.630  17.215 -1.6177  0.5075  1.2745
10862TIP3   OH254000   4.310   1.426  10.994  0.0403 -0.1197  0.8601
10862TIP3    H154001   4.343   1.508  10.955 -2.3204 -0.3927 -2.1240
10862TIP3    H254002   4.378   1.362  10.976  1.3761  0.8629  2.1329
10863TIP3   OH254003   1.940   4.946  15.970 -0.0167  0.4068 -0.1910
10863TIP3    H154004   1.987   4.863  15.974 -1.4321 -0.4680 -0.6872
10863TIP3    H254005   1.988   4.998  15.907 -0.1097 -0.7455 -1.2515
10864TIP3   OH254006   5.398   4.078  14.479 -0.1114 -0.0184  0.3648
10864TIP3    H154007   5.386   3.985  14.461 -0.4148  0.5937 -3.4079
10864TIP3    H254008   5.474   4.103  14.426 -0.0424  1.8956  1.2825
10865TIP3   OH254009   5.596   2.073   0.440  0.4699 -0.4652 -0.3956
10865TIP3    H154010   5.686   2.106   0.430 -0.4002  2.1623 -0.3975
10865TIP3    H254011   5.541   2.150   0.427 -1.7573 -1.7199  0.9848
10866TIP3   OH254012   1.768   0.357  13.063  0.1196  0.0567 -0.2807
10866TIP3    H154013   1.852   0.321  13.094  0.9432  2.2745  0.2910
10866TIP3    H254014   1.711   0.353  13.140  0.5005  0.7392  0.0537
10867TIP3   OH254015   4.989   5.872  16.412 -0.3285 -0.7311  0.3640
10867TIP3    H154016   4.917   5.886  16.351  0.3792  2.2125  0.0885
10867TIP3    H254017   4.948   5.877  16.499 -0.6093 -0.0798  0.1938
10868TIP3   OH254018   6.604   0.757   0.698 -0.0699  0.3653 -0.4469
10868TIP3    H154019   6.603   0.711   0.782 -1.6999  3.3804  1.3681
10868TIP3    H254020   6.514   0.751   0.667  0.0862  0.9262 -1.0154
10869TIP3   OH254021   6.054   3.186   5.500  0.1004  0.3556 -0.6725
10869TIP3    H154022   6.067   3.236   5.581 -1.1162 -1.1250  0.4915
10869TIP3    H254023   5.961   3.197   5.480  0.4404  0.9548 -2.0907
10870TIP3   OH254024   4.974   2.300  17.197  0.0655  0.3022  0.3824
10870TIP3    H154025   5.039   2.234  17.174 -0.5606 -1.3684  2.8626
10870TIP3    H254026   5.024   2.372  17.233  0.7696  1.3176 -2.4087
10871TIP3   OH254027   4.658   4.266   0.497  0.3125  0.0020  0.5956
10871TIP3    H154028   4.565   4.290   0.493  0.6279  1.5130  1.4613
10871TIP3    H254029   4.700   4.342   0.537  2.5458  1.1761 -3.4232
10872TIP3   OH254030   0.976   5.961  12.149 -0.4489 -0.2881  0.1838
10872TIP3    H154031   1.055   5.936  12.100 -1.6261  0.6685 -2.3770
10872TIP3    H254032   1.002   6.037  12.201  0.5394 -0.5594  0.1033
10873TIP3   OH254033   2.124   4.818   0.451 -0.0193 -0.0682 -0.9491
10873TIP3    H154034   2.218   4.826   0.433  0.3448  0.2887  0.8598
10873TIP3    H254035   2.085   4.898   0.416  0.3521 -0.2060 -1.6890
10874TIP3   OH254036   0.031   2.733  15.689 -0.3716 -0.1097 -0.6525
10874TIP3    H154037  -0.021   2.663  15.648 -0.2869 -1.2388  1.0434
10874TIP3    H254038   0.056   2.697  15.774  0.3597  1.7141 -0.0478
10875TIP3   OH254039   0.375   1.382  14.179  0.3511 -0.6398  0.0380
10875TIP3    H154040   0.450   1.426  14.218 -0.6561  0.8472  0.4126
10875TIP3    H254041   0.410   1.336  14.103  1.4923  0.8330 -0.3756
10876TIP3   OH254042   4.910   2.409  16.655  0.4380  0.7988 -0.0285
10876TIP3    H154043   4.846   2.464  16.699 -0.6999 -0.4310 -0.0779
10876TIP3    H254044   4.946   2.353  16.724  0.2800  0.3908 -0.2732
10877TIP3   OH254045   1.086   3.676  16.239 -0.1939  0.2740  0.2282
10877TIP3    H154046   1.134   3.679  16.156  1.4289 -1.3152  1.0405
10877TIP3    H254047   0.998   3.647  16.215 -0.1855  1.2273 -1.0768
10878TIP3   OH254048   4.560   0.450   3.732 -0.2073 -0.1052  0.8101
10878TIP3    H154049   4.481   0.460   3.679 -0.5420 -0.3618  1.2521
10878TIP3    H254050   4.605   0.534   3.725  1.7068 -1.2331 -2.9358
10879TIP3   OH254051   5.746   4.780   5.174  0.6989 -0.2595  0.2927
10879TIP3    H154052   5.786   4.694   5.161  1.0848 -0.2568  1.3560
10879TIP3    H254053   5.794   4.839   5.116  0.0155 -0.8588 -0.9167
10880TIP3   OH254054   1.708   4.805   5.128 -0.5335 -0.2434  0.1263
10880TIP3    H154055   1.753   4.760   5.200 -0.4812 -1.2258 -0.5080
10880TIP3    H254056   1.640   4.744   5.100  0.3598 -0.5126 -1.5944
10881TIP3   OH254057   5.969   4.481  11.882  0.0912 -0.5115 -0.1229
10881TIP3    H154058   5.940   4.562  11.840 -1.7583 -1.0603  0.0124
10881TIP3    H254059   6.053   4.462  11.841 -0.3219  0.4946 -1.5217
10882TIP3   OH254060   2.008   1.325  16.232 -0.2740  0.3882 -0.0846
10882TIP3    H154061   1.974   1.266  16.299  2.9073 -3.2041 -1.2569
10882TIP3    H254062   2.092   1.286  16.207 -0.1077  2.9321 -4.3500
10883TIP3   OH254063   4.709   5.074   4.760  0.2293 -0.5578  0.2255
10883TIP3    H154064   4.728   5.168   4.766 -0.4823 -0.4008  0.1734
10883TIP3    H254065   4.712   5.055   4.667 -0.5532 -0.3725  0.1526
10884TIP3   OH254066   3.224   6.004  13.717 -0.0856  0.3629  0.3476
10884TIP3    H154067   3.241   6.081  13.663 -0.9757  1.4310  1.5174
10884TIP3    H254068   3.145   6.026  13.766  0.5578 -0.6199  1.9159
10885TIP3   OH254069   2.942   2.301   1.057  0.0386 -0.2927  0.8005
10885TIP3    H154070   3.029   2.265   1.077  0.5236  1.0920  1.2856
10885TIP3    H254071   2.905   2.323   1.143 -0.9819 -1.2399  0.6256
10886TIP3   OH254072   3.470   0.448  15.838  0.2900 -0.2526 -0.0421
10886TIP3    H154073   3.438   0.408  15.920  1.6261 -1.4568 -0.0658
10886TIP3    H254074   3.393   0.490  15.801 -0.8481 -1.5008  0.7855
10887TIP3   OH254075   1.541   2.086  11.811  0.2742 -0.1086  0.5509
10887TIP3    H154076   1.528   2.047  11.898  0.5904 -0.0488  0.6247
10887TIP3    H254077   1.458   2.073  11.767  0.1247 -0.1805  0.8490
10888TIP3   OH254078   1.828   4.085  12.638  0.2756  0.6312  0.1609
10888TIP3    H154079   1.808   4.074  12.731 -0.8062  0.2381 -0.1066
10888TIP3    H254080   1.743   4.095  12.596  0.5723 -1.3459 -1.0566
10889TIP3   OH254081   5.519   1.729  13.121 -0.0129 -0.2533  0.2444
10889TIP3    H154082   5.484   1.751  13.034  1.3433 -0.9703 -0.5179
10889TIP3    H254083   5.577   1.655  13.105 -0.4571 -0.9958  1.9377
10890TIP3   OH254084   3.507   5.602  15.164 -0.3643  0.3216 -0.1190
10890TIP3    H154085   3.422   5.594  15.208 -0.0349  1.0553  0.6586
10890TIP3    H254086   3.486   5.591  15.071 -1.9713  4.2473 -0.4065
10891TIP3   OH254087   0.135   1.808  11.521  0.6645 -0.0541  0.0106
10891TIP3    H154088   0.115   1.769  11.436  2.4106 -0.1688 -0.3833
10891TIP3    H254089   0.116   1.901  11.510 -1.1044 -0.3644  0.1735
10892TIP3   OH254090   4.917   5.620   1.940  0.1330  0.1129 -1.0251
10892TIP3    H154091   4.934   5.682   2.011  1.3232  0.2060 -1.3693
10892TIP3    H254092   5.003   5.598   1.906 -0.3338 -1.0129 -1.5376
10893TIP3   OH254093   4.629   2.671   4.185 -0.0878  0.4851  0.2827
10893TIP3    H154094   4.667   2.620   4.257 -0.0614  0.3277  0.1572
10893TIP3    H254095   4.586   2.606   4.130 -1.7054  0.7951  1.1310
10894TIP3   OH254096   0.014   1.974  11.961 -0.3326  0.0586  0.3726
10894TIP3    H154097   0.096   1.936  11.993 -0.3611  0.0618  0.4476
10894TIP3    H254098  -0.043   1.899  11.945  0.2458 -0.0723 -1.2359
10895TIP3   OH254099   4.117   5.367   6.064 -0.3877 -0.1732  0.4401
10895TIP3    H154100   4.198   5.409   6.091 -0.4205  1.3290 -1.5311
10895TIP3    H254101   4.145   5.287   6.020 -0.2527 -1.6640  3.0608
10896TIP3   OH254102   2.669   2.706   1.831 -0.6785  0.3783 -0.1694
10896TIP3    H154103   2.719   2.655   1.767 -0.6916 -0.4908  0.4840
10896TIP3    H254104   2.711   2.687   1.915 -1.9602 -0.2097  0.3748
10897TIP3   OH254105   0.711   3.023   3.520 -0.6464  0.0668  0.2950
10897TIP3    H154106   0.723   3.088   3.589  2.2754 -0.5406  0.5152
10897TIP3    H254107   0.766   2.949   3.547  0.5180 -0.2507 -2.5565
10898TIP3   OH254108   3.901   2.390   5.292 -0.1597  0.4636  1.1021
10898TIP3    H154109   3.914   2.417   5.383 -2.7431 -1.1039  2.0585
10898TIP3    H254110   3.806   2.377   5.285 -0.1084  1.0696 -2.0108
10899TIP3   OH254111   1.647   0.160  14.268 -0.1206 -0.9562 -0.3195
10899TIP3    H154112   1.741   0.143  14.280 -0.3527 -1.7099  0.6229
10899TIP3    H254113   1.629   0.132  14.178  0.2467 -2.4194  0.0256
10900TIP3   OH254114   4.528   3.614  11.564 -0.8068 -0.4224  0.0012
10900TIP3    H154115   4.571   3.568  11.492 -2.0436 -0.2405 -0.8787
10900TIP3    H254116   4.510   3.701  11.530  0.0055  0.2003  1.0878
10901TIP3   OH254117   3.472   3.801  13.094  0.2536 -0.4985 -0.2666
10901TIP3    H154118   3.562   3.795  13.062  0.9295  3.1821  0.4137
10901TIP3    H254119   3.450   3.713  13.123  2.7908 -2.0179 -2.5085
10902TIP3   OH254120   3.831   2.436   4.693  0.3444  0.3855 -0.5207
10902TIP3    H154121   3.865   2.525   4.707 -0.5770  0.8463 -1.1077
10902TIP3    H254122   3.909   2.385   4.670  1.2783  0.4688  2.0864
10903TIP3   OH254123   0.614   1.283   3.527 -0.4032  0.4278 -0.5893
10903TIP3    H154124   0.638   1.273   3.435 -0.1459  1.5765 -0.6581
10903TIP3    H254125   0.596   1.194   3.557 -0.2968  0.0237 -1.6963
10904TIP3   OH254126   6.546   2.900   0.463 -0.4362 -0.0830 -0.0694
10904TIP3    H154127   6.597   2.915   0.384 -1.2280  2.0414 -0.2453
10904TIP3    H254128   6.459   2.875   0.431 -0.9630  1.4711  0.0520
10905TIP3   OH254129   5.448   0.335  15.438  0.6265  0.7398  0.5618
10905TIP3    H154130   5.367   0.381  15.459  0.2334  0.2278  0.1829
10905TIP3    H254131   5.425   0.242  15.442  0.9108  0.6023 -0.6173
10906TIP3   OH254132   5.843   4.717  12.637 -0.2210 -0.7309  0.2085
10906TIP3    H154133   5.933   4.685  12.641  0.4972  1.0223 -0.5693
10906TIP3    H254134   5.802   4.684  12.716  2.0966  1.1408  2.3831
10907TIP3   OH254135   5.357   5.721  16.462  0.4276  0.3186  0.1718
10907TIP3    H154136   5.278   5.726  16.408 -0.1899 -2.7194  0.6067
10907TIP3    H254137   5.428   5.711  16.399  0.0579 -0.2640 -0.1628
10908TIP3   OH254138   3.291   1.130  11.151 -0.2985 -0.1710 -0.1189
10908TIP3    H154139   3.358   1.062  11.162  0.0607  0.2411  0.2605
10908TIP3    H254140   3.237   1.124  11.230  0.2899  0.5922  0.3498
10909TIP3   OH254141   5.382   1.866   4.089 -0.0689 -0.2838 -0.5492
10909TIP3    H154142   5.365   1.926   4.016 -1.3620 -1.1860 -1.0311
10909TIP3    H254143   5.296   1.854   4.130  0.7653  0.8437  1.6752
10910TIP3   OH254144   2.105   3.344  15.436  0.1404 -0.2225 -0.3682
10910TIP3    H154145   2.123   3.419  15.379 -0.5043  2.2932  2.4653
10910TIP3    H254146   2.130   3.374  15.523  0.7964 -3.7422  0.8230
10911TIP3   OH254147   5.048   1.430   2.030  1.0617  0.5386  0.2107
10911TIP3    H154148   5.135   1.442   2.068  0.6397  1.4044  0.9219
10911TIP3    H254149   5.026   1.339   2.049  1.7856  0.3273  0.0628
10912TIP3   OH254150   2.431   5.737   2.300 -0.4246  0.2642 -0.9183
10912TIP3    H154151   2.407   5.704   2.386 -0.2917 -0.0522 -1.0029
10912TIP3    H254152   2.380   5.818   2.290  0.7065  1.1439  0.1060
10913TIP3   OH254153   0.431   3.134  14.276 -0.2964  0.1263  0.3282
10913TIP3    H154154   0.485   3.096  14.346  0.0371 -2.3985 -1.1779
10913TIP3    H254155   0.488   3.199  14.235 -0.2970  1.2364  1.9606
10914TIP3   OH254156   3.275   5.637   0.148 -0.2076 -0.0866  0.1755
10914TIP3    H154157   3.253   5.563   0.091  2.0716 -0.3758 -0.4396
10914TIP3    H254158   3.214   5.630   0.222 -0.6928 -1.9888 -0.3530
10915TIP3   OH254159   3.500   3.531  10.419  0.5556  0.3123  0.6198
10915TIP3    H154160   3.433   3.560  10.480 -0.4201  0.5690 -0.5428
10915TIP3    H254161   3.546   3.611  10.393 -1.2288  0.7282 -1.5171
10916TIP3   OH254162   6.239   3.508  13.376  0.4084 -0.3483 -0.2614
10916TIP3    H154163   6.226   3.550  13.461  0.8520  1.1654 -0.9135
10916TIP3    H254164   6.211   3.417  13.390 -2.3912  0.5627  0.7233
10917TIP3   OH254165   0.864   5.051   0.970  0.3308  0.5829 -0.5355
10917TIP3    H154166   0.894   4.980   0.913  1.3661  1.1557 -0.7393
10917TIP3    H254167   0.816   5.008   1.040  0.5787 -0.2826 -0.8919
10918TIP3   OH254168   5.122   0.397   2.038 -0.7826  0.0644 -0.6915
10918TIP3    H154169   5.200   0.415   1.986 -1.6725 -0.9789 -2.4872
10918TIP3    H254170   5.122   0.465   2.105  0.4072  1.4887 -2.0568
10919TIP3   OH254171   3.873   6.273  16.243 -0.0568  0.3707  0.2812
10919TIP3    H154172   3.892   6.272  16.337 -0.4137 -1.8350  0.3761
10919TIP3    H254173   3.865   6.181  16.219  1.5221  0.7952 -2.2437
10920TIP3   OH254174   1.917   4.628   1.578 -0.3420  0.0263 -0.6741
10920TIP3    H154175   1.914   4.720   1.554 -0.2090  0.2722  0.2535
10920TIP3    H254176   1.838   4.590   1.538 -2.1170  1.1736  1.5713
10921TIP3   OH254177   1.023   0.581  16.743 -0.7957 -0.0662 -0.5346
10921TIP3    H154178   1.001   0.566  16.651 -2.5099  0.3911 -0.2335
10921TIP3    H254179   1.093   0.519  16.762  1.1030  1.2459 -2.7012
10922TIP3   OH254180   6.650   3.109   3.273 -0.0346  0.3922 -0.3402
10922TIP3    H154181   6.702   3.180   3.236 -0.3180  0.8622  0.1543
10922TIP3    H254182   6.564   3.118   3.231  0.1952 -0.2176 -0.9546
10923TIP3   OH254183   3.303   0.107   4.361 -0.7000 -0.3580 -0.0156
10923TIP3    H154184   3.240   0.038   4.380 -0.0428 -0.9107  0.1982
10923TIP3    H254185   3.330   0.092   4.271 -1.1903  0.1433 -0.2534
10924TIP3   OH254186   2.479   4.815  11.420 -0.0323 -0.3245 -0.1553
10924TIP3    H154187   2.574   4.829  11.427  0.1721 -2.1261  1.7913
10924TIP3    H254188   2.461   4.742  11.479 -2.7783  0.5389  0.2365
10925TIP3   OH254189   3.552   5.644   0.119  0.3921  0.2873 -0.8536
10925TIP3    H154190   3.457   5.652   0.113  0.2416 -1.5030 -1.4169
10925TIP3    H254191   3.567   5.555   0.152  1.8647  0.9774  0.4936
10926TIP3   OH254192   2.119   6.268  11.596  0.4840  1.0928  0.6139
10926TIP3    H154193   2.091   6.177  11.602  0.5897  1.0602  0.6165
10926TIP3    H254194   2.040   6.319  11.615  0.3579  1.0045  0.3365
10927TIP3   OH254195   6.053   4.054  17.487 -0.7553  0.1531 -0.4398
10927TIP3    H154196   6.020   4.142  17.472 -0.8914  0.2615  0.4047
10927TIP3    H254197   6.082   4.055  17.579 -0.3960 -0.5601 -0.5391
10928TIP3   OH254198   3.971   4.134  15.670  0.4772  0.4489  0.1315
10928TIP3    H154199   3.941   4.176  15.590  0.2369  0.0844  0.0295
10928TIP3    H254200   3.899   4.076  15.695  1.0636 -0.3819 -0.0736
10929TIP3   OH254201   5.782   3.937   5.767  0.3931 -0.2176 -0.0558
10929TIP3    H154202   5.851   3.976   5.713  0.1468  1.5906  0.8620
10929TIP3    H254203   5.828   3.887   5.834  0.7385 -0.6509 -0.6024
10930TIP3   OH254204   3.710   4.205  10.981 -0.3915  0.5023 -0.3751
10930TIP3    H154205   3.670   4.119  10.996  0.2819  0.4762  1.6050
10930TIP3    H254206   3.758   4.195  10.899 -0.2862 -1.0350 -0.1627
10931TIP3   OH254207   5.872   3.181   0.049 -0.1355  0.2888 -0.3576
10931TIP3    H154208   5.866   3.264   0.096  1.7935  0.8376 -0.9626
10931TIP3    H254209   5.797   3.131   0.079  0.3098  1.0874  2.3639
10932TIP3   OH254210   1.847   0.041  13.864 -0.5843  0.1413 -0.3738
10932TIP3    H154211   1.845   0.135  13.850  1.1469  0.2414 -0.0651
10932TIP3    H254212   1.840   0.004  13.776  0.6985  0.6063 -0.6867
10933TIP3   OH254213   6.138   0.924  14.672  0.0921 -0.2498 -0.4266
10933TIP3    H154214   6.195   0.931  14.596  1.4353 -0.3568  0.5504
10933TIP3    H254215   6.139   0.831  14.694 -0.1930 -0.2001 -0.1977
10934TIP3   OH254216   5.542   4.447  12.299  0.2688  0.1433  0.8455
10934TIP3    H154217   5.583   4.442  12.385  0.7396  1.6338  0.7302
10934TIP3    H254218   5.601   4.501  12.247 -0.1932 -0.4439 -0.3124
10935TIP3   OH254219   2.476   5.559  11.542 -0.3401 -0.1894 -0.2037
10935TIP3    H154220   2.471   5.637  11.597 -0.0477 -1.0877  1.1206
10935TIP3    H254221   2.567   5.554  11.515 -0.2879 -0.2666 -0.0106
10936TIP3   OH254222   6.024   3.221   0.939  0.0076 -0.2452 -0.2400
10936TIP3    H154223   6.101   3.164   0.942  1.4752  1.6457  0.1753
10936TIP3    H254224   5.986   3.214   1.027  0.4123 -0.2866 -0.0652
10937TIP3   OH254225   5.469   5.405  17.406 -0.1203  0.2793  0.0524
10937TIP3    H154226   5.489   5.344  17.477  0.9038 -0.7944 -1.1088
10937TIP3    H254227   5.503   5.489  17.436 -1.6048  0.3572  1.7019
10938TIP3   OH254228   2.476   3.090   5.769 -0.2230  0.7489  0.0558
10938TIP3    H154229   2.517   3.107   5.684 -0.3767  0.3737 -0.0958
10938TIP3    H254230   2.438   3.175   5.795  1.0910  1.2339  0.4488
10939TIP3   OH254231   5.594   1.547   0.794 -0.8165  0.3728 -0.4835
10939TIP3    H154232   5.582   1.508   0.708  3.1210 -1.1890 -0.5371
10939TIP3    H254233   5.623   1.637   0.777 -0.1312  0.0940 -0.8298
10940TIP3   OH254234   0.820   6.372  15.467  0.3650 -0.0650  0.7265
10940TIP3    H154235   0.863   6.319  15.401  2.9528  0.0159  2.2300
10940TIP3    H254236   0.788   6.449  15.420  0.9214 -0.6542 -0.6436
10941TIP3   OH254237   6.255   2.848  14.650  0.3077  0.5946  0.2043
10941TIP3    H154238   6.262   2.894  14.567  0.1683  1.9137  0.8992
10941TIP3    H254239   6.325   2.885  14.704 -0.7450  1.0822  1.2708
10942TIP3   OH254240   4.489   4.390   3.906  0.4475  0.3309 -0.3545
10942TIP3    H154241   4.453   4.330   3.972 -1.7388  1.6904 -0.2043
10942TIP3    H254242   4.510   4.469   3.955 -1.6678  1.5391 -1.2687
10943TIP3   OH254243   6.262   6.324  14.110 -0.0487  0.8772 -0.2371
10943TIP3    H154244   6.336   6.280  14.067  0.4331  0.4281  1.0072
10943TIP3    H254245   6.187   6.267  14.092  0.8807 -1.5902  2.8895
10944TIP3   OH254246   2.206   2.644   3.132 -0.1740 -0.1813  0.4000
10944TIP3    H154247   2.261   2.567   3.146 -1.3596 -1.0445  0.4598
10944TIP3    H254248   2.160   2.626   3.050  1.4023  1.6307 -0.9836
10945TIP3   OH254249   3.277   0.609   0.607  0.4181  0.4363  0.2120
10945TIP3    H154250   3.263   0.560   0.526  1.3405  0.5308 -0.0138
10945TIP3    H254251   3.253   0.548   0.677  0.4110  0.0793 -0.1042
10946TIP3   OH254252   1.987   1.800   0.550 -0.4589 -0.2653  0.6641
10946TIP3    H154253   2.046   1.856   0.600  0.7974 -1.0792  0.1415
10946TIP3    H254254   2.028   1.713   0.552 -1.7133 -0.8855  0.3994
10947TIP3   OH254255   1.205   6.189  11.995  0.3216  0.7688  0.3233
10947TIP3    H154256   1.224   6.101  12.028  0.3254  0.1742 -1.1805
10947TIP3    H254257   1.163   6.233  12.069  1.7041  0.0283  1.6185
10948TIP3   OH254258   0.731   6.482   1.980 -0.2538 -0.5102  0.0151
10948TIP3    H154259   0.678   6.426   2.037  0.6409 -0.6123  0.7599
10948TIP3    H254260   0.695   6.570   1.993 -0.3172 -0.5956  0.4273
10949TIP3   OH254261   2.129   2.403   4.188  0.4499 -0.5738  0.4309
10949TIP3    H154262   2.107   2.453   4.267  1.0703 -0.8379  0.7799
10949TIP3    H254263   2.077   2.323   4.195 -0.5486  0.0104 -0.1315
10950TIP3   OH254264   0.093   4.463   2.836  0.4881  0.5238 -0.4883
10950TIP3    H154265   0.187   4.449   2.827 -0.0059 -2.7226 -1.6337
10950TIP3    H254266   0.073   4.528   2.768  1.5488 -0.6223 -1.9603
10951TIP3   OH254267   4.564   1.871  11.298 -0.1816  0.2081 -0.6634
10951TIP3    H154268   4.590   1.795  11.350 -0.9637  0.6587  0.4240
10951TIP3    H254269   4.553   1.838  11.209 -0.6643 -0.9812 -0.1752
10952TIP3   OH254270   1.762   0.488  16.235  0.1255 -0.3401  0.1607
10952TIP3    H154271   1.803   0.416  16.188 -0.3515  0.3913 -1.4623
10952TIP3    H254272   1.801   0.485  16.323  0.6347 -2.1026 -0.0880
10953TIP3   OH254273   5.095   5.182  15.546  0.7919  0.1989  0.4287
10953TIP3    H154274   5.120   5.123  15.617 -1.5341  1.0712  2.0754
10953TIP3    H254275   5.077   5.266  15.588  0.6528  1.1430 -1.3900
10954TIP3   OH254276   5.052   4.463   3.313  0.5591  0.5281 -0.1172
10954TIP3    H154277   5.136   4.450   3.270  1.0492 -0.5722  1.1205
10954TIP3    H254278   5.021   4.374   3.333 -0.3238  0.9579  0.5032
10955TIP3   OH254279   3.244   2.485  11.468 -0.0191 -0.3353  0.2620
10955TIP3    H154280   3.278   2.478  11.379  0.3971 -0.6170  0.4384
10955TIP3    H254281   3.319   2.465  11.524 -0.7029 -2.0107  0.6404
10956TIP3   OH254282   1.672   3.954   2.573  0.1311 -0.1377 -0.2515
10956TIP3    H154283   1.741   3.979   2.634  0.5584 -1.3585 -0.2084
10956TIP3    H254284   1.595   4.002   2.602  0.3433 -0.6411  1.2199
10957TIP3   OH254285   6.403   0.106  14.459  0.3718  0.9918 -0.0507
10957TIP3    H154286   6.484   0.102  14.509 -0.5475 -2.5169  1.4368
10957TIP3    H254287   6.431   0.096  14.368  1.6583  0.4722  0.3805
10958TIP3   OH254288   4.496   3.420  16.220 -0.1445 -0.2810  0.3692
10958TIP3    H154289   4.504   3.326  16.234 -1.4220 -0.3140  1.0274
10958TIP3    H254290   4.508   3.431  16.126 -0.1353 -1.1267  0.2616
10959TIP3   OH254291   5.995   0.698  15.391 -0.0179  0.4169 -0.2447
10959TIP3    H154292   5.910   0.680  15.431 -0.1903  0.8254 -0.4166
10959TIP3    H254293   6.002   0.636  15.319 -0.4316  0.7711 -0.5937
10960TIP3   OH254294   4.196   2.273  16.066  0.3460  0.0865 -0.2944
10960TIP3    H154295   4.285   2.304  16.083  0.0094  0.7871  0.2656
10960TIP3    H254296   4.142   2.320  16.130 -0.6111  0.7045 -1.5096
10961TIP3   OH254297   2.074   3.464   1.253  0.2170 -0.3673 -0.0450
10961TIP3    H154298   2.015   3.500   1.319  1.1307 -0.1095  0.6466
10961TIP3    H254299   2.025   3.392   1.215 -1.0836  0.6833 -0.4481
10962TIP3   OH254300   5.132   5.778   0.605  0.7558  0.2181  0.5153
10962TIP3    H154301   5.081   5.710   0.560  3.1972 -0.4779 -1.4259
10962TIP3    H254302   5.071   5.851   0.614 -0.3984 -0.2151 -2.4703
10963TIP3   OH254303   6.072   6.011   4.507  0.2603  0.5083  0.2336
10963TIP3    H154304   6.012   6.002   4.433  0.9864 -0.6084 -0.2424
10963TIP3    H254305   6.051   6.097   4.544 -0.7486  0.6871 -0.6941
10964TIP3   OH254306   3.729   4.414  15.890 -0.4571 -0.4692  0.0707
10964TIP3    H154307   3.817   4.411  15.928 -0.3195 -1.5064 -0.3005
10964TIP3    H254308   3.744   4.419  15.796 -0.8028 -0.2443  0.0269
10965TIP3   OH254309   1.991   6.623   3.957 -0.4176 -0.1210  0.1046
10965TIP3    H154310   1.921   6.617   4.022 -1.0140  0.1143 -0.4990
10965TIP3    H254311   2.069   6.650   4.006 -0.7309 -0.4805  0.7994
10966TIP3   OH254312   5.898   3.963   0.884 -0.1369 -0.2448  0.4029
10966TIP3    H154313   5.962   4.022   0.925 -1.1844  0.8626  0.5037
10966TIP3    H254314   5.818   3.976   0.935  0.3188 -4.0552  2.4395
10967TIP3   OH254315   4.310   3.259   2.947  0.3550 -0.1108 -0.1486
10967TIP3    H154316   4.269   3.176   2.969 -0.5852  0.6545  1.1373
10967TIP3    H254317   4.365   3.240   2.871  1.8242 -2.3758  1.3496
10968TIP3   OH254318   5.503   3.350   4.128  0.1668  0.2715 -0.2504
10968TIP3    H154319   5.507   3.425   4.187 -0.7108  0.7382 -0.7645
10968TIP3    H254320   5.418   3.358   4.084  1.2281  0.5709 -2.4093
10969TIP3   OH254321   5.007   4.609   3.554 -0.3091 -0.0529  0.3116
10969TIP3    H154322   4.950   4.539   3.586  0.0164  0.0049  1.0358
10969TIP3    H254323   5.054   4.570   3.480 -0.8447 -0.2856  0.0879
10970TIP3   OH254324   0.168   3.010  13.682  0.2564 -0.3922 -0.2188
10970TIP3    H154325   0.089   2.960  13.701 -0.4714  0.0258 -1.9092
10970TIP3    H254326   0.137   3.101  13.674  1.3277  0.1713  1.4897
10971TIP3   OH254327   2.461   0.418  14.609 -0.6480 -0.4955  0.0894
10971TIP3    H154328   2.440   0.445  14.519 -1.0867  1.6778  0.7741
10971TIP3    H254329   2.548   0.380  14.603 -0.1720  0.6897 -1.1150
10972TIP3   OH254330   0.090   1.387  11.478 -0.3149  0.4943 -0.2390
10972TIP3    H154331   0.143   1.319  11.518 -0.1810  0.4864 -0.4271
10972TIP3    H254332   0.015   1.340  11.440 -0.9597  0.6054  0.8437
10973TIP3   OH254333   0.641   2.136  16.720  0.2154 -0.0308  0.4590
10973TIP3    H154334   0.585   2.200  16.764 -1.0712 -0.1567 -0.9334
10973TIP3    H254335   0.727   2.178  16.718 -0.7098  1.9326 -0.8924
10974TIP3   OH254336   5.736   4.679   0.759 -0.4805  0.3053 -0.0160
10974TIP3    H154337   5.663   4.735   0.785 -0.7049 -0.9873  2.4848
10974TIP3    H254338   5.782   4.660   0.841 -0.1346 -2.6710 -0.7846
10975TIP3   OH254339   5.234   1.288  12.479  0.5164 -0.6352  0.0628
10975TIP3    H154340   5.308   1.317  12.533 -0.3582 -0.1832  1.0666
10975TIP3    H254341   5.214   1.200  12.512 -0.3618 -0.1487  0.8870
10976TIP3   OH254342   2.926   4.412   3.229  0.2907 -0.1538  0.4904
10976TIP3    H154343   2.900   4.321   3.220  0.4308 -0.2361  0.8768
10976TIP3    H254344   2.998   4.423   3.167 -0.6998  0.1028 -0.6589
10977TIP3   OH254345   2.960   0.561  11.035  0.0336 -0.1614 -0.5622
10977TIP3    H154346   2.999   0.585  10.951 -0.6425  1.0804 -0.5474
10977TIP3    H254347   3.031   0.521  11.084  0.6380 -0.1897 -1.4448
10978TIP3   OH254348   3.658   4.298  12.106  0.5524 -0.0590 -0.3195
10978TIP3    H154349   3.661   4.232  12.175  0.2770 -0.3923 -0.6241
10978TIP3    H254350   3.733   4.278  12.050 -1.2408 -2.0698 -2.1721
10979TIP3   OH254351   2.950   2.209  10.831  0.4049  0.2323  0.0881
10979TIP3    H154352   2.857   2.220  10.849 -0.1179 -1.9786 -0.9077
10979TIP3    H254353   2.956   2.125  10.784  3.0256 -0.3593  1.2636
10980TIP3   OH254354   2.959   2.439  12.015 -0.3096  0.3734  0.0515
10980TIP3    H154355   3.021   2.448  11.943 -0.4412  1.5938  0.0641
10980TIP3    H254356   2.968   2.348  12.043  0.5256  0.1744 -0.7901
10981TIP3   OH254357   2.695   2.032   1.401 -0.1426 -0.9367  0.0707
10981TIP3    H154358   2.689   2.002   1.492 -0.7298 -0.6815  0.1192
10981TIP3    H254359   2.722   1.954   1.352 -0.5448 -1.2675  0.3621
10982TIP3   OH254360   3.045   2.912   6.122  0.0409 -0.1991  0.2472
10982TIP3    H154361   3.067   3.005   6.114  0.4294 -0.3065  0.0181
10982TIP3    H254362   3.031   2.883   6.032  0.9568 -0.6018  0.2259
10983TIP3   OH254363   6.187   1.389   2.613  0.0385  0.2916 -0.8350
10983TIP3    H154364   6.222   1.319   2.558  0.0476  1.5377 -2.4984
10983TIP3    H254365   6.241   1.385   2.693  0.2173 -1.3787 -0.9988
10984TIP3   OH254366   1.224   0.335  13.967 -0.0704  0.3235  0.5697
10984TIP3    H154367   1.152   0.276  13.943  0.1740  0.0439  0.5102
10984TIP3    H254368   1.299   0.302  13.917  0.4729 -0.3244  1.7558
10985TIP3   OH254369   1.885   0.572   1.968 -0.1132 -0.4605  0.2009
10985TIP3    H154370   1.837   0.520   2.033 -1.2948  1.9492  1.3769
10985TIP3    H254371   1.863   0.532   1.884 -0.5960 -2.1057  1.0649
10986TIP3   OH254372   3.402   1.927  16.076  0.2525  0.1368  0.4395
10986TIP3    H154373   3.312   1.902  16.054  0.1388 -0.3445  1.3942
10986TIP3    H254374   3.393   2.004  16.132  0.2747 -1.2441  2.4538
10987TIP3   OH254375   0.137   4.802  12.685 -0.2932  0.8091 -0.2546
10987TIP3    H154376   0.211   4.862  12.694  1.3556 -1.3187  1.1875
10987TIP3    H254377   0.062   4.851  12.718 -0.0423  3.6884 -3.4217
10988TIP3   OH254378   6.535   0.434   3.973 -0.1373 -0.0775 -0.0100
10988TIP3    H154379   6.604   0.386   3.928  0.3551  0.8853 -0.3205
10988TIP3    H254380   6.546   0.411   4.065  0.8765  0.3752 -0.0030
10989TIP3   OH254381   1.950   3.093   3.094  0.2684 -0.3239 -0.6593
10989TIP3    H154382   1.925   3.147   3.169  0.0636 -2.1063  0.6103
10989TIP3    H254383   2.028   3.046   3.124 -0.1140 -1.4387 -1.3891
10990TIP3   OH254384   5.177   6.670   2.919 -0.0786 -0.6887  0.8474
10990TIP3    H154385   5.129   6.624   2.988  0.7431 -2.5333  0.2705
10990TIP3    H254386   5.109   6.711   2.865 -1.0166 -2.6647  0.4330
10991TIP3   OH254387   0.477   1.305   2.739 -0.3575 -0.5559 -0.7541
10991TIP3    H154388   0.490   1.251   2.661 -0.1745  1.9899 -2.6184
10991TIP3    H254389   0.384   1.328   2.737 -0.6618 -1.5379  0.5888
10992TIP3   OH254390   5.145   2.670   5.201  0.3602  0.4117  0.0716
10992TIP3    H154391   5.103   2.667   5.288  1.6212  1.5567  0.7439
10992TIP3    H254392   5.212   2.601   5.205 -1.5293 -1.6484 -1.1198
10993TIP3   OH254393   3.132   1.476   2.229 -0.8697  0.3386  0.3374
10993TIP3    H154394   3.136   1.553   2.174 -0.4382 -0.8725 -1.4068
10993TIP3    H254395   3.220   1.469   2.268 -0.8583  0.6166  0.3617
10994TIP3   OH254396   2.753   5.521  11.399  0.1054 -0.0822  0.6000
10994TIP3    H154397   2.824   5.458  11.413  0.4345 -0.0134 -0.6633
10994TIP3    H254398   2.797   5.605  11.387  0.2400 -0.5224 -3.7950
10995TIP3   OH254399   5.716   0.633  13.456 -0.1993 -0.1754  0.4497
10995TIP3    H154400   5.680   0.713  13.420  0.1140  1.7277  3.9425
10995TIP3    H254401   5.669   0.563  13.411 -4.5441  2.0279  1.0150
10996TIP3   OH254402   1.231   6.264  16.921  0.1076  0.0941 -0.3050
10996TIP3    H154403   1.279   6.240  16.842  0.3615 -0.7157  0.0754
10996TIP3    H254404   1.139   6.263  16.896  0.2049  0.1766 -0.6668
10997TIP3   OH254405   5.694   5.235  16.826  0.2695 -0.4141 -0.7353
10997TIP3    H154406   5.770   5.216  16.770 -0.3807 -1.1488 -1.3894
10997TIP3    H254407   5.730   5.240  16.915  1.3578  0.9852 -1.2084
10998TIP3   OH254408   5.651   1.767  10.711  0.0234 -0.5306  0.1367
10998TIP3    H154409   5.685   1.685  10.676  0.0595 -0.1235 -0.7928
10998TIP3    H254410   5.619   1.815  10.635  1.6718  1.1186  0.4152
10999TIP3   OH254411   1.470   3.085   0.493  0.3715  0.2758 -0.8969
10999TIP3    H154412   1.452   3.053   0.582  2.6739  0.4487 -0.3194
10999TIP3    H254413   1.449   3.010   0.436  0.3546 -0.3629 -0.0729
11000TIP3   OH254414   2.654   6.711  12.185 -0.7866  0.1845 -0.1295
11000TIP3    H154415   2.740   6.744  12.157 -0.9206  1.2439  0.6229
11000TIP3    H254416   2.673   6.651  12.257 -0.7164  1.2005  0.7196
11001TIP3   OH254417   6.236   0.489   1.908  0.0674  0.2158  0.3967
11001TIP3    H154418   6.208   0.406   1.944 -0.3139 -0.2140 -0.8422
11001TIP3    H254419   6.164   0.517   1.852  0.1642  1.4199  0.8351
11002TIP3   OH254420   2.902   3.278  17.390  0.1232  0.3102 -0.2832
11002TIP3    H154421   2.951   3.236  17.319 -0.6388 -0.2373 -0.4912
11002TIP3    H254422   2.874   3.362  17.353 -0.2969  0.0127 -0.6465
11003TIP3   OH254423   0.905   2.227  12.221 -0.3313  0.1644  0.5409
11003TIP3    H154424   0.999   2.243  12.225 -0.4081  0.3953  1.9924
11003TIP3    H254425   0.865   2.307  12.255 -1.0533 -0.0022  0.1216
11004TIP3   OH254426   1.475   3.597  13.009  0.0405 -0.5666 -0.3433
11004TIP3    H154427   1.421   3.632  12.938 -1.4537 -3.2455 -0.6497
11004TIP3    H254428   1.561   3.583  12.968  0.4619  1.8121 -0.4104
11005TIP3   OH254429   1.407   1.163  16.748  0.1826  0.2199  0.2729
11005TIP3    H154430   1.387   1.197  16.835  1.4208 -1.0697  1.1062
11005TIP3    H254431   1.477   1.099  16.763  0.8666  0.4333 -1.7466
11006TIP3   OH254432   2.450   3.469  11.656 -0.2039 -0.1385  0.5139
11006TIP3    H154433   2.465   3.391  11.603  1.6240  0.2038  0.4719
11006TIP3    H254434   2.483   3.542  11.603 -0.3395  0.4678  1.2352
11007TIP3   OH254435   4.627   5.991  14.938 -0.1390  0.3067  0.2636
11007TIP3    H154436   4.692   5.945  14.993 -1.1099  0.4971  1.6264
11007TIP3    H254437   4.569   5.922  14.907 -1.7290  0.5190  2.4903
11008TIP3   OH254438   3.670   1.082   1.880 -0.0259 -0.0835  0.0806
11008TIP3    H154439   3.664   1.136   1.959  0.1180  0.7894 -0.4865
11008TIP3    H254440   3.736   1.126   1.826  0.7511 -1.3231 -0.0293
11009TIP3   OH254441   5.274   4.582   4.462  0.2856 -0.1766 -0.3537
11009TIP3    H154442   5.338   4.652   4.471  0.9814 -1.0600  2.4268
11009TIP3    H254443   5.320   4.513   4.415  1.0895 -0.4246  0.7645
11010TIP3   OH254444   4.729   5.114  12.132  0.2272 -0.1264  0.6543
11010TIP3    H154445   4.684   5.167  12.199 -1.4560  1.2597 -1.4377
11010TIP3    H254446   4.667   5.044  12.112  0.9331 -0.8200  0.8700
11011TIP3   OH254447   6.133   5.495  13.714 -0.6143 -0.3167 -0.5626
11011TIP3    H154448   6.110   5.417  13.764  0.8400 -0.7544 -0.5335
11011TIP3    H254449   6.065   5.559  13.736 -0.2431 -0.6278  1.6495
11012TIP3   OH254450   6.234   6.022   3.848 -0.3024 -0.3065 -0.0096
11012TIP3    H154451   6.149   5.989   3.879 -0.3987 -0.9200 -0.9039
11012TIP3    H254452   6.298   5.983   3.908 -0.7768  2.3555  2.4758
11013TIP3   OH254453   4.803   5.972  12.520 -0.2961  0.3503  0.7475
11013TIP3    H154454   4.766   6.051  12.559 -1.6901 -1.1805  2.7100
11013TIP3    H254455   4.855   5.932  12.590  0.0035 -0.7145 -0.0529
11014TIP3   OH254456   5.236   0.538   0.956  0.3216  0.3372  0.2833
11014TIP3    H154457   5.258   0.627   0.983 -0.9927  0.4515  1.0583
11014TIP3    H254458   5.315   0.488   0.973  0.9570  1.2756  0.1931
11015TIP3   OH254459   2.218   3.837   3.064 -0.0450  0.2604 -0.1591
11015TIP3    H154460   2.282   3.806   3.129 -1.2693  0.5926  1.2559
11015TIP3    H254461   2.244   3.927   3.046  0.6603 -0.0235 -0.6162
11016TIP3   OH254462   0.304   0.007   0.371  0.3970 -0.0061  0.5441
11016TIP3    H154463   0.257   0.084   0.401  0.0521 -0.4499  1.1753
11016TIP3    H254464   0.235  -0.055   0.346  0.6548 -0.3680  0.7187
11017TIP3   OH254465   6.163   3.884   5.802 -0.3897 -0.1999  0.1196
11017TIP3    H154466   6.153   3.846   5.890  0.3907  2.4585  1.4426
11017TIP3    H254467   6.105   3.960   5.802  1.8858  1.6273 -0.5382
11018TIP3   OH254468   3.845   0.257  14.688  0.1899 -0.2224 -0.2271
11018TIP3    H154469   3.828   0.315  14.762  1.0788 -0.5792  0.2714
11018TIP3    H254470   3.897   0.310  14.627  0.7659 -0.3995  0.1035
11019TIP3   OH254471   6.069   2.169  16.642 -0.3811 -0.3219  0.0004
11019TIP3    H154472   6.114   2.252  16.658 -0.1871 -0.4897  0.3436
11019TIP3    H254473   5.979   2.186  16.671 -0.0109 -0.6518  1.4539
11020TIP3   OH254474   4.805   5.463  13.634  0.2606 -0.0838  0.3526
11020TIP3    H154475   4.809   5.460  13.538  0.5317  1.2757  0.2901
11020TIP3    H254476   4.745   5.535  13.653  0.4967 -0.0970  1.1908
11021TIP3   OH254477   4.183   6.154   3.332  0.3781  0.6925 -0.3690
11021TIP3    H154478   4.102   6.155   3.283 -0.2196 -2.0230  0.3718
11021TIP3    H254479   4.167   6.212   3.407 -1.5765 -1.0480  0.6646
11022TIP3   OH254480   4.787   2.939  13.205  0.0119 -0.6185  0.8881
11022TIP3    H154481   4.727   2.922  13.132  0.8444 -1.4512  0.3839
11022TIP3    H254482   4.843   2.862  13.209  0.6767 -0.1088  1.7255
11023TIP3   OH254483   6.187   6.139  16.199  0.5308  0.3284 -1.2885
11023TIP3    H154484   6.280   6.117  16.207  0.7748  1.2848 -1.4148
11023TIP3    H254485   6.182   6.231  16.225 -0.6339 -0.1598  0.3825
11024TIP3   OH254486   5.984   2.640  16.048  0.1709 -0.1226  0.0340
11024TIP3    H154487   5.974   2.620  16.141  1.6708 -0.8783  0.0568
11024TIP3    H254488   5.923   2.712  16.033  0.6403  0.7170  1.8385
11025TIP3   OH254489   0.812   3.260   4.800  0.1504 -0.2127 -0.2498
11025TIP3    H154490   0.864   3.181   4.793  0.8813  0.1987  0.4824
11025TIP3    H254491   0.769   3.254   4.885 -1.7271 -0.9688 -1.1957
11026TIP3   OH254492   2.244   2.050   4.625 -0.6903  0.1034 -0.4922
11026TIP3    H154493   2.305   2.047   4.551  0.1071 -1.5493  0.1906
11026TIP3    H254494   2.243   2.142   4.652  1.4285  0.1964 -0.5855
11027TIP3   OH254495   1.840   1.284   5.234 -0.8423 -0.2641 -0.1698
11027TIP3    H154496   1.890   1.206   5.211 -0.1620  0.2199 -0.3650
11027TIP3    H254497   1.751   1.252   5.248 -0.6446 -1.0197 -0.5732
11028TIP3   OH254498   5.019   4.006   2.698 -0.8472  0.1697 -0.1849
11028TIP3    H154499   5.074   4.083   2.684 -0.1763 -0.1162  0.8009
11028TIP3    H254500   5.056   3.964   2.775  0.6520 -2.7246 -2.2859
11029TIP3   OH254501   5.750   6.578   3.642  0.2645  0.0700  0.2385
11029TIP3    H154502   5.798   6.566   3.560  1.3102  0.6916  0.7541
11029TIP3    H254503   5.693   6.653   3.625 -1.2336 -1.1995 -0.6679
11030TIP3   OH254504   1.660   3.222   3.779  0.1484 -0.2031 -0.3818
11030TIP3    H154505   1.599   3.192   3.847 -0.0833 -0.9281 -0.9001
11030TIP3    H254506   1.734   3.161   3.786  0.9235  0.7936  0.3787
11031TIP3   OH254507   5.096   0.842   4.249  0.2229  0.2250 -0.7988
11031TIP3    H154508   5.055   0.756   4.259  2.9627 -1.1171 -0.0591
11031TIP3    H254509   5.113   0.849   4.155  2.2155 -1.3028 -0.6461
11032TIP3   OH254510   0.144   4.565   3.741  0.2605 -0.6172  0.1647
11032TIP3    H154511   0.115   4.550   3.830  0.8082 -0.9107  0.3012
11032TIP3    H254512   0.185   4.652   3.743  0.2647 -0.6199  0.1999
11033TIP3   OH254513   0.706   2.405  11.860  0.0387 -0.2666  0.1009
11033TIP3    H154514   0.743   2.439  11.778  1.6245  0.6158  1.1200
11033TIP3    H254515   0.765   2.335  11.885  0.5981  0.6049  1.3303
11034TIP3   OH254516   1.760   0.571  12.400 -0.4615  0.0509  0.1419
11034TIP3    H154517   1.681   0.594  12.449 -0.2651  1.4406 -0.1754
11034TIP3    H254518   1.823   0.640  12.420 -0.1928  0.3719 -1.6389
11035TIP3   OH254519   3.043   6.103   3.327 -0.6636  0.9783  0.4241
11035TIP3    H154520   3.024   6.045   3.400 -0.7127  0.6686  0.1702
11035TIP3    H254521   2.959   6.146   3.308 -1.1528 -0.3993 -0.7062
11036TIP3   OH254522   2.025   5.645  11.259  0.4386  0.2859 -0.1858
11036TIP3    H154523   2.034   5.653  11.165 -2.0255  0.2843 -0.4878
11036TIP3    H254524   1.985   5.727  11.287  0.6699  0.0802  0.7943
11037TIP3   OH254525   4.580   5.047   2.490 -0.4405  0.8932 -0.3113
11037TIP3    H154526   4.514   5.028   2.557  1.1904  1.3996  1.5321
11037TIP3    H254527   4.603   4.962   2.454 -0.1787  0.4024  0.9536
11038TIP3   OH254528   3.642   5.345  16.723  0.3244 -0.3769 -0.2344
11038TIP3    H154529   3.586   5.276  16.687  0.0058 -0.0309 -0.4113
11038TIP3    H254530   3.602   5.427  16.694 -0.6421 -0.0250  1.8918
11039TIP3   OH254531   1.132   4.747   1.494  0.4832 -0.4836 -0.0206
11039TIP3    H154532   1.161   4.838   1.499 -0.2233 -0.1392 -1.7970
11039TIP3    H254533   1.189   4.700   1.556  0.5477  1.2101  1.2698
11040TIP3   OH254534   5.158   3.069   4.766  0.1870  0.0510 -0.1975
11040TIP3    H154535   5.193   3.001   4.823 -0.3865 -1.1152 -1.1821
11040TIP3    H254536   5.066   3.077   4.791 -0.1892 -0.8086 -1.2431
11041TIP3   OH254537   5.336   5.854   4.920 -0.0685 -0.8439 -0.2682
11041TIP3    H154538   5.415   5.865   4.974 -1.0748 -0.5015  1.1972
11041TIP3    H254539   5.299   5.770   4.950  0.1794 -1.4470 -1.5699
11042TIP3   OH254540   0.622   6.451  14.666 -0.4916 -0.1629  0.0158
11042TIP3    H154541   0.683   6.456  14.739 -0.9831  1.2922  0.3601
11042TIP3    H254542   0.561   6.524  14.680 -2.1459 -1.3680 -0.4654
11043TIP3   OH254543   5.253   6.620  14.908 -0.3337  0.1633  0.0076
11043TIP3    H154544   5.164   6.626  14.871 -0.8063  0.1191  1.0895
11043TIP3    H254545   5.298   6.696  14.873 -0.4603 -0.3717 -1.3961
11044TIP3   OH254546   2.896   0.139   1.894  0.2661  0.4306  0.0078
11044TIP3    H154547   2.848   0.220   1.882  0.5898  0.7863  1.0044
11044TIP3    H254548   2.946   0.152   1.975  4.4282  1.2710 -2.4073
11045TIP3   OH254549   2.413   0.064  14.861 -0.1143 -0.0614 -0.1545
11045TIP3    H154550   2.501   0.058  14.898 -0.5953  0.7823  1.1893
11045TIP3    H254551   2.389   0.156  14.869 -0.4580  0.0608 -2.1354
11046TIP3   OH254552   3.060   2.972   5.672 -0.1125  0.1720  0.0573
11046TIP3    H154553   3.013   2.907   5.621  0.8937 -0.8254  0.3577
11046TIP3    H254554   3.052   2.942   5.763 -0.1680  0.8159  0.2745
11047TIP3   OH254555   3.468   5.574  16.703  0.5483 -0.2060  0.0451
11047TIP3    H154556   3.482   5.528  16.620 -0.1761 -0.7187  0.1995
11047TIP3    H254557   3.377   5.555  16.726 -0.3347  2.6413 -0.6927
11048TIP3   OH254558   6.558   2.170   3.805  0.5260 -0.2080  0.2638
11048TIP3    H154559   6.581   2.082   3.835  4.3463 -0.3342 -2.2550
11048TIP3    H254560   6.517   2.156   3.720 -2.0268  0.4572  1.2858
11049TIP3   OH254561   1.085   1.570   1.783 -0.4414 -0.3041  0.0632
11049TIP3    H154562   1.048   1.658   1.793  0.0023 -0.2029  0.9604
11049TIP3    H254563   1.155   1.566   1.849  1.4730 -0.3340 -1.8425
11050TIP3   OH254564   5.137   5.833  15.189 -0.3583  0.2656 -0.1972
11050TIP3    H154565   5.069   5.857  15.252 -0.0230 -0.3499  0.4059
11050TIP3    H254566   5.128   5.738  15.179  0.1084  0.2481 -0.4754
11051TIP3   OH254567   1.615   5.819  12.871 -0.0049 -0.2553 -0.8777
11051TIP3    H154568   1.630   5.797  12.779  2.1829  1.9628 -1.1508
11051TIP3    H254569   1.570   5.903  12.869  0.2230 -0.0915  0.0556
11052TIP3   OH254570   2.664   3.353   2.965 -0.2128 -0.0700  0.4155
11052TIP3    H154571   2.685   3.394   3.048 -1.2699 -1.7338  1.5716
11052TIP3    H254572   2.748   3.319   2.933  0.1880  0.5071  0.8433
11053TIP3   OH254573   2.863   4.497  15.780  0.4613  0.4500  0.6338
11053TIP3    H154574   2.868   4.493  15.876  0.8831  2.1507  0.7137
11053TIP3    H254575   2.862   4.590  15.760 -2.3307  0.2023 -0.9072
11054TIP3   OH254576   3.432   3.588  15.910  0.1844 -0.5226  0.4276
11054TIP3    H154577   3.371   3.622  15.844  1.1956 -0.2957 -0.4033
11054TIP3    H254578   3.505   3.552  15.860  1.8802  1.3562  1.4402
11055TIP3   OH254579   2.484   2.927  11.573 -0.7625 -0.5985 -0.1200
11055TIP3    H154580   2.390   2.906  11.567 -0.7697 -0.7981  0.6133
11055TIP3    H254581   2.514   2.880  11.651 -0.6535  1.6415  1.2545
11056TIP3   OH254582   1.383   5.675   2.495 -0.2762  0.0369 -0.3186
11056TIP3    H154583   1.455   5.706   2.439  0.1276 -0.3376 -0.0155
11056TIP3    H254584   1.394   5.723   2.577  1.0159 -1.6409  0.5573
11057TIP3   OH254585   6.269   1.965   4.602 -0.2375 -0.1232  0.1177
11057TIP3    H154586   6.305   2.054   4.595 -0.9459  0.3361  1.7623
11057TIP3    H254587   6.335   1.909   4.560  0.3392  1.1384 -0.7255
11058TIP3   OH254588   2.382   4.120  12.340  0.8788  0.1010  0.4977
11058TIP3    H154589   2.435   4.108  12.419  1.5846  0.0927  0.0289
11058TIP3    H254590   2.322   4.191  12.362 -2.3929 -2.9954  2.8488
11059TIP3   OH254591   1.810   4.579   3.025 -0.4170  0.0219  0.1543
11059TIP3    H154592   1.843   4.525   2.954  3.2791 -0.2873  1.8756
11059TIP3    H254593   1.836   4.533   3.105  1.2091  3.2442  1.6959
11060TIP3   OH254594   5.617   1.112  14.184  0.6496 -0.0112  0.3559
11060TIP3    H154595   5.612   1.161  14.266  3.3386  0.4356  0.3560
11060TIP3    H254596   5.614   1.020  14.211 -2.4695  0.0515  0.5253
11061TIP3   OH254597   5.196   0.465  15.462  0.3814  0.6508 -0.2722
11061TIP3    H154598   5.141   0.505  15.530 -0.4711 -1.1638  0.1641
11061TIP3    H254599   5.208   0.534  15.398  1.8428  2.7019  2.0243
11062TIP3   OH254600   1.320   5.766  17.195 -0.3731 -0.1294  0.0626
11062TIP3    H154601   1.349   5.856  17.206  2.2220 -0.6385 -1.7028
11062TIP3    H254602   1.262   5.768  17.119  2.3893 -0.3081 -2.2071
11063TIP3   OH254603   0.895   0.479   1.729  0.3235  0.3460  0.1773
11063TIP3    H154604   0.940   0.429   1.797 -0.6963 -1.3282 -0.3328
11063TIP3    H254605   0.864   0.558   1.774 -0.6441 -0.8827  1.7655
11064TIP3   OH254606   0.902   0.253   2.706  0.1086 -0.2537  0.6387
11064TIP3    H154607   0.909   0.170   2.753  2.9956  0.2547  1.2984
11064TIP3    H254608   0.967   0.309   2.748 -1.3782  2.1891 -0.1512
11065TIP3   OH254609   4.652   6.451  15.355  0.4674  0.4674  0.3518
11065TIP3    H154610   4.662   6.400  15.435  1.5446 -0.7656 -0.5107
11065TIP3    H254611   4.732   6.504  15.349 -0.3447  1.7957  0.8989
11066TIP3   OH254612   1.062   1.055  14.671 -0.2880 -0.1221  0.1576
11066TIP3    H154613   1.007   0.976  14.661  0.1476 -0.1420 -3.3568
11066TIP3    H254614   1.014   1.123  14.624  1.0687  0.7493 -0.0101
11067TIP3   OH254615   5.882   5.132  13.492 -0.4569 -0.3905 -0.2710
11067TIP3    H154616   5.977   5.128  13.483 -0.4410 -2.6605  0.3820
11067TIP3    H254617   5.857   5.207  13.438  1.8302  1.4428  1.0184
11068TIP3   OH254618   4.477   0.640   4.012  0.3879  0.4230 -0.5049
11068TIP3    H154619   4.524   0.560   3.986 -0.8739 -0.2810 -0.7472
11068TIP3    H254620   4.394   0.607   4.048  0.4065  1.5822  0.6213
11069TIP3   OH254621   5.898   3.708  14.467 -0.0167 -0.0550  0.1885
11069TIP3    H154622   5.873   3.666  14.549  2.1923 -1.0591  0.4337
11069TIP3    H254623   5.952   3.782  14.493 -0.1510  0.2330 -0.3348
11070TIP3   OH254624   1.355   6.057   4.774  0.3442 -0.4598  0.2878
11070TIP3    H154625   1.281   6.109   4.807 -0.9506  1.4392 -4.7976
11070TIP3    H254626   1.433   6.102   4.808 -0.7372  0.1596  2.1255
11071TIP3   OH254627   0.677   3.435   5.714  0.3458  0.1843  0.0457
11071TIP3    H154628   0.650   3.430   5.622 -1.5581  1.6376  0.4659
11071TIP3    H254629   0.766   3.402   5.715  0.1646 -0.4966 -2.2215
11072TIP3   OH254630   5.788   0.827   4.185 -0.2521 -0.0196 -0.7139
11072TIP3    H154631   5.853   0.758   4.196  1.1012  1.3283  0.1637
11072TIP3    H254632   5.705   0.781   4.175  0.6000 -1.7610 -0.0715
11073TIP3   OH254633   1.550   0.579   2.821  0.2176 -0.2272 -0.2124
11073TIP3    H154634   1.639   0.552   2.799 -0.0815 -1.0579 -0.4731
11073TIP3    H254635   1.539   0.664   2.780  1.4171  0.6338  1.1603
11074TIP3   OH254636   2.624   4.702   4.066 -0.4143 -0.2517  0.3628
11074TIP3    H154637   2.662   4.767   4.125 -0.8083 -0.4823  0.8796
11074TIP3    H254638   2.628   4.743   3.980 -1.0611  0.6404  0.7429
11075TIP3   OH254639   4.906   2.586  17.038 -0.5082 -0.2267  0.1953
11075TIP3    H154640   4.877   2.573  16.948  0.6233  2.8787 -0.7666
11075TIP3    H254641   4.830   2.623  17.083 -0.7921 -0.9128  0.2947
11076TIP3   OH254642   0.905   4.002   4.320 -0.0763  0.7049  0.1577
11076TIP3    H154643   0.947   4.046   4.394  0.0708  1.5855 -0.4330
11076TIP3    H254644   0.812   4.024   4.328 -0.2794 -0.3150  0.8269
11077TIP3   OH254645   3.320   1.210   5.064  0.0076 -0.2711 -0.6448
11077TIP3    H154646   3.248   1.154   5.092  0.6654 -0.3842  0.8986
11077TIP3    H254647   3.280   1.297   5.053 -0.1167  0.0189  1.6874
11078TIP3   OH254648   3.133   3.519  17.030  0.6418 -0.1171 -0.4714
11078TIP3    H154649   3.055   3.502  16.978  1.0963 -1.2275 -0.8180
11078TIP3    H254650   3.112   3.598  17.080 -2.1493 -2.3184  2.2588
11079TIP3   OH254651   2.266   5.281   4.148  0.3406  0.1036 -0.4455
11079TIP3    H154652   2.287   5.364   4.191  1.7560  0.5645 -1.9010
11079TIP3    H254653   2.348   5.233   4.147 -0.8069 -2.1143  1.8463
11080TIP3   OH254654   0.897   6.430   3.948 -0.3710 -0.0846  0.2277
11080TIP3    H154655   0.833   6.434   3.877  0.6099 -1.1707 -0.7584
11080TIP3    H254656   0.877   6.349   3.993  0.0979 -0.2623  0.1185
11081TIP3   OH254657   6.048   5.220   4.318 -0.3919  0.5962 -0.2978
11081TIP3    H154658   5.993   5.294   4.344  1.3582  2.0535 -0.5581
11081TIP3    H254659   6.085   5.246   4.234 -0.1601 -0.8385 -0.6754
11082TIP3   OH254660   4.176   2.680   5.783 -0.6277  0.8320  0.7417
11082TIP3    H154661   4.151   2.718   5.699  0.5132  0.5845  0.2775
11082TIP3    H254662   4.108   2.615   5.801 -1.8961  2.1583  0.9314
11083TIP3   OH254663   2.258   0.183   1.812 -0.6525 -0.3281  0.5700
11083TIP3    H154664   2.352   0.176   1.797 -0.8683 -2.1535 -0.3180
11083TIP3    H254665   2.236   0.106   1.865 -1.6381  0.0789  0.7801
11084TIP3   OH254666   3.535   6.534   2.964 -0.2033 -0.3527 -0.1356
11084TIP3    H154667   3.600   6.475   3.002 -0.9978 -0.9623  0.3025
11084TIP3    H254668   3.546   6.524   2.870  0.6039 -0.1518 -0.0685
11085TIP3   OH254669   5.139   4.807   0.001  0.0091 -0.0182 -0.1293
11085TIP3    H154670   5.192   4.861   0.058  0.2488 -2.0863  1.7208
11085TIP3    H254671   5.196   4.735  -0.025 -1.0823 -0.8658 -0.2712
11086TIP3   OH254672   4.700   2.562  12.456 -0.5930  0.2137 -0.2694
11086TIP3    H154673   4.708   2.615  12.377  0.4602 -0.4709 -0.6444
11086TIP3    H254674   4.664   2.621  12.521  0.5510  1.4017 -0.6755
11087TIP3   OH254675   0.714   4.431  15.622 -0.5295 -0.4989 -0.0473
11087TIP3    H154676   0.712   4.499  15.689  0.3446 -0.3306 -0.1787
11087TIP3    H254677   0.769   4.467  15.553 -0.5348 -1.1075 -0.3772
11088TIP3   OH254678   4.493   0.474   6.489  0.2573  0.4514  0.3165
11088TIP3    H154679   4.500   0.516   6.403 -3.2774  1.1015  0.1816
11088TIP3    H254680   4.509   0.545   6.551 -1.2062  1.0094  0.1037
11089TIP3   OH254681   2.326   0.072  17.387 -0.2188  0.5462  0.0715
11089TIP3    H154682   2.403   0.017  17.374 -1.2064 -1.2341  1.3387
11089TIP3    H254683   2.254   0.023  17.347 -0.7097  2.2928 -1.3224
11090TIP3   OH254684   3.482   4.626  16.233 -0.0996 -0.7377  0.0626
11090TIP3    H154685   3.509   4.562  16.167  2.2998 -0.5352  0.7658
11090TIP3    H254686   3.418   4.681  16.188  0.2339 -1.6131 -1.5787
11091TIP3   OH254687   4.715   3.309  12.593  0.0278  0.5255 -0.2248
11091TIP3    H154688   4.655   3.365  12.641 -0.1690 -0.9376  1.3020
11091TIP3    H254689   4.682   3.220  12.606  3.2401 -0.5304  1.9494
11092TIP3   OH254690   2.718   0.089  13.185 -0.6638  0.1191 -0.0507
11092TIP3    H154691   2.655   0.058  13.119  0.5164  0.6373 -1.4865
11092TIP3    H254692   2.802   0.090  13.139 -0.1162  2.4151  0.8755
11093TIP3   OH254693   3.262   3.921  17.156  0.6081  0.0186  0.2972
11093TIP3    H154694   3.188   3.971  17.191  1.0333  0.2214  0.9157
11093TIP3    H254695   3.224   3.837  17.130  0.2343 -0.0390  1.0044
11094TIP3   OH254696   2.620   5.898  14.744 -0.3588  0.6065 -0.3104
11094TIP3    H154697   2.535   5.855  14.757  0.1319  0.1465  1.6816
11094TIP3    H254698   2.598   5.990  14.728 -1.2917  0.1257 -2.1527
11095TIP3   OH254699   2.104   4.762  13.788  0.0774 -0.4993 -0.0162
11095TIP3    H154700   2.039   4.726  13.848 -1.0207  1.6523  0.1833
11095TIP3    H254701   2.188   4.740  13.828 -0.6035  1.1027  2.5668
11096TIP3   OH254702   5.683   5.517   0.916 -0.4816 -0.1729  0.0799
11096TIP3    H154703   5.779   5.523   0.919 -0.4707 -0.5478  1.5289
11096TIP3    H254704   5.660   5.543   0.827  0.9722 -0.1556 -0.3217
11097TIP3   OH254705   4.815   6.374   3.534 -1.2075  0.0909 -0.9013
11097TIP3    H154706   4.738   6.349   3.585 -0.2501 -0.5640  0.2824
11097TIP3    H254707   4.871   6.421   3.597  0.0899 -0.9090 -1.2607
11098TIP3   OH254708   2.265   1.966  15.477  0.2970  0.1198  0.3201
11098TIP3    H154709   2.217   2.016  15.411 -0.6839 -0.3193  0.6846
11098TIP3    H254710   2.351   2.007  15.481 -0.7649  2.4364  1.2940
11099TIP3   OH254711   6.246   3.754   3.102 -0.4979 -0.1528  0.1584
11099TIP3    H154712   6.268   3.761   3.010 -0.4862 -0.8307  0.1022
11099TIP3    H254713   6.216   3.841   3.127 -0.1538  0.1270 -0.3913
11100TIP3   OH254714   5.077   3.964  12.805 -0.2201  0.0834  0.2526
11100TIP3    H154715   5.141   3.928  12.743 -0.0075  0.1926  0.4082
11100TIP3    H254716   5.109   3.936  12.891 -0.1992  0.4215  0.3542
11101TIP3   OH254717   2.080   2.085  12.359 -0.5209  0.0975  0.1222
11101TIP3    H154718   2.174   2.102  12.353 -0.6500  0.6722 -0.3718
11101TIP3    H254719   2.070   1.995  12.327 -0.0999 -0.0989  0.5354
11102TIP3   OH254720   3.237   6.537  12.998  0.3029 -0.0197  0.0502
11102TIP3    H154721   3.276   6.498  13.077 -1.4456  0.8343  1.4057
11102TIP3    H254722   3.299   6.605  12.972  0.6596  0.0307  1.0005
11103TIP3   OH254723   1.342   4.555  11.970  0.2120 -0.0485  0.4574
11103TIP3    H154724   1.309   4.524  11.886  1.6862 -1.6065  0.3794
11103TIP3    H254725   1.286   4.629  11.993 -0.0105  0.6338 -2.0363
11104TIP3   OH254726   0.170   5.934  12.290  0.7496 -0.6348  0.0631
11104TIP3    H154727   0.228   5.994  12.338  2.2706 -0.8064 -1.4277
11104TIP3    H254728   0.132   5.988  12.221 -1.1595 -0.4613  1.1916
11105TIP3   OH254729   5.136   3.778  13.031  0.1205  0.6016 -0.5983
11105TIP3    H154730   5.226   3.759  13.005 -0.4997 -1.6894 -1.2786
11105TIP3    H254731   5.121   3.723  13.107 -1.0074  0.1613 -1.1163
11106TIP3   OH254732   4.809   6.124   1.474  0.7676  0.0973  0.2816
11106TIP3    H154733   4.803   6.032   1.450 -1.3336 -0.0552  1.1442
11106TIP3    H254734   4.798   6.125   1.569 -0.1879  1.2804  0.1808
11107TIP3   OH254735   4.367   6.333   1.231 -0.0741 -0.5469 -0.5956
11107TIP3    H154736   4.294   6.309   1.288  0.6050 -3.3653 -0.7368
11107TIP3    H254737   4.353   6.283   1.150  0.6236  0.9461 -1.7064
11108TIP3   OH254738   4.317   3.848   5.070 -0.4769 -0.8070 -0.0392
11108TIP3    H154739   4.309   3.880   5.160  0.4174 -1.4995  0.3094
11108TIP3    H254740   4.296   3.923   5.015  0.3826  0.0368  0.7465
11109TIP3   OH254741   4.154   4.419  15.510  0.3576  0.2141 -0.3238
11109TIP3    H154742   4.209   4.376  15.445  0.0622 -0.3445 -0.2046
11109TIP3    H254743   4.069   4.430  15.468 -0.2786 -1.4711  0.4439
11110TIP3   OH254744   1.319   5.106  12.654 -0.0467  0.0020 -0.0395
11110TIP3    H154745   1.303   5.011  12.648  0.1692 -0.1004  0.9302
11110TIP3    H254746   1.296   5.129  12.744  0.3468  0.7930 -0.1334
11111TIP3   OH254747   4.252   6.176   3.802  0.1381  0.2391 -0.0288
11111TIP3    H154748   4.313   6.103   3.796  3.1733  2.6410 -0.9250
11111TIP3    H254749   4.206   6.162   3.885 -0.9607 -3.6701 -1.1121
11112TIP3   OH254750   6.082   0.570   0.082 -0.5096  0.2724 -0.1104
11112TIP3    H154751   6.121   0.656   0.098 -1.1226  0.8550 -1.5842
11112TIP3    H254752   6.148   0.508   0.115  1.2801  1.2359 -1.6730
11113TIP3   OH254753   5.134   5.968   1.826 -0.0176 -0.5144 -0.1530
11113TIP3    H154754   5.127   5.988   1.919 -0.1702 -0.7598 -0.1122
11113TIP3    H254755   5.228   5.963   1.809  0.2964  3.9516 -0.9243
11114TIP3   OH254756   4.569   1.461  16.355 -0.2258  0.6864 -0.1878
11114TIP3    H154757   4.496   1.492  16.409  0.6228 -0.7140  1.9025
11114TIP3    H254758   4.640   1.445  16.418  1.2177  0.0469 -1.8896
11115TIP3   OH254759   3.222   6.005  15.372 -0.0879 -0.2105  1.0441
11115TIP3    H154760   3.290   5.999  15.440  2.9543  1.4374 -1.5818
11115TIP3    H254761   3.269   5.992  15.290 -2.8713  1.6286 -1.0181
11116TIP3   OH254762   4.361   1.074   1.581  0.0734 -0.3136  0.4625
11116TIP3    H154763   4.401   1.043   1.662  1.9977 -1.4961 -0.8387
11116TIP3    H254764   4.425   1.135   1.544 -1.2306  1.0222  0.2790
11117TIP3   OH254765   2.222   0.757  12.675 -0.4336 -0.3137 -0.1319
11117TIP3    H154766   2.242   0.665  12.692  1.0117  0.0139  0.1180
11117TIP3    H254767   2.127   0.762  12.673 -0.6292 -1.3402  2.6252
11118TIP3   OH254768   1.546   0.597   0.034  0.7348  0.3258 -0.3316
11118TIP3    H154769   1.498   0.543  -0.028 -0.1730  1.2966 -0.5078
11118TIP3    H254770   1.500   0.585   0.117  0.0490  1.3988 -0.5411
11119TIP3   OH254771   3.529   4.079   2.293  0.3661  0.3421 -0.0768
11119TIP3    H154772   3.491   4.034   2.217  4.0804  0.4110 -2.2678
11119TIP3    H254773   3.578   4.152   2.255  0.7615  1.6119  2.6573
11120TIP3   OH254774   6.058   5.996   5.180 -0.2571 -0.8182 -0.2489
11120TIP3    H154775   6.143   6.039   5.172 -0.9361  0.2791 -2.3002
11120TIP3    H254776   6.074   5.921   5.237  1.9086 -0.2089  0.0175
11121TIP3   OH254777   2.422   2.801   0.400 -0.1833  0.3397 -0.3400
11121TIP3    H154778   2.437   2.843   0.315  3.0988  1.2855  0.5856
11121TIP3    H254779   2.367   2.863   0.448  0.5020  1.2664 -0.7172
11122TIP3   OH254780   4.570   2.300  12.408  0.0009 -0.0569  0.0282
11122TIP3    H154781   4.630   2.374  12.419 -1.3734  0.9263  1.3767
11122TIP3    H254782   4.622   2.223  12.429  1.3412  0.5624 -0.9259
11123TIP3   OH254783   4.837   1.377   5.653  0.4847  0.8819 -0.5980
11123TIP3    H154784   4.807   1.291   5.682  1.7805  0.9045  0.9563
11123TIP3    H254785   4.782   1.397   5.577 -0.7006 -0.7442 -0.2319
11124TIP3   OH254786   5.412   6.708   5.328  0.1195 -0.5319  0.4683
11124TIP3    H154787   5.401   6.697   5.233 -1.9205 -1.4286  0.7548
11124TIP3    H254788   5.324   6.694   5.364  0.8895 -0.4210  2.5266
11125TIP3   OH254789   4.179   2.083   3.717  0.5855 -0.6379  0.5305
11125TIP3    H154790   4.185   2.004   3.769  0.5400 -1.2107 -0.3132
11125TIP3    H254791   4.261   2.087   3.668  0.7541  0.0483  0.8484
11126TIP3   OH254792   4.091   1.399  15.927  0.2871  0.2131  0.2826
11126TIP3    H154793   4.063   1.421  15.838 -2.4650 -1.1129  0.7011
11126TIP3    H254794   4.051   1.467  15.982  2.9237  1.7017  0.4965
11127TIP3   OH254795   1.264   1.991   2.817  0.0470 -0.0889  0.0631
11127TIP3    H154796   1.263   1.909   2.866 -0.6431  0.6854  1.3910
11127TIP3    H254797   1.328   2.046   2.862  0.4741  0.1396 -0.7848
11128TIP3   OH254798   2.116   2.089  11.268 -0.2864  0.4841  0.0845
11128TIP3    H154799   2.195   2.128  11.306  0.3468  0.0168 -0.7209
11128TIP3    H254800   2.044   2.131  11.315  0.4316 -1.6122  3.4372
11129TIP3   OH254801   3.310   5.238  16.347  0.2248 -0.7394 -0.2507
11129TIP3    H154802   3.372   5.197  16.407  0.7691 -2.1946 -1.7389
11129TIP3    H254803   3.298   5.173  16.277 -1.3509  0.3800 -1.0686
11130TIP3   OH254804   0.454   6.073   1.545 -0.3861  0.1890 -0.2924
11130TIP3    H154805   0.389   6.042   1.608 -2.0661 -1.2197 -2.5486
11130TIP3    H254806   0.537   6.071   1.592 -1.5603 -0.6544  1.8700
11131TIP3   OH254807   3.280   3.336   2.615  0.2436  0.1134  0.0231
11131TIP3    H154808   3.267   3.400   2.685 -2.8029 -1.3661  0.9886
11131TIP3    H254809   3.357   3.287   2.640  0.0533  0.5726  1.5775
11132TIP3   OH254810   2.904   2.176  14.489 -0.3912 -0.2893  0.6711
11132TIP3    H154811   2.987   2.143  14.455 -0.7478 -2.3009  1.6024
11132TIP3    H254812   2.906   2.270  14.470  1.3645 -0.5627 -0.7723
11133TIP3   OH254813   1.356   4.622  13.492 -0.3915 -0.2703 -0.3769
11133TIP3    H154814   1.434   4.571  13.509 -0.1386  0.1957 -0.1102
11133TIP3    H254815   1.285   4.572  13.532 -0.0633 -0.1141  0.4118
11134TIP3   OH254816   3.880   1.908   3.735  0.0687  0.3583  0.0433
11134TIP3    H154817   3.963   1.911   3.783 -0.5070  1.1867  1.0365
11134TIP3    H254818   3.892   1.838   3.671  2.0355  1.3973 -0.7883
11135TIP3   OH254819   2.457   5.289   5.899 -0.2770 -0.3985 -0.3897
11135TIP3    H154820   2.533   5.271   5.954  0.3355  0.7760 -0.8184
11135TIP3    H254821   2.428   5.377   5.925 -0.4596 -0.1490 -1.3901
11136TIP3   OH254822   5.816   4.251   3.847  0.1319  0.1779 -0.0641
11136TIP3    H154823   5.736   4.208   3.878 -0.0311  1.1913  1.0074
11136TIP3    H254824   5.860   4.186   3.793 -1.0996 -0.6194 -0.1318
11137TIP3   OH254825   3.218   3.051  11.183 -0.2920  0.3926  0.5288
11137TIP3    H154826   3.136   3.092  11.209  0.2489  0.4349  2.3330
11137TIP3    H254827   3.216   2.965  11.225 -0.6178 -0.8007 -1.7344
11138TIP3   OH254828   2.419   2.224  15.501 -0.4559  0.4093 -0.2990
11138TIP3    H154829   2.438   2.308  15.459 -0.5580  0.1574 -0.8650
11138TIP3    H254830   2.340   2.240  15.552  0.0773  0.9103  0.3733
11139TIP3   OH254831   3.768   1.587  13.718 -0.7039 -0.1960 -0.0705
11139TIP3    H154832   3.711   1.526  13.673 -1.1875 -0.3529  0.7308
11139TIP3    H254833   3.762   1.562  13.810 -0.9508  1.0881  0.2825
11140TIP3   OH254834   4.475   5.877   5.298 -0.2188  0.6526  0.1903
11140TIP3    H154835   4.498   5.940   5.230 -1.2075  1.2334  0.3651
11140TIP3    H254836   4.395   5.835   5.266  0.6734 -0.8572 -0.1256
11141TIP3   OH254837   0.365   5.956  17.108 -0.2604  0.5150  0.2912
11141TIP3    H154838   0.421   6.026  17.073  0.1764  0.2027  0.3633
11141TIP3    H254839   0.396   5.943  17.197  0.1288 -0.2496  0.0577
11142TIP3   OH254840   1.061   5.527  13.077  0.4678  0.3552  0.0416
11142TIP3    H154841   1.062   5.623  13.071 -2.5156  0.4508 -0.0847
11142TIP3    H254842   1.014   5.509  13.157 -0.6479 -0.9963 -0.8833
11143TIP3   OH254843   6.329   2.679  14.341  0.1708 -0.0366  0.3828
11143TIP3    H154844   6.268   2.704  14.410 -1.0467 -0.3943 -0.5257
11143TIP3    H254845   6.362   2.762  14.307  1.1989  0.1323  1.7254
11144TIP3   OH254846   4.110   6.412  12.917  0.2822 -0.2775  0.6690
11144TIP3    H154847   4.100   6.505  12.896  0.5248 -0.3611  0.1792
11144TIP3    H254848   4.193   6.387  12.876 -0.1643 -0.9049  0.1341
11145TIP3   OH254849   4.037   0.112  14.555  0.4533  0.4254 -0.2676
11145TIP3    H154850   3.986   0.109  14.473  0.1480  2.0066 -0.1701
11145TIP3    H254851   3.972   0.131  14.622  0.8019 -0.2321  0.2668
11146TIP3   OH254852   4.146   4.434   6.294  0.0896 -0.5603 -0.1482
11146TIP3    H154853   4.095   4.366   6.338  1.5471 -2.2957 -1.0247
11146TIP3    H254854   4.217   4.454   6.355 -0.5103  0.4586  0.2459
11147TIP3   OH254855   2.054   6.346   0.578 -0.3050  0.0539  0.2267
11147TIP3    H154856   2.145   6.321   0.562 -0.2805 -1.2878  2.1361
11147TIP3    H254857   2.002   6.281   0.530 -0.2665  0.1548  0.0460
11148TIP3   OH254858   5.037   1.389   2.405  0.1997  0.0197 -0.6175
11148TIP3    H154859   5.130   1.372   2.420 -0.2120 -1.4686  0.4910
11148TIP3    H254860   5.031   1.409   2.311  1.3675 -2.0447 -1.2000
11149TIP3   OH254861   2.450   5.139   6.198  0.5083  0.3437  0.0499
11149TIP3    H154862   2.475   5.155   6.290 -1.0958 -2.0265  1.0009
11149TIP3    H254863   2.528   5.160   6.148  2.5527 -1.3283  2.2966
11150TIP3   OH254864   6.339   3.620  14.097 -0.2557 -0.2611 -0.5469
11150TIP3    H154865   6.396   3.562  14.149  0.3707 -0.7043 -1.6908
11150TIP3    H254866   6.341   3.703  14.144 -0.4492 -0.9034  0.6412
11151TIP3   OH254867   0.310   1.415   0.246  0.9713 -0.1733  0.3227
11151TIP3    H154868   0.290   1.446   0.334 -0.6792  0.1345 -0.1124
11151TIP3    H254869   0.404   1.425   0.237  1.0927  0.2877  1.8632
11152TIP3   OH254870   3.265   4.314   2.297  0.7818 -0.1494 -0.2281
11152TIP3    H154871   3.280   4.401   2.333  0.9432 -0.0432 -0.5438
11152TIP3    H254872   3.288   4.322   2.204 -2.6236  0.4263 -1.1654
11153TIP3   OH254873   1.802   0.487   2.790  0.1086 -0.4450 -0.2388
11153TIP3    H154874   1.878   0.477   2.847  0.3266  0.4357 -0.3505
11153TIP3    H254875   1.798   0.406   2.740 -0.2315 -1.3302  1.1793
11154TIP3   OH254876   0.002   5.106  12.003 -0.1749  0.2599 -0.7747
11154TIP3    H154877   0.052   5.070  12.075 -1.7769 -0.0913  0.1929
11154TIP3    H254878  -0.053   5.034  11.971 -2.2186  1.3147  0.1343
11155TIP3   OH254879   2.618   1.065  15.875  0.0429 -0.6008  0.3518
11155TIP3    H154880   2.628   1.054  15.780  0.6052 -0.3874  0.3827
11155TIP3    H254881   2.628   1.160  15.888 -1.0008 -0.4955  0.5163
11156TIP3   OH254882   6.272   3.312   4.789  0.1788 -0.2563 -0.3423
11156TIP3    H154883   6.303   3.318   4.880 -0.6369 -0.3954 -0.0505
11156TIP3    H254884   6.278   3.401   4.756  1.4128 -0.3643 -0.4765
11157TIP3   OH254885   4.389   2.031   3.518  0.1640 -0.0133 -0.2312
11157TIP3    H154886   4.349   1.999   3.437 -1.9851  1.0223  0.3436
11157TIP3    H254887   4.448   2.101   3.490 -0.5190  0.2977 -0.9209
11158TIP3   OH254888   0.888   0.217  10.662 -0.2694 -0.1171  0.6030
11158TIP3    H154889   0.921   0.147  10.605  1.4508 -0.0547  1.4560
11158TIP3    H254890   0.797   0.229  10.635 -0.1221 -1.5504 -0.6707
11159TIP3   OH254891   3.230   0.791   2.020  0.1702 -0.0269 -0.8662
11159TIP3    H154892   3.233   0.879   2.057  1.3052 -0.1643 -0.5841
11159TIP3    H254893   3.145   0.756   2.048  1.2002 -0.3540  2.2798
11160TIP3   OH254894   3.992   3.806  15.693 -0.2510  0.3481 -0.1222
11160TIP3    H154895   3.978   3.712  15.684  0.7331  0.2434 -0.7947
11160TIP3    H254896   3.938   3.845  15.624 -1.4074  0.3616  0.7671
11161TIP3   OH254897   1.772   1.140  11.940  0.2038 -0.1063  0.1506
11161TIP3    H154898   1.765   1.047  11.961 -1.7159  0.2043  1.1457
11161TIP3    H254899   1.710   1.183  11.999  0.0367  1.6537 -1.2101
11162TIP3   OH254900   2.735   6.039   0.456  0.4290  0.2452  0.3301
11162TIP3    H154901   2.706   5.968   0.398  1.1243 -0.2386  0.5615
11162TIP3    H254902   2.705   6.013   0.543  1.9074 -0.5058  0.6570
11163TIP3   OH254903   3.755   4.063  10.741 -0.2039  0.5288  0.1662
11163TIP3    H154904   3.819   4.000  10.707 -0.1846 -0.4919  1.9776
11163TIP3    H254905   3.671   4.029  10.712 -0.1144  0.2778  0.1945
11164TIP3   OH254906   0.392   0.626   0.939 -0.6517 -0.2781  0.6008
11164TIP3    H154907   0.381   0.538   0.977  0.5614 -0.8509 -0.3238
11164TIP3    H254908   0.361   0.618   0.850  0.2397 -0.0036  0.2513
11165TIP3   OH254909   2.352   6.145  14.960  0.1232 -0.2876 -0.2729
11165TIP3    H154910   2.438   6.181  14.982  0.1707 -0.5319 -0.0483
11165TIP3    H254911   2.331   6.183  14.875 -1.0587  2.4684  1.1075
11166TIP3   OH254912   2.598   5.564  17.477  0.0012  0.2039  0.3495
11166TIP3    H154913   2.621   5.630  17.412  0.2714 -0.0506  0.1861
11166TIP3    H254914   2.584   5.483  17.427 -0.6505  0.2056  0.5098
11167TIP3   OH254915   2.155   5.441  13.393  0.5045  0.0373 -0.0499
11167TIP3    H154916   2.073   5.392  13.399 -0.1569  0.9240 -1.3480
11167TIP3    H254917   2.177   5.463  13.484 -0.8656  0.0533  0.2930
11168TIP3   OH254918   6.181   4.060  11.616  0.2153  0.0578  0.6122
11168TIP3    H154919   6.248   4.067  11.548  0.1998  1.3302  0.6966
11168TIP3    H254920   6.099   4.045  11.568  0.0631  1.8262  0.2451
11169TIP3   OH254921   0.048   2.326  14.201 -0.4922  0.1623 -0.1170
11169TIP3    H154922   0.116   2.386  14.232 -0.1863 -0.0659 -0.3371
11169TIP3    H254923  -0.029   2.381  14.189 -0.2357  0.4957 -0.2421
11170TIP3   OH254924   2.947   6.278  17.078 -0.1302  0.5943  0.0362
11170TIP3    H154925   3.004   6.205  17.103  0.1706  0.0882 -1.9015
11170TIP3    H254926   2.972   6.296  16.987 -2.2163  1.1786 -0.4607
11171TIP3   OH254927   6.122   2.626   4.374  0.8604 -0.3487  0.4767
11171TIP3    H154928   6.067   2.547   4.375  1.3391 -0.6956 -0.0676
11171TIP3    H254929   6.142   2.640   4.282 -1.5447  2.0827  0.2237
11172TIP3   OH254930   5.091   2.916   3.472 -0.5797 -0.1440 -0.4805
11172TIP3    H154931   5.141   2.851   3.423 -1.2573 -2.1579  1.3321
11172TIP3    H254932   5.000   2.892   3.458 -0.7878 -0.8791  1.8108
11173TIP3   OH254933   3.340   3.083  14.475  0.6262 -0.4094 -0.4249
11173TIP3    H154934   3.264   3.139  14.487  0.5117 -0.3631 -1.3197
11173TIP3    H254935   3.350   3.076  14.380  1.9988 -0.0462 -0.3288
11174TIP3   OH254936   1.273   4.732  16.749  0.3948  0.2349 -0.5974
11174TIP3    H154937   1.352   4.744  16.696  1.3903 -1.3888  0.4351
11174TIP3    H254938   1.305   4.723  16.838 -1.1891  1.9885  0.2128
11175TIP3   OH254939   3.737   5.387  13.196  0.1058 -0.3144 -0.0959
11175TIP3    H154940   3.740   5.482  13.194 -0.7303 -0.2770 -0.0216
11175TIP3    H254941   3.827   5.359  13.179 -0.1764  0.4467 -3.4511
11176TIP3   OH254942   4.758   0.567  15.452 -0.4753  0.1848  0.3809
11176TIP3    H154943   4.811   0.636  15.491  1.1925 -0.4359 -0.6741
11176TIP3    H254944   4.743   0.596  15.362 -1.5490  0.1262  0.5288
11177TIP3   OH254945   2.100   1.339  10.616 -0.4991  0.2168 -0.2563
11177TIP3    H154946   2.176   1.318  10.563 -0.6480  0.6481 -0.6434
11177TIP3    H254947   2.064   1.254  10.640  1.6195 -0.0948  2.1955
11178TIP3   OH254948   4.314   4.111  12.387 -0.2998 -0.0960 -0.4316
11178TIP3    H154949   4.321   4.053  12.311  3.6634 -1.4267  0.6950
11178TIP3    H254950   4.255   4.066  12.447  1.1664 -2.0927 -0.3996
11179TIP3   OH254951   5.709   6.017  17.500 -0.6019 -0.5853  0.8387
11179TIP3    H154952   5.718   5.924  17.521 -0.0654 -0.7296  0.0213
11179TIP3    H254953   5.649   6.019  17.425  2.1973 -0.6508 -1.6242
11180TIP3   OH254954   0.696   5.739  14.699  0.1215 -0.2976 -0.2985
11180TIP3    H154955   0.648   5.670  14.746  0.1072 -0.2245 -0.2055
11180TIP3    H254956   0.690   5.816  14.756 -0.6231  0.0373 -0.8177
11181TIP3   OH254957   2.845   2.811  12.135  0.5942  0.3505 -0.1637
11181TIP3    H154958   2.890   2.838  12.055  0.6718  2.5703  0.5460
11181TIP3    H254959   2.843   2.716  12.131  1.6194  0.3647 -2.2371
11182TIP3   OH254960   3.274   4.464  15.069 -0.7326 -0.5051 -0.4855
11182TIP3    H154961   3.287   4.505  15.155  2.1879 -0.3098 -0.9393
11182TIP3    H254962   3.202   4.402  15.083 -0.7701 -0.0270  1.9139
11183TIP3   OH254963   2.361   0.670   4.135 -0.4581 -1.1599  0.0748
11183TIP3    H154964   2.431   0.633   4.081  1.0790  1.0662  0.4050
11183TIP3    H254965   2.366   0.620   4.217 -0.5457 -2.2878 -0.5885
11184TIP3   OH254966   2.076   0.528  15.960 -0.1669  0.5305 -0.0994
11184TIP3    H154967   1.995   0.523  15.908  1.7774 -0.3870 -3.3363
11184TIP3    H254968   2.098   0.621  15.962 -2.0992  1.0340  2.3670
11185TIP3   OH254969   1.471   4.644  12.981  0.2086  0.2769 -0.5411
11185TIP3    H154970   1.477   4.739  12.977  1.6908  0.2155 -0.4167
11185TIP3    H254971   1.432   4.625  13.066 -1.7507  0.7854 -1.2683
11186TIP3   OH254972   4.629   3.231   1.192  0.4076 -0.0005  0.5196
11186TIP3    H154973   4.720   3.201   1.190  0.0282 -1.2182  0.6984
11186TIP3    H254974   4.633   3.316   1.234  1.4540 -0.1006  0.6516
11187TIP3   OH254975   2.746   3.850  14.018  0.1302  0.0628  0.5594
11187TIP3    H154976   2.722   3.891  14.101  0.9061  1.5252  0.0945
11187TIP3    H254977   2.735   3.756  14.034  1.2521  0.2195  2.6437
11188TIP3   OH254978   2.921   4.788  15.769 -0.6601 -0.4429  0.1389
11188TIP3    H154979   2.977   4.863  15.751 -0.5789 -0.5797 -0.2048
11188TIP3    H254980   2.882   4.767  15.683 -1.9318  0.2025  0.5275
11189TIP3   OH254981   4.903   6.545  15.308  0.0932  0.2318 -0.5593
11189TIP3    H154982   4.949   6.609  15.252 -0.2808  0.7962 -0.2326
11189TIP3    H254983   4.929   6.569  15.397 -2.1666  1.7007 -0.2088
11190TIP3   OH254984   4.234   3.052   3.955  0.1073 -0.5391 -0.2257
11190TIP3    H154985   4.222   2.963   3.989  0.6121 -1.0119 -1.2211
11190TIP3    H254986   4.163   3.063   3.892  0.4899 -0.5249 -0.6568
11191TIP3   OH254987   5.101   4.818  16.939  0.2823 -0.5276 -0.5186
11191TIP3    H154988   5.007   4.801  16.943  0.3876 -1.3206 -1.0830
11191TIP3    H254989   5.108   4.910  16.913 -0.3171  0.1102  1.3920
11192TIP3   OH254990   1.911   5.066   1.672  0.2391  0.3422  0.1201
11192TIP3    H154991   1.932   4.990   1.618  0.7976  0.3984  0.2490
11192TIP3    H254992   1.983   5.127   1.656 -1.2001  1.7033 -1.5428
11193TIP3   OH254993   1.614   5.585  14.288  0.1367  0.6184  0.2930
11193TIP3    H154994   1.705   5.611  14.273 -0.0094  0.4811 -0.9049
11193TIP3    H254995   1.618   5.490  14.300  0.0761  0.5108 -0.4926
11194TIP3   OH254996   3.929   6.502   2.561 -0.1177  0.3049  0.4920
11194TIP3    H154997   3.852   6.457   2.526 -0.0597  1.3739 -1.1346
11194TIP3    H254998   3.893   6.566   2.623 -0.6124  1.1053 -0.5898
11195TIP3   OH254999   1.452   2.360   3.085 -0.1410  0.8483 -0.4133
11195TIP3    H155000   1.527   2.346   3.027 -1.5874 -1.4609 -1.9013
11195TIP3    H255001   1.487   2.414   3.157  2.8153  0.1902 -1.2114
11196TIP3   OH255002   0.114   1.431   1.948 -0.2934 -0.2460  0.1435
11196TIP3    H155003   0.136   1.523   1.935 -0.2414 -0.3326 -0.4346
11196TIP3    H255004   0.132   1.391   1.863  1.4438 -1.1473  0.8908
11197TIP3   OH255005   1.096   0.771  11.825  0.1431  0.4057  0.3547
11197TIP3    H155006   1.019   0.773  11.882 -0.0368  1.5738  0.0907
11197TIP3    H255007   1.155   0.708  11.866 -1.6673 -1.8870 -0.4138
11198TIP3   OH255008   5.301   5.624  14.738  0.0310 -0.1680  0.0352
11198TIP3    H155009   5.360   5.678  14.791  1.9571 -2.4823  0.4403
11198TIP3    H255010   5.227   5.604  14.796 -0.1312  1.0324  0.2581
11199TIP3   OH255011   0.495   3.109   3.387 -0.2165 -0.3377  0.2507
11199TIP3    H155012   0.574   3.068   3.422 -1.1874 -1.5750  1.1191
11199TIP3    H255013   0.423   3.062   3.430 -1.5333 -1.7168 -3.0611
11200TIP3   OH255014   3.897   2.950   0.242 -0.1480 -0.0458  0.3227
11200TIP3    H155015   3.850   2.966   0.324 -0.0868  0.6472  0.2350
11200TIP3    H255016   3.984   2.920   0.269  0.1103  0.8580  0.5361
11201TIP3   OH255017   1.045   4.831   2.494  0.6283 -0.0321 -0.5344
11201TIP3    H155018   1.092   4.775   2.554  0.3725  0.2582 -0.0566
11201TIP3    H255019   1.059   4.792   2.408  1.2686 -0.2596 -0.3287
11202TIP3   OH255020   0.058   1.947  15.190  0.1903 -0.0731  0.0329
11202TIP3    H155021  -0.038   1.946  15.193  0.1664 -1.0070 -0.5119
11202TIP3    H255022   0.082   1.854  15.185  1.2178  0.0156  2.2417
11203TIP3   OH255023   0.180   1.094  12.365  0.4789 -0.0940 -0.3317
11203TIP3    H155024   0.226   1.083  12.448  0.1586 -1.1826 -0.2806
11203TIP3    H255025   0.143   1.183  12.369  1.9962  0.5456 -0.1079
11204TIP3   OH255026   1.513   4.736  16.591  0.1689 -0.2957  0.3045
11204TIP3    H155027   1.485   4.809  16.535  1.8740  0.2882  0.1762
11204TIP3    H255028   1.474   4.659  16.550 -1.3843  0.4658  0.2479
11205TIP3   OH255029   4.986   0.848  11.374 -0.0792 -0.0856  0.5918
11205TIP3    H155030   5.004   0.782  11.307 -0.9797  0.2697 -0.0229
11205TIP3    H255031   5.059   0.909  11.367  0.2598 -0.4996  0.4973
11206TIP3   OH255032   2.071   4.199  16.770 -0.2373  0.0928 -0.0890
11206TIP3    H155033   2.065   4.277  16.715 -1.4943  0.6576  0.7870
11206TIP3    H255034   1.980   4.179  16.792  0.1828 -0.6553  1.0199
11207TIP3   OH255035   3.846   0.020   5.458 -0.3890 -0.1104 -0.3993
11207TIP3    H155036   3.794   0.057   5.529  0.4821  1.4712 -0.5445
11207TIP3    H255037   3.935   0.052   5.475  0.3629 -1.9058 -0.7280
11208TIP3   OH255038   4.562   5.128  15.226 -0.0888  0.5415  0.6373
11208TIP3    H155039   4.529   5.216  15.239  1.2101  1.2239 -0.3876
11208TIP3    H255040   4.505   5.072  15.279  1.6387  2.3883  4.9225
11209TIP3   OH255041   6.448   2.901   3.779 -0.1060  0.4831  0.2588
11209TIP3    H155042   6.475   2.983   3.738 -0.2046 -0.0632 -0.9370
11209TIP3    H255043   6.489   2.833   3.726  0.7221 -0.2435  1.7769
11210TIP3   OH255044   5.304   4.668   3.435 -0.2212  0.3643 -0.4597
11210TIP3    H155045   5.282   4.590   3.385  3.2098  0.4155 -2.3713
11210TIP3    H255046   5.366   4.715   3.380 -0.9675  3.6976  1.3013
11211TIP3   OH255047   0.638   4.034  11.109  0.1906 -0.1624  0.0218
11211TIP3    H155048   0.602   3.965  11.165 -0.7764  0.4677  0.2064
11211TIP3    H255049   0.570   4.049  11.043  0.8388 -0.1080 -0.6525
11212TIP3   OH255050   4.931   4.113   4.938 -0.8705  0.3978  0.0641
11212TIP3    H155051   4.902   4.024   4.960  1.2311 -0.9735 -2.1741
11212TIP3    H255052   4.923   4.162   5.020 -0.1139 -2.3997  1.9546
11213TIP3   OH255053   2.464   0.168  14.319 -0.1316 -0.1854 -0.0764
11213TIP3    H155054   2.432   0.257  14.303  0.1305 -0.3343 -1.5650
11213TIP3    H255055   2.529   0.178  14.389  1.9257  1.2590 -2.0538
11214TIP3   OH255056   3.168   0.947  13.616  0.7670 -0.2840 -0.1550
11214TIP3    H155057   3.081   0.925  13.585  0.2467 -0.7741  1.5496
11214TIP3    H255058   3.198   0.868  13.662  1.1003  0.6752  1.3440
11215TIP3   OH255059   4.173   2.557  17.156 -0.5175  0.2012 -0.1761
11215TIP3    H155060   4.222   2.631  17.192  2.1394 -1.9657  1.0432
11215TIP3    H255061   4.178   2.490  17.224  0.8552 -2.5371 -2.7208
11216TIP3   OH255062   3.122   1.819   3.523  0.4593  0.4084 -0.4211
11216TIP3    H155063   3.088   1.734   3.494  3.7319 -0.2818 -2.8893
11216TIP3    H255064   3.083   1.832   3.609 -2.0352 -2.4357 -0.9465
11217TIP3   OH255065   4.655   6.001  11.740 -0.9067  0.2749 -0.9572
11217TIP3    H155066   4.660   6.020  11.646 -2.0054 -0.1678 -1.1188
11217TIP3    H255067   4.597   5.925  11.746  0.7073 -0.9682 -0.0784
11218TIP3   OH255068   1.233   4.727   0.659  0.6155  0.2077 -0.6896
11218TIP3    H155069   1.143   4.705   0.685  1.2174  0.0430  1.4301
11218TIP3    H255070   1.229   4.819   0.636  0.2074  0.6651  1.0681
11219TIP3   OH255071   6.488   3.705   3.237 -0.5262  0.3235  0.2877
11219TIP3    H155072   6.508   3.750   3.155 -0.7695  0.5560  0.3545
11219TIP3    H255073   6.393   3.693   3.235 -0.4532 -0.2850  0.2210
11220TIP3   OH255074   3.851   0.173   6.232  0.0136 -0.0517 -0.1113
11220TIP3    H155075   3.790   0.162   6.305  1.1741 -0.5515  0.8244
11220TIP3    H255076   3.936   0.189   6.274  0.9488 -1.6118 -1.2917
11221TIP3   OH255077   4.767   0.996  15.344 -0.2527 -0.4937 -0.6697
11221TIP3    H155078   4.792   1.073  15.396  0.1754 -1.0208 -0.0759
11221TIP3    H255079   4.675   1.010  15.322 -0.4885 -0.3426  0.3846
11222TIP3   OH255080   5.266   2.054  13.051 -0.0475  0.2423  0.1573
11222TIP3    H155081   5.273   1.991  12.979  3.3094 -0.0905  0.5783
11222TIP3    H255082   5.174   2.054  13.074 -0.9506 -1.0253 -2.8960
11223TIP3   OH255083   2.333   4.232   2.591 -0.2210 -0.1648  0.5689
11223TIP3    H155084   2.308   4.164   2.529  0.4781  1.3913 -1.5252
11223TIP3    H255085   2.429   4.235   2.588 -0.2124  0.5133  1.0639
11224TIP3   OH255086   3.463   5.611  12.523 -0.3130 -0.6837 -0.0925
11224TIP3    H155087   3.376   5.646  12.504  0.3121  0.0370 -1.8646
11224TIP3    H255088   3.522   5.660  12.465  1.0779 -2.2486 -0.0848
11225TIP3   OH255089   1.216   1.673   2.178 -0.6525  0.3806  0.0261
11225TIP3    H155090   1.307   1.664   2.208 -2.0212 -3.7471  4.0778
11225TIP3    H255091   1.184   1.751   2.224  0.1773  0.2617  0.8518
11226TIP3   OH255092   6.252   5.387   2.907  0.0213 -0.0779  0.0784
11226TIP3    H155093   6.177   5.423   2.954 -0.4908 -0.6992 -0.2502
11226TIP3    H255094   6.217   5.364   2.821  0.9077  0.9309 -0.5868
11227TIP3   OH255095   5.985   0.355  16.228 -0.1087  0.2353 -0.1443
11227TIP3    H155096   5.935   0.416  16.282 -1.7851 -0.4941 -0.7993
11227TIP3    H255097   5.974   0.270  16.272 -1.9556 -0.4800 -1.8092
11228TIP3   OH255098   2.340   6.637   3.841 -0.6853  0.5915 -0.1788
11228TIP3    H155099   2.423   6.599   3.811 -0.4794 -0.1356  1.2611
11228TIP3    H255100   2.351   6.731   3.827  0.4369  0.5242  0.1079
11229TIP3   OH255101   4.737   4.556  14.157 -0.3830  0.5717  0.0380
11229TIP3    H155102   4.687   4.638  14.162  1.8426  2.0328 -0.0305
11229TIP3    H255103   4.774   4.557  14.068 -0.8568 -0.8650 -0.1931
11230TIP3   OH255104   3.816   2.741  12.151  0.0435  0.1645 -0.5450
11230TIP3    H155105   3.798   2.834  12.165  0.2010  0.0029  0.8551
11230TIP3    H255106   3.879   2.739  12.079 -0.7837  1.0684 -1.3282
11231TIP3   OH255107   3.713   5.690   0.344  0.2355 -0.7957  0.5760
11231TIP3    H155108   3.686   5.671   0.254 -0.3635 -1.1468  0.8182
11231TIP3    H255109   3.645   5.649   0.398 -1.2361  2.1331  1.1519
11232TIP3   OH255110   0.258   4.394  16.272  0.0820 -0.2637  0.5291
11232TIP3    H155111   0.277   4.432  16.187  3.9097 -1.9059  0.4647
11232TIP3    H255112   0.217   4.310  16.253  0.8080 -0.5666  0.2766
11233TIP3   OH255113   1.010   3.900  16.956 -0.2754  0.0553 -0.1661
11233TIP3    H155114   0.948   3.860  16.895 -1.1087 -0.8202  1.1829
11233TIP3    H255115   1.065   3.827  16.985  0.9023  0.6820 -0.7551
11234TIP3   OH255116   1.878   1.173  16.450  0.1460  0.0472 -0.0082
11234TIP3    H155117   1.809   1.195  16.514 -0.8372  0.8272 -1.2757
11234TIP3    H255118   1.952   1.145  16.504 -0.7142  0.4531  1.4657
11235TIP3   OH255119   4.715   4.758  14.633 -0.1125  0.2040 -0.1048
11235TIP3    H155120   4.793   4.705  14.617  0.1605  0.5359  0.1121
11235TIP3    H255121   4.709   4.763  14.729 -0.5472 -0.0339 -0.1170
11236TIP3   OH255122   2.976   6.082  16.647  0.0555  0.5076  0.3818
11236TIP3    H155123   2.904   6.104  16.588 -0.3081  0.3415  0.7522
11236TIP3    H255124   2.988   6.161  16.700  0.0047  0.4656  0.4560
11237TIP3   OH255125   5.036   6.547  13.504 -0.2796 -0.2472  0.4743
11237TIP3    H155126   4.964   6.506  13.456  0.9431 -1.2700 -0.5651
11237TIP3    H255127   5.066   6.480  13.565  1.3552 -0.7563 -0.8248
11238TIP3   OH255128   4.470   3.689   5.996  0.1141 -0.3673  0.0968
11238TIP3    H155129   4.468   3.639   6.078  0.5164 -1.1055 -0.3251
11238TIP3    H255130   4.379   3.712   5.979  0.0033 -0.3898  0.6413
11239TIP3   OH255131   1.790   3.501   3.357  0.0717 -0.4148 -0.2332
11239TIP3    H155132   1.773   3.542   3.272  2.5399 -1.0329 -1.0812
11239TIP3    H255133   1.808   3.574   3.416  1.1941 -0.1092 -0.9434
11240TIP3   OH255134   4.316   0.244  14.952 -0.3499 -0.1252  0.0416
11240TIP3    H155135   4.230   0.243  14.995 -0.9020  1.5572 -0.9268
11240TIP3    H255136   4.322   0.159  14.908 -1.7532 -0.0848 -0.2797
11241TIP3   OH255137   0.620   3.295  14.179 -0.4177  0.2834 -0.4552
11241TIP3    H155138   0.686   3.291  14.248 -1.2830  0.5286  0.4238
11241TIP3    H255139   0.622   3.386  14.149 -0.5090  0.3485 -0.2674
11242TIP3   OH255140   3.654   2.246  13.642 -0.2021  0.6614  0.1981
11242TIP3    H155141   3.566   2.273  13.668 -0.2106  0.3663  0.4904
11242TIP3    H255142   3.682   2.312  13.578 -1.0370  0.1985 -0.6818
11243TIP3   OH255143   2.037   0.350   5.516  0.1917 -0.0171 -0.3317
11243TIP3    H155144   2.096   0.321   5.446  0.3325  0.8205 -0.5732
11243TIP3    H255145   2.074   0.312   5.596  0.9161  0.2901 -0.5123
11244TIP3   OH255146   4.211   3.053   1.353  0.9902  0.1493 -0.2312
11244TIP3    H155147   4.271   3.128   1.354  0.4550  0.5793  0.2587
11244TIP3    H255148   4.153   3.068   1.427 -0.2898  0.2089 -1.2140
11245TIP3   OH255149   6.318   4.657   4.767 -0.1452 -0.5550  0.1540
11245TIP3    H155150   6.232   4.669   4.727 -0.3491  1.1452  0.9935
11245TIP3    H255151   6.309   4.695   4.855  0.8363 -2.3867  1.1014
11246TIP3   OH255152   1.164   1.626  14.289  0.3845 -0.1042  0.2150
11246TIP3    H155153   1.149   1.565  14.217  2.3980  0.2373 -0.5756
11246TIP3    H255154   1.221   1.693  14.251 -0.6823  1.5518  1.4284
11247TIP3   OH255155   5.395   6.524   6.379 -0.2496  0.0511 -0.0022
11247TIP3    H155156   5.361   6.606   6.343  1.3309  0.0142 -1.7563
11247TIP3    H255157   5.458   6.551   6.445  0.7104  0.2944 -0.9987
11248TIP3   OH255158   2.451   4.236  11.884 -0.2227 -0.4307 -0.4217
11248TIP3    H155159   2.501   4.311  11.853 -0.6093 -0.0924 -0.2281
11248TIP3    H255160   2.444   4.179  11.807  0.9045 -0.7312 -0.3220
11249TIP3   OH255161   0.098   1.748   5.557 -0.1345  0.2992  0.5049
11249TIP3    H155162   0.111   1.725   5.649 -0.0225  0.8713  0.6332
11249TIP3    H255163   0.114   1.666   5.510 -2.6473 -0.6453  1.1566
11250TIP3   OH255164   0.228   2.601  16.926 -0.1748 -0.6422  0.5848
11250TIP3    H155165   0.242   2.550  16.846  3.7121  1.8599 -0.6084
11250TIP3    H255166   0.180   2.678  16.898  1.6822  0.5156  0.4108
11251TIP3   OH255167   0.351   1.418  17.195 -0.0424 -0.3387 -0.2589
11251TIP3    H155168   0.388   1.462  17.119  0.7951 -0.1838  0.2213
11251TIP3    H255169   0.328   1.331  17.163 -1.6273  0.3872 -1.1903
11252TIP3   OH255170   0.285   1.603   3.602 -0.8844  0.3121  0.7382
11252TIP3    H155171   0.191   1.617   3.593 -0.8623  0.5746  0.9189
11252TIP3    H255172   0.319   1.688   3.630 -0.1974  1.0860 -2.1140
11253TIP3   OH255173   3.781   6.691  11.188 -0.1767  1.1467  0.1009
11253TIP3    H155174   3.819   6.604  11.199 -1.7191  0.2177 -1.4400
11253TIP3    H255175   3.848   6.740  11.139  0.3706  0.5805  0.2686
11254TIP3   OH255176   1.187   4.480   4.100  0.4701 -0.2625  0.0519
11254TIP3    H155177   1.265   4.513   4.144 -0.0761 -0.3257  1.1184
11254TIP3    H255178   1.137   4.438   4.170 -1.0885  0.8217 -0.3490
11255TIP3   OH255179   5.269   6.023   4.216 -0.2184 -0.6175  0.1865
11255TIP3    H155180   5.349   6.069   4.242 -1.1588  1.7462 -0.7747
11255TIP3    H255181   5.232   5.992   4.298  0.6881 -0.0154  0.8463
11256TIP3   OH255182   2.226   4.379  11.796  0.0115 -0.5799  0.3355
11256TIP3    H155183   2.273   4.363  11.715  0.8640 -1.9024  1.0605
11256TIP3    H255184   2.217   4.293  11.837  1.7112  0.2695  2.7641
11257TIP3   OH255185   6.203   2.566  15.857 -0.2757  0.4400  0.3531
11257TIP3    H155186   6.275   2.622  15.887 -0.5183  0.5856  0.6677
11257TIP3    H255187   6.131   2.585  15.916 -0.2448 -0.4917  0.7108
11258TIP3   OH255188   1.816   1.638   1.095 -0.5217 -0.4205  0.5826
11258TIP3    H155189   1.776   1.569   1.042  0.3256  0.7899 -1.7575
11258TIP3    H255190   1.908   1.611   1.104 -0.2866  0.1735  0.0237
11259TIP3   OH255191   4.727   5.578  15.374 -0.1975 -0.2829  0.1073
11259TIP3    H155192   4.677   5.507  15.412 -0.9074  0.6976  1.0638
11259TIP3    H255193   4.676   5.657  15.393  1.0530  0.6030 -0.0473
11260TIP3   OH255194   0.707   1.260   0.397 -0.5487 -0.4141  0.3080
11260TIP3    H155195   0.646   1.310   0.452 -0.7608  1.8529 -1.8229
11260TIP3    H255196   0.786   1.314   0.394 -0.8939  0.0789 -2.3209
11261TIP3   OH255197   3.835   2.582  14.852  0.2714  0.4305 -0.1735
11261TIP3    H155198   3.894   2.655  14.836 -0.0356  0.7211  0.0212
11261TIP3    H255199   3.783   2.609  14.927  0.0615  0.0679 -0.1863
11262TIP3   OH255200   4.498   1.621   1.665  0.2326  0.2591 -0.1119
11262TIP3    H155201   4.455   1.620   1.750 -0.1918  1.5725 -0.3012
11262TIP3    H255202   4.587   1.589   1.682 -0.0506 -0.1099  0.7002
11263TIP3   OH255203   5.333   2.954   2.853 -0.4241 -0.1308  0.0738
11263TIP3    H155204   5.280   3.006   2.913  0.5989 -0.5511  1.3869
11263TIP3    H255205   5.334   2.866   2.892 -2.5011 -1.3576 -2.3073
11264TIP3   OH255206   5.629   6.414  17.310  0.0301 -0.0404 -0.3389
11264TIP3    H155207   5.630   6.510  17.311  0.7811 -0.0386  1.0790
11264TIP3    H255208   5.721   6.390  17.312 -0.1344 -0.8127 -1.4169
11265TIP3   OH255209   4.739   2.190   4.007  0.3679 -0.4269 -0.5897
11265TIP3    H155210   4.775   2.278   3.995  1.4655 -0.7078  0.4293
11265TIP3    H255211   4.707   2.166   3.920  2.1307  0.1072 -1.4522
11266TIP3   OH255212   3.484   6.670   0.033  0.1754 -0.0489 -0.2603
11266TIP3    H155213   3.513   6.706   0.117 -0.5294 -0.4202  0.1550
11266TIP3    H255214   3.389   6.683   0.033  0.3522  1.4740 -1.7526
11267TIP3   OH255215   2.708   2.308   5.590  0.5744 -0.3419  0.8197
11267TIP3    H155216   2.629   2.263   5.561  0.2879 -0.1660  1.3039
11267TIP3    H255217   2.732   2.263   5.671  2.7109 -2.3922 -0.8131
11268TIP3   OH255218   5.191   2.842  15.986 -0.2456 -0.3828  0.2424
11268TIP3    H155219   5.211   2.932  15.960  0.2350 -1.0815 -2.0174
11268TIP3    H255220   5.129   2.812  15.920  0.7618 -2.1913  0.0702
11269TIP3   OH255221   4.329   1.886  11.508  0.8028  0.3168  0.3204
11269TIP3    H155222   4.301   1.960  11.562 -1.2926  0.2657 -0.6112
11269TIP3    H255223   4.413   1.915  11.471 -0.7901  3.1215 -1.4891
11270TIP3   OH255224   1.592   4.117  14.396 -0.1675  0.5673 -0.4292
11270TIP3    H155225   1.618   4.031  14.430 -0.8119 -0.4505 -2.3760
11270TIP3    H255226   1.508   4.136  14.438 -1.0199 -0.7305 -1.4788
11271TIP3   OH255227   0.217   0.462  16.801  0.5203 -0.0303 -0.0612
11271TIP3    H155228   0.186   0.410  16.727  1.1105  0.5525 -0.7339
11271TIP3    H255229   0.304   0.428  16.820  1.8047  1.9684 -1.8419
11272TIP3   OH255230   4.064   5.430  10.314 -0.2223 -0.0917 -0.5259
11272TIP3    H155231   4.159   5.418  10.322 -0.3456 -0.0239  1.4757
11272TIP3    H255232   4.054   5.499  10.249  1.0473 -0.7614 -1.4944
11273TIP3   OH255233   5.437   0.466  15.743  0.6533  0.3875  0.0077
11273TIP3    H155234   5.374   0.399  15.714  0.8022  1.0788 -2.0760
11273TIP3    H255235   5.400   0.499  15.825 -1.0824 -0.0558 -0.5465
11274TIP3   OH255236   0.735   2.655  11.434  0.4612  0.1391  0.0053
11274TIP3    H155237   0.718   2.749  11.433  0.1681  0.1109  1.0635
11274TIP3    H255238   0.813   2.644  11.379  0.2033  0.9323 -0.5333
11275TIP3   OH255239   4.998   2.903   5.437  0.1756  0.0568 -0.0555
11275TIP3    H155240   4.948   2.824   5.418  1.3603 -0.6340 -0.3961
11275TIP3    H255241   5.000   2.950   5.353  3.0906 -1.6786 -1.1276
11276TIP3   OH255242   4.718   4.995  13.966  0.0751 -0.3873 -0.1496
11276TIP3    H155243   4.748   4.913  13.926  1.8226 -0.1134  0.4932
11276TIP3    H255244   4.796   5.051  13.964 -1.1371  1.3347 -0.7546
11277TIP3   OH255245   6.193   5.104  14.314 -0.0571 -0.5519 -0.4776
11277TIP3    H155246   6.231   5.046  14.379 -1.3129 -1.5858 -0.6342
11277TIP3    H255247   6.101   5.079  14.309 -0.3884  0.7065 -1.3637
11278TIP3   OH255248   1.603   5.101  14.815  0.5330  0.0973  0.7770
11278TIP3    H155249   1.651   5.160  14.873  2.5151  0.3024 -0.9574
11278TIP3    H255250   1.570   5.157  14.746  2.0066 -0.6717 -0.6241
11279TIP3   OH255251   5.538   2.501  12.820  0.8720  0.7163  0.5865
11279TIP3    H155252   5.579   2.506  12.734  0.1529  1.6143  0.2668
11279TIP3    H255253   5.497   2.587  12.831 -0.2365  0.1317  1.2145
11280TIP3   OH255254   6.695   2.577  10.585 -0.0137  0.9210 -0.2734
11280TIP3    H155255   6.690   2.623  10.669  1.1722 -0.4635  0.6015
11280TIP3    H255256   6.613   2.528  10.580  0.7139 -0.5197  1.0596
11281TIP3   OH255257   3.384   4.253   3.656  0.2353 -0.1618  0.2992
11281TIP3    H155258   3.291   4.272   3.666  0.1079 -0.3570 -0.4679
11281TIP3    H255259   3.387   4.165   3.620  0.6621  0.3465 -0.9761
11282TIP3   OH255260   1.452   0.768   5.015 -0.2886 -0.3002 -0.0044
11282TIP3    H155261   1.486   0.767   5.105 -0.2069  1.8773  0.0229
11282TIP3    H255262   1.368   0.813   5.021  0.2892  0.9982 -1.1811
11283TIP3   OH255263   3.755   4.442  15.625  0.0679 -0.1202  0.2267
11283TIP3    H155264   3.790   4.378  15.563 -0.2922 -0.3886  0.2997
11283TIP3    H255265   3.793   4.525  15.597  2.8697 -0.7264  1.8786
11284TIP3   OH255266   0.669   4.346   2.244  0.2020 -0.2049  0.3556
11284TIP3    H155267   0.710   4.383   2.322  0.5241  0.3820 -0.0846
11284TIP3    H255268   0.739   4.343   2.179 -0.4807  1.0110 -0.4682
11285TIP3   OH255269   0.022   4.581  16.243  0.1135  0.1968 -0.0046
11285TIP3    H155270   0.095   4.536  16.285  2.7948  1.2752 -3.1270
11285TIP3    H255271   0.033   4.673  16.268 -1.9102  0.0826  1.6526
11286TIP3   OH255272   0.917   0.346  12.081  0.2882 -0.4017 -0.2231
11286TIP3    H155273   0.903   0.413  12.014 -2.1137 -0.1915  0.3861
11286TIP3    H255274   0.868   0.379  12.157  1.0266 -1.7401  0.8642
11287TIP3   OH255275   2.290   4.649   4.518 -0.8647  0.2850 -0.5622
11287TIP3    H155276   2.219   4.646   4.582 -1.0711  0.6458 -0.7653
11287TIP3    H255277   2.275   4.573   4.462  0.6045 -1.3500  1.1200
11288TIP3   OH255278   0.069   3.089  11.806 -0.0515  0.4939  0.3577
11288TIP3    H155279  -0.015   3.100  11.852 -0.1074 -2.8174  1.3254
11288TIP3    H255280   0.129   3.056  11.873  1.6916  1.4867 -0.6402
11289TIP3   OH255281   0.361   0.939   5.049 -0.3475  0.1787  0.4236
11289TIP3    H155282   0.343   1.031   5.069 -0.5740  0.2409 -0.0649
11289TIP3    H255283   0.310   0.891   5.114 -2.8122  0.3414 -1.2567
11290TIP3   OH255284   4.495   2.517   4.014 -0.0649  0.2368  0.5027
11290TIP3    H155285   4.431   2.553   3.953 -0.4553  0.3794  0.9926
11290TIP3    H255286   4.470   2.425   4.023  1.3717 -0.3834 -1.3193
11291TIP3   OH255287   6.217   3.966  12.559  0.7397 -0.4450 -0.1794
11291TIP3    H155288   6.187   4.057  12.554 -0.4315 -0.8305 -0.6859
11291TIP3    H255289   6.231   3.950  12.652 -0.4601 -0.1658  0.0678
11292TIP3   OH255290   2.809   3.267   3.591 -0.0183  0.5668  0.1755
11292TIP3    H155291   2.759   3.187   3.575  1.1527 -0.0689 -0.3944
11292TIP3    H255292   2.865   3.276   3.515  2.6351 -0.2097  1.8974
11293TIP3   OH255293   1.418   5.576   0.078 -0.6627  0.1638 -0.4494
11293TIP3    H155294   1.489   5.548   0.135 -1.4799 -1.7294 -0.3229
11293TIP3    H255295   1.462   5.600  -0.004  0.1598 -0.6086 -0.2450
11294TIP3   OH255296   2.273   4.921   1.785  0.4959  0.0700 -0.0668
11294TIP3    H155297   2.212   4.853   1.814  0.5518 -0.7334 -1.6933
11294TIP3    H255298   2.292   4.898   1.694  0.8920  2.0095 -0.5211
11295TIP3   OH255299   0.587   4.744   0.883  0.4688 -0.0684  0.1878
11295TIP3    H155300   0.666   4.692   0.898 -1.3019 -2.8175  0.6411
11295TIP3    H255301   0.585   4.757   0.789 -0.0343 -2.6432 -0.2210
11296TIP3   OH255302   0.673   1.667   6.118  0.3636  0.0017  0.5557
11296TIP3    H155303   0.722   1.749   6.123 -0.6857  0.6122  1.4634
11296TIP3    H255304   0.597   1.682   6.175 -0.6501 -1.0505 -0.4751
11297TIP3   OH255305   3.731   0.257  16.121 -0.3293  0.4260 -0.2087
11297TIP3    H155306   3.790   0.316  16.075 -0.6173 -0.4424 -1.7788
11297TIP3    H255307   3.691   0.204  16.052 -2.4639  0.5439  0.8505
11298TIP3   OH255308   0.831   5.688  14.242 -0.2995  0.3019  0.3103
11298TIP3    H155309   0.817   5.780  14.221 -0.4933  0.0025 -1.0038
11298TIP3    H255310   0.742   5.650  14.244 -0.4943  0.6665  3.7521
11299TIP3   OH255311   1.786   4.554   3.667  0.2911 -0.2140  0.2480
11299TIP3    H155312   1.849   4.605   3.718 -0.7748  0.0758  1.3294
11299TIP3    H255313   1.712   4.541   3.727 -0.4956 -0.9123 -0.8410
11300TIP3   OH255314   2.538   6.019  10.578  0.1147  0.5706 -0.1982
11300TIP3    H155315   2.483   5.984  10.648 -0.0119 -1.5070 -1.2684
11300TIP3    H255316   2.624   6.031  10.619 -0.2646  0.6137  0.6126
11301TIP3   OH255317   5.001   3.031  11.206  0.4228 -0.1841  0.3828
11301TIP3    H155318   4.988   3.083  11.126  3.2710 -1.3861 -1.0200
11301TIP3    H255319   4.986   3.093  11.277 -0.1907  1.4881 -1.1193
11302TIP3   OH255320   5.031   4.000   4.544  0.2374  0.4707  0.1278
11302TIP3    H155321   5.091   4.037   4.609 -0.9863  1.1800  0.8923
11302TIP3    H255322   5.028   3.907   4.564  0.0979  0.6390  0.9085
11303TIP3   OH255323   3.461   4.797  15.798 -0.1393 -0.2076 -0.3173
11303TIP3    H155324   3.479   4.889  15.780 -1.2672  0.0007 -0.4374
11303TIP3    H255325   3.541   4.765  15.840  0.7769  0.4625 -1.5142
11304TIP3   OH255326   3.402   2.743   1.326 -0.3580 -0.2482 -0.3740
11304TIP3    H155327   3.323   2.776   1.282 -1.0743 -0.4346  0.7278
11304TIP3    H255328   3.395   2.648   1.320 -0.8429 -0.3009  0.7431
11305TIP3   OH255329   5.856   1.065  12.648  0.5352  0.2263  0.1389
11305TIP3    H155330   5.951   1.061  12.643  0.6448  1.4358  0.8877
11305TIP3    H255331   5.826   1.024  12.567  1.6648 -0.8420  0.2332
11306TIP3   OH255332   1.320   4.072   5.511 -0.0168 -0.4379  0.1924
11306TIP3    H155333   1.402   4.115   5.490 -0.4626  0.2163 -0.2408
11306TIP3    H255334   1.346   3.992   5.556  0.8142  0.5884  1.6058
11307TIP3   OH255335   2.922   2.823  13.792  0.3076  0.3288 -0.2504
11307TIP3    H155336   3.014   2.822  13.818 -0.1547 -1.0419  1.5709
11307TIP3    H255337   2.898   2.916  13.791  1.2065  0.6048  1.2408
11308TIP3   OH255338   6.528   5.806   2.079  0.3082 -0.6308  0.2002
11308TIP3    H155339   6.565   5.734   2.129  0.8921  0.6963  1.7795
11308TIP3    H255340   6.588   5.817   2.005  0.4223 -1.4947  0.1555
11309TIP3   OH255341   1.526   4.241   0.667 -0.1679 -0.5950  0.3721
11309TIP3    H155342   1.594   4.246   0.735  0.1610  0.4068 -0.0092
11309TIP3    H255343   1.492   4.330   0.661 -1.0902 -0.9555  0.1118
11310TIP3   OH255344   1.313   4.999  11.266 -0.1002 -0.4434 -0.4922
11310TIP3    H155345   1.392   4.988  11.213  2.5055  1.9421  2.4931
11310TIP3    H255346   1.288   5.090  11.253 -0.7909 -0.4754  0.5503
11311TIP3   OH255347   6.392   5.406  11.939 -0.6075  0.0140 -0.2401
11311TIP3    H155348   6.352   5.477  11.989 -0.9825  0.1263 -0.6979
11311TIP3    H255349   6.465   5.377  11.994 -0.1281  1.0977 -0.2909
11312TIP3   OH255350   1.916   1.461   2.427 -0.0019 -0.0870 -0.0304
11312TIP3    H155351   1.904   1.366   2.418 -1.0137  0.1929 -2.1653
11312TIP3    H255352   1.838   1.490   2.475  0.1370 -0.2667  0.3147
11313TIP3   OH255353   2.235   5.747  11.914  0.0821 -0.6193  0.5021
11313TIP3    H155354   2.159   5.710  11.959 -0.7796 -0.7247 -0.9535
11313TIP3    H255355   2.221   5.842  11.918  0.0166 -0.6275  0.4688
11314TIP3   OH255356   6.465   3.281  15.437 -0.3778  0.3452  0.2028
11314TIP3    H155357   6.500   3.196  15.464  0.9087  0.1825 -1.7397
11314TIP3    H255358   6.395   3.299  15.499  0.5713 -1.2285  1.8406
11315TIP3   OH255359   0.333   0.707  10.613  0.2234 -0.1901  0.3839
11315TIP3    H155360   0.358   0.790  10.573  0.2351 -0.4269 -0.1210
11315TIP3    H255361   0.257   0.678  10.562  0.8400 -0.9703 -0.1264
11316TIP3   OH255362   4.921   1.075  17.164  0.0449 -0.2760  0.5335
11316TIP3    H155363   4.864   1.108  17.234  2.7795  0.1615  2.7432
11316TIP3    H255364   4.944   0.986  17.193 -0.9637 -1.2026 -1.3216
11317TIP3   OH255365   6.469   3.101  12.621  0.5331  0.3299 -0.0553
11317TIP3    H155366   6.550   3.052  12.634  0.1746 -0.8217 -1.7698
11317TIP3    H255367   6.401   3.034  12.614 -0.1635  1.1044 -1.2086
11318TIP3   OH255368   5.727   0.784   5.371  0.0194 -0.6712 -0.2876
11318TIP3    H155369   5.784   0.857   5.347 -2.3689  1.4504  0.1292
11318TIP3    H255370   5.697   0.805   5.459 -2.3619 -1.0255 -0.9547
11319TIP3   OH255371   3.880   2.036  12.661  0.4368  0.2629 -0.2866
11319TIP3    H155372   3.801   2.018  12.712  0.0204 -0.5660 -1.1977
11319TIP3    H255373   3.869   2.127  12.632 -0.5084 -0.0530 -0.9548
11320TIP3   OH255374   5.347   1.044   2.438  0.1787  0.1396  0.2545
11320TIP3    H155375   5.386   1.063   2.353  0.0616  0.4926  0.2774
11320TIP3    H255376   5.381   0.958   2.462 -2.6333 -1.7304 -1.8446
11321TIP3   OH255377   0.698   2.083  15.060 -0.3931 -0.2174  0.4089
11321TIP3    H155378   0.756   2.109  15.132 -0.7734  1.3301  0.1922
11321TIP3    H255379   0.622   2.141  15.068 -1.4077 -1.4333 -0.0004
11322TIP3   OH255380   3.240   0.748  13.813 -0.0212  0.2354  0.2411
11322TIP3    H155381   3.325   0.777  13.844  0.4231 -1.6635  0.9469
11322TIP3    H255382   3.247   0.652  13.809 -1.7385  0.1059 -0.8245
11323TIP3   OH255383   4.046   5.739   2.356 -0.3185  0.4726 -0.3836
11323TIP3    H155384   3.986   5.793   2.407  1.3848  1.8507  0.2980
11323TIP3    H255385   4.112   5.800   2.323  2.3005 -1.2125  1.2724
11324TIP3   OH255386   4.792   1.858   0.771  0.2175 -0.4392  0.4058
11324TIP3    H155387   4.726   1.833   0.707 -1.4066 -1.1173  2.2398
11324TIP3    H255388   4.810   1.777   0.819  0.6923  0.2387  1.4055
11325TIP3   OH255389   3.790   1.152   5.219 -0.0377 -0.0886 -0.6687
11325TIP3    H155390   3.843   1.102   5.282  0.2584 -0.5081 -1.2447
11325TIP3    H255391   3.725   1.196   5.273  0.4069 -0.1992 -0.0327
11326TIP3   OH255392   6.653   5.620  17.216  0.2414  0.6100  0.1978
11326TIP3    H155393   6.644   5.525  17.213 -1.7428  0.7609  0.3372
11326TIP3    H255394   6.740   5.634  17.253 -0.2615 -1.1620  2.2407
11327TIP3   OH255395   4.900   5.802  15.356 -0.0439  0.2757  0.3288
11327TIP3    H155396   4.980   5.792  15.407 -0.6423 -1.6960  0.9665
11327TIP3    H255397   4.857   5.717  15.362 -1.1725  0.6431 -1.7458
11328TIP3   OH255398   1.157   1.034  11.202  0.3285 -0.6133 -0.0028
11328TIP3    H155399   1.196   1.122  11.207 -1.1728  0.0767 -0.1021
11328TIP3    H255400   1.097   1.031  11.276 -0.6302 -1.0601 -0.7892
11329TIP3   OH255401   0.382   0.491  15.858 -0.1386 -0.4606  0.5263
11329TIP3    H155402   0.448   0.458  15.797  0.4292 -1.1548  1.4891
11329TIP3    H255403   0.432   0.524  15.933 -0.7761  1.1905  0.2794
11330TIP3   OH255404   1.654   2.484   0.548 -0.2562 -0.1939  0.5495
11330TIP3    H155405   1.561   2.499   0.566  0.0113  0.6092  1.3322
11330TIP3    H255406   1.660   2.392   0.524 -1.2694 -0.2294  0.3992
11331TIP3   OH255407   5.718   5.377  11.761 -0.1307 -0.3789 -0.0060
11331TIP3    H155408   5.670   5.430  11.825 -1.3472 -1.4916  0.0409
11331TIP3    H255409   5.741   5.439  11.691  1.7344  0.9971  1.7031
11332TIP3   OH255410   2.029   2.368  17.573 -0.1445  0.1703 -0.0746
11332TIP3    H155411   2.100   2.340  17.515  1.8453  1.6008  1.5199
11332TIP3    H255412   2.001   2.288  17.617 -0.2126 -0.5718 -1.4070
11333TIP3   OH255413   6.091   6.292  12.018  0.4393 -0.5317  0.2835
11333TIP3    H155414   6.181   6.260  12.029  1.3511  1.5023 -0.7540
11333TIP3    H255415   6.090   6.375  12.064 -0.1975  0.5858 -1.6332
11334TIP3   OH255416   3.082   0.449   2.241  0.5284  0.5192 -0.4362
11334TIP3    H155417   3.163   0.466   2.289  0.5299  1.4466 -0.7343
11334TIP3    H255418   3.019   0.509   2.280  0.3997  0.9246 -1.2365
11335TIP3   OH255419   0.018   2.329  17.139 -0.9995 -0.2069 -0.2984
11335TIP3    H155420  -0.004   2.412  17.096  1.0841 -0.0097 -1.1400
11335TIP3    H255421   0.051   2.355  17.225 -2.4858 -0.3821  0.3538
11336TIP3   OH255422   2.558   6.630  12.447 -0.0662  0.0010 -0.3792
11336TIP3    H155423   2.571   6.711  12.494  0.2654  0.1799 -0.7711
11336TIP3    H255424   2.627   6.572  12.478 -1.1032 -0.6073  0.8978
11337TIP3   OH255425   2.100   5.687  14.757 -0.1785  0.3364 -0.3469
11337TIP3    H155426   2.055   5.769  14.775 -0.2305  0.2689 -0.1683
11337TIP3    H255427   2.075   5.629  14.830  1.4454  0.7897  0.6074
11338TIP3   OH255428   2.161   4.343  13.087 -0.0694  0.0510  0.8747
11338TIP3    H155429   2.221   4.359  13.014  0.2158  1.5118  1.3974
11338TIP3    H255430   2.218   4.330  13.163 -0.3798 -0.8274  0.9713
11339TIP3   OH255431   1.862   5.648   3.953  0.5880 -0.7704  0.2940
11339TIP3    H155432   1.914   5.612   3.881  0.4246 -2.0405  0.7822
11339TIP3    H255433   1.773   5.651   3.917  0.3954 -1.9882  0.6123
11340TIP3   OH255434   3.121   5.531   0.379  0.0540  0.5939 -0.1419
11340TIP3    H155435   3.078   5.450   0.351 -0.8729  0.3531  1.8504
11340TIP3    H255436   3.062   5.600   0.350 -0.3271  0.4176  0.2078
11341TIP3   OH255437   3.040   5.215   2.187 -1.1097  0.0039 -0.2515
11341TIP3    H155438   2.946   5.196   2.179 -1.0725 -1.8306  2.4392
11341TIP3    H255439   3.059   5.205   2.280  1.5851  1.4593 -0.5466
11342TIP3   OH255440   1.255   2.141   2.454  0.1077 -0.3523  0.3742
11342TIP3    H155441   1.259   2.113   2.363 -1.7652  0.6339 -0.0609
11342TIP3    H255442   1.311   2.079   2.501  1.3361 -0.7108 -1.4572
11343TIP3   OH255443   0.386   2.255  14.687  0.0319 -0.0001  0.1980
11343TIP3    H155444   0.405   2.246  14.593  0.1164  0.1380  0.2027
11343TIP3    H255445   0.350   2.343  14.696 -0.5518 -0.2365  0.2017
11344TIP3   OH255446   4.781   3.985   4.084 -0.7499  0.5448 -0.3052
11344TIP3    H155447   4.798   3.946   3.997  0.2060 -0.4213  0.2880
11344TIP3    H255448   4.862   3.971   4.132 -0.9907  1.8110  0.4981
11345TIP3   OH255449   0.682   1.301  17.236 -0.0643 -0.6471  0.0812
11345TIP3    H155450   0.622   1.313  17.309 -0.7865  0.1157 -0.6109
11345TIP3    H255451   0.631   1.250  17.172 -0.6186  1.3576 -1.1913
11346TIP3   OH255452   2.810   0.081  13.869  0.4098 -0.0301  0.0377
11346TIP3    H155453   2.860   0.162  13.873 -1.3361  1.0823  0.6913
11346TIP3    H255454   2.733   0.103  13.816 -1.0012 -0.6884  1.6997
11347TIP3   OH255455   1.935   1.259   3.960  0.8381  0.1107  0.0009
11347TIP3    H155456   1.951   1.172   3.924 -1.8182 -1.5437  2.4009
11347TIP3    H255457   2.012   1.278   4.013  1.5924 -0.6026 -0.8184
11348TIP3   OH255458   3.565   1.299  15.328 -0.1957  0.2504 -0.4918
11348TIP3    H155459   3.508   1.234  15.369 -0.6834  0.0640 -1.4236
11348TIP3    H255460   3.651   1.281  15.365 -0.8777  1.1878  1.6948
11349TIP3   OH255461   1.433   1.711   1.675  0.5058  0.1288  0.2472
11349TIP3    H155462   1.398   1.719   1.764  2.2813 -1.8034  1.2206
11349TIP3    H255463   1.417   1.796   1.635 -2.3892  0.3371  1.6154
11350TIP3   OH255464   0.284   5.183   1.633  0.0173  0.3895 -0.1720
11350TIP3    H155465   0.325   5.251   1.580 -2.1172  2.8359  1.1229
11350TIP3    H255466   0.217   5.146   1.575  0.0762  0.5379 -0.3389
11351TIP3   OH255467   0.870   3.662   0.042  0.4145  0.4287 -0.0354
11351TIP3    H155468   0.868   3.578  -0.005  2.0998  0.1429  0.3519
11351TIP3    H255469   0.894   3.726  -0.025  1.2670  0.2625  0.1065
11352TIP3   OH255470   6.649   2.787  13.264 -0.2141  0.4071  0.7759
11352TIP3    H155471   6.670   2.830  13.346 -0.0160  0.7809  0.5354
11352TIP3    H255472   6.721   2.726  13.249  1.8110  2.9977 -0.9741
11353TIP3   OH255473   5.205   6.649   3.433 -0.4727 -0.3120  0.2606
11353TIP3    H155474   5.208   6.743   3.414  0.4328 -0.9051 -3.1957
11353TIP3    H255475   5.113   6.625   3.422 -1.0286  0.3705  2.8497
11354TIP3   OH255476   5.240   1.163  16.104 -0.3552  0.1960 -0.1186
11354TIP3    H155477   5.201   1.192  16.186  1.6028  0.8102  0.6396
11354TIP3    H255478   5.273   1.243  16.063 -0.1073 -0.2738 -0.8607
11355TIP3   OH255479   3.362   6.490   2.548  0.2916  0.1213 -0.5904
11355TIP3    H155480   3.389   6.500   2.456 -1.9570  0.5130 -1.2655
11355TIP3    H255481   3.293   6.423   2.545  0.1989  0.1301  0.8232
11356TIP3   OH255482   0.588   3.847  13.421  0.0352 -0.4261  0.5954
11356TIP3    H155483   0.577   3.913  13.353 -0.8168 -0.1120  1.0206
11356TIP3    H255484   0.523   3.780  13.400  2.1582 -2.1692 -0.9622
11357TIP3   OH255485   1.704   4.961   4.407  0.5944 -0.8207  1.0932
11357TIP3    H155486   1.680   5.053   4.401  0.8504 -0.7924  0.4649
11357TIP3    H255487   1.687   4.938   4.499  1.5447  0.1197  1.5213
11358TIP3   OH255488   0.864   1.193  10.578  0.0709 -0.0376 -0.2794
11358TIP3    H155489   0.803   1.132  10.536 -1.2569  0.7351  0.4717
11358TIP3    H255490   0.918   1.226  10.506 -0.0478 -1.1027 -0.8833
11359TIP3   OH255491   2.645   4.717   2.794 -0.2545  0.0000  0.5824
11359TIP3    H155492   2.568   4.772   2.806 -0.4450 -0.7079  3.2228
11359TIP3    H255493   2.699   4.765   2.730 -2.3553  1.0071 -0.5541
11360TIP3   OH255494   1.992   2.230  15.357  0.0467 -0.0927 -0.1155
11360TIP3    H155495   1.901   2.200  15.354 -0.3493  1.1178 -0.7350
11360TIP3    H255496   1.986   2.325  15.346  1.3051  0.1721  1.2084
11361TIP3   OH255497   4.471   0.587  15.795  0.2428 -0.3881 -0.3331
11361TIP3    H155498   4.394   0.538  15.767 -0.6007  0.8106 -0.1874
11361TIP3    H255499   4.539   0.564  15.732 -0.1811 -1.5488 -0.3979
11362TIP3   OH255500   4.322   5.350  10.376 -0.7008  0.4375  0.7361
11362TIP3    H155501   4.338   5.323  10.467  2.7544  1.5430  0.5863
11362TIP3    H255502   4.337   5.272  10.324 -2.8723 -0.2481  1.0244
11363TIP3   OH255503   6.081   4.707   4.606 -0.1541  0.1357  0.9066
11363TIP3    H155504   6.016   4.767   4.569 -1.1612 -0.1015  2.2223
11363TIP3    H255505   6.078   4.630   4.549 -0.5085  0.4113  0.5494
11364TIP3   OH255506   6.591   5.286   1.619 -0.1770  0.4270 -0.2762
11364TIP3    H155507   6.553   5.289   1.706 -0.3022 -0.1596 -0.3049
11364TIP3    H255508   6.686   5.289   1.634 -0.0698 -2.2910  0.0688
11365TIP3   OH255509   5.960   3.008  11.903 -0.0496  0.2133  0.0055
11365TIP3    H155510   5.959   3.099  11.933  0.3628  1.3812 -3.1483
11365TIP3    H255511   6.021   3.008  11.829 -1.7654 -2.1138 -1.5459
11366TIP3   OH255512   1.716   3.196  12.308 -0.0395 -0.2048 -0.1329
11366TIP3    H155513   1.748   3.121  12.359 -3.0489 -0.8480  0.9916
11366TIP3    H255514   1.682   3.156  12.227  0.0476  0.2082 -0.3755
11367TIP3   OH255515   4.913   4.901  17.355 -0.2456  0.3858  0.0775
11367TIP3    H155516   4.947   4.812  17.350  0.1008  0.4319  1.2585
11367TIP3    H255517   4.922   4.935  17.267  1.6686 -0.0166  0.0852
11368TIP3   OH255518   1.239   2.791   2.752  0.3262 -0.5166 -0.1759
11368TIP3    H155519   1.152   2.828   2.743 -0.0459 -0.9865  1.1445
11368TIP3    H255520   1.296   2.845   2.697 -0.3745  1.3003  0.8359
11369TIP3   OH255521   1.200   2.252  15.632  0.0809  0.5149 -0.2326
11369TIP3    H155522   1.182   2.331  15.580 -2.3288  0.0115 -0.2533
11369TIP3    H255523   1.206   2.182  15.567  0.9640  0.4619 -0.1076
11370TIP3   OH255524   6.384   4.454   0.424  0.2222  0.8032 -0.5017
11370TIP3    H155525   6.307   4.509   0.406 -0.3186  0.5037  0.8331
11370TIP3    H255526   6.367   4.416   0.510  0.7602 -1.1623 -1.2173
11371TIP3   OH255527   3.800   4.103  17.461 -0.4989 -0.3475 -0.1649
11371TIP3    H155528   3.709   4.077  17.448 -0.4152  0.0967 -1.9629
11371TIP3    H255529   3.831   4.048  17.534 -2.6507  0.7039  1.6513
11372TIP3   OH255530   1.076   2.161  13.404 -0.0302 -0.2767  0.0298
11372TIP3    H155531   1.053   2.252  13.424  2.0016  0.2091  0.4021
11372TIP3    H255532   1.171   2.163  13.389 -0.1773 -2.0949 -1.4642
11373TIP3   OH255533   3.778   4.836   5.956 -0.2020  0.1133  0.3481
11373TIP3    H155534   3.832   4.845   6.034  0.0448  0.8678  0.0908
11373TIP3    H255535   3.735   4.751   5.966  0.8034 -0.3602  0.6936
11374TIP3   OH255536   3.983   3.782   2.567 -0.7619  0.0564  0.1806
11374TIP3    H155537   3.947   3.707   2.615  3.1087 -0.9795  1.8762
11374TIP3    H255538   3.947   3.773   2.478 -2.7589 -2.0051  1.0922
11375TIP3   OH255539   1.137   1.079   4.459  0.3559  0.0812 -0.4057
11375TIP3    H155540   1.079   1.091   4.384  1.0350  0.6354 -0.8529
11375TIP3    H255541   1.089   1.119   4.532 -0.6886 -1.2288 -0.3461
11376TIP3   OH255542   5.728   0.519  11.703  0.1446 -1.0821 -0.5045
11376TIP3    H155543   5.766   0.521  11.791  0.3693 -2.2243 -0.5713
11376TIP3    H255544   5.636   0.541  11.717  0.6225  1.0883 -0.2730
11377TIP3   OH255545   0.834   2.374  16.203  1.1973  0.2081 -0.1666
11377TIP3    H155546   0.841   2.340  16.292  1.2478 -2.2449 -1.0459
11377TIP3    H255547   0.917   2.418  16.188  1.1450  0.7699  1.0065
11378TIP3   OH255548   5.549   3.372   6.957  0.8778  0.0824 -0.1806
11378TIP3    H155549   5.553   3.339   6.867 -1.8904 -2.0720  0.3487
11378TIP3    H255550   5.565   3.295   7.011  0.1501  0.8544  1.1708
11379TIP3   OH255551   5.695   0.654   2.339  0.3696  0.0760  0.6307
11379TIP3    H155552   5.682   0.559   2.344 -0.8203  0.1695 -0.1754
11379TIP3    H255553   5.724   0.669   2.249  1.2368  0.4195  0.9588
11380TIP3   OH255554   2.370   1.548   3.296  0.3652  0.1953  0.0700
11380TIP3    H155555   2.307   1.476   3.295  0.7834 -0.2019  0.9578
11380TIP3    H255556   2.398   1.554   3.388  0.6146  1.2451 -0.0631
11381TIP3   OH255557   5.007   3.627   3.429  0.3647 -0.2821  0.3430
11381TIP3    H155558   4.925   3.676   3.432  0.4652 -0.0310 -0.5821
11381TIP3    H255559   5.067   3.684   3.380  1.0089 -0.5832  0.7563
11382TIP3   OH255560   5.618   5.519   0.643  0.7771  0.5965 -0.5065
11382TIP3    H155561   5.524   5.534   0.634  0.7210  0.0141 -0.9828
11382TIP3    H255562   5.627   5.424   0.637  1.3204  0.5890  0.2842
11383TIP3   OH255563   1.308   6.142   5.315 -0.0481  0.7441 -0.0246
11383TIP3    H155564   1.334   6.155   5.406  1.4825 -0.7001 -0.2102
11383TIP3    H255565   1.382   6.097   5.275 -0.8999  0.8980 -1.8689
11384TIP3   OH255566   4.068   6.369   4.740 -0.2350 -0.2352 -0.6395
11384TIP3    H155567   4.084   6.276   4.725  1.5490 -0.1409  0.4928
11384TIP3    H255568   4.034   6.374   4.829 -0.3802  0.2080 -0.7147
11385TIP3   OH255569   2.326   4.981   5.092 -0.2898 -0.1302 -0.1947
11385TIP3    H155570   2.366   4.904   5.132 -0.8307 -1.1901 -1.5958
11385TIP3    H255571   2.332   5.049   5.159  2.2249 -0.7344  0.2736
11386TIP3   OH255572   3.229   5.012  12.805 -0.0692 -0.2778  0.3750
11386TIP3    H155573   3.229   5.107  12.807 -1.5214 -0.2377  0.0258
11386TIP3    H255574   3.138   4.989  12.784  0.9245 -1.6823 -3.0078
11387TIP3   OH255575   2.686   5.851   2.095 -0.1664  0.0568 -0.0434
11387TIP3    H155576   2.625   5.781   2.120  0.6452 -0.6617 -0.0487
11387TIP3    H255577   2.734   5.871   2.175  0.6201 -0.4203 -0.3890
11388TIP3   OH255578   0.393   3.802  13.137  0.0278 -0.4751  0.3179
11388TIP3    H155579   0.356   3.780  13.223  1.1919 -1.2199  0.6581
11388TIP3    H255580   0.468   3.858  13.158 -0.3115  0.2240 -0.2964
11389TIP3   OH255581   3.938   0.952   5.897  0.3057  0.6250  0.2365
11389TIP3    H155582   3.906   0.948   5.986 -1.8769  1.5255 -0.4473
11389TIP3    H255583   3.860   0.968   5.843  1.2652 -1.5060 -2.0136
11390TIP3   OH255584   1.462   4.557   0.720 -0.0698  0.1977 -0.1378
11390TIP3    H155585   1.396   4.625   0.727 -1.0521 -0.8881  1.8998
11390TIP3    H255586   1.517   4.567   0.798  1.1970  0.0610 -0.9738
11391TIP3   OH255587   1.571   6.275   1.461 -0.7558  0.0922  0.2378
11391TIP3    H155588   1.582   6.277   1.556  0.6704 -3.3419  0.2938
11391TIP3    H255589   1.631   6.343   1.429  0.5001 -0.2410  1.7250
11392TIP3   OH255590   6.703   2.222   1.871  0.6314 -0.3485  0.2288
11392TIP3    H155591   6.677   2.311   1.846  1.4720 -0.2324 -0.2911
11392TIP3    H255592   6.683   2.216   1.964 -2.0619 -0.5892 -0.2713
11393TIP3   OH255593   4.445   1.110   2.525  0.1639 -0.2224 -0.0385
11393TIP3    H155594   4.514   1.103   2.459  0.4895  1.1240  0.1259
11393TIP3    H255595   4.481   1.168   2.591 -0.4386 -0.9789  0.9794
11394TIP3   OH255596   1.331   1.303  15.044  0.0003  0.3257 -0.4027
11394TIP3    H155597   1.349   1.393  15.018 -1.0734  0.4412 -0.7660
11394TIP3    H255598   1.238   1.301  15.062 -0.0204 -0.7593 -0.5732
11395TIP3   OH255599   5.537   0.459  13.340  0.3193 -0.8561  0.1660
11395TIP3    H155600   5.468   0.392  13.345  0.0884 -0.6570 -0.3476
11395TIP3    H255601   5.535   0.489  13.249 -0.5333  0.8683  0.7125
11396TIP3   OH255602   4.871   3.137   2.880 -0.4738 -0.4483  0.6193
11396TIP3    H155603   4.899   3.220   2.919 -0.8485 -0.6653  1.3656
11396TIP3    H255604   4.781   3.127   2.909 -0.9362 -0.3619 -0.7473
11397TIP3   OH255605   1.530   0.440  10.184  0.3738 -0.5582 -0.3118
11397TIP3    H155606   1.476   0.458  10.107 -0.1978  0.7391  0.3786
11397TIP3    H255607   1.480   0.376  10.235 -0.0212 -0.1540 -0.1941
11398TIP3   OH255608   5.281   3.217   2.539 -0.4404 -0.3283 -0.2246
11398TIP3    H155609   5.249   3.223   2.449  0.5763 -2.3770 -0.7757
11398TIP3    H255610   5.376   3.223   2.531 -0.3313 -0.5484  0.7300
11399TIP3   OH255611   0.154   0.386  11.741  0.1166  0.1162 -0.3613
11399TIP3    H155612   0.086   0.449  11.764  1.5311  1.5005  0.1820
11399TIP3    H255613   0.138   0.311  11.798 -1.4384  0.0502 -0.8484
11400TIP3   OH255614   3.978   5.389  16.367  0.1561  0.3638 -0.0908
11400TIP3    H155615   3.943   5.300  16.369 -2.6250  1.3493 -0.5748
11400TIP3    H255616   3.905   5.445  16.392  1.6184  2.6048 -0.4724
11401TIP3   OH255617   5.163   3.459  16.051  0.0539  0.3353 -0.2233
11401TIP3    H155618   5.235   3.490  15.995  0.3102  0.0632 -0.0472
11401TIP3    H255619   5.120   3.539  16.081  1.5474  0.6041  1.3465
11402TIP3   OH255620   1.840   0.261  16.021  0.1293  0.3104 -0.8953
11402TIP3    H155621   1.792   0.325  15.967  0.7700  1.5419 -0.0635
11402TIP3    H255622   1.796   0.178  16.005 -1.3079  1.1182 -1.3333
11403TIP3   OH255623   6.207   0.215  12.207 -0.5435 -0.5142 -0.1872
11403TIP3    H155624   6.228   0.147  12.271  1.4160  0.0765 -0.1448
11403TIP3    H255625   6.225   0.297  12.252  0.6033 -0.0736 -1.3888
11404TIP3   OH255626   4.381   0.067  12.481 -0.1350 -0.5535  0.4952
11404TIP3    H155627   4.298   0.032  12.449 -0.2642 -0.3881  0.6431
11404TIP3    H255628   4.438   0.068  12.405 -0.6004  0.3209  0.1412
11405TIP3   OH255629   5.008   1.637  14.902  0.6222  0.5317  0.4137
11405TIP3    H155630   4.916   1.665  14.896 -0.6583 -2.5713  2.6682
11405TIP3    H255631   5.036   1.668  14.988  2.1791  2.3888 -0.6794
11406TIP3   OH255632   2.904   0.480   1.180 -0.5309 -0.0179 -0.1866
11406TIP3    H155633   2.921   0.484   1.274 -1.2035 -2.7165  0.1387
11406TIP3    H255634   2.990   0.465   1.141 -0.7058 -3.9849  0.5668
11407TIP3   OH255635   4.270   1.097  16.699 -0.2064 -0.2525 -0.3150
11407TIP3    H155636   4.275   1.097  16.603  2.5785  1.0834 -0.2699
11407TIP3    H255637   4.290   1.007  16.723  1.4428 -0.0919 -0.9785
11408TIP3   OH255638   6.148   4.057   1.057 -0.5272  0.0937 -0.0103
11408TIP3    H155639   6.163   4.028   0.967 -2.1810  0.4596 -0.4369
11408TIP3    H255640   6.215   4.123   1.073 -2.8496  3.4300 -2.6528
11409TIP3   OH255641   3.072   2.083   5.572  0.0739  0.1662  0.0998
11409TIP3    H155642   3.021   2.162   5.553 -0.7239 -0.5246 -0.7523
11409TIP3    H255643   3.054   2.025   5.498  1.5497 -0.3894  0.1325
11410TIP3   OH255644   2.420   1.382   6.626 -0.0900 -0.0453 -0.2871
11410TIP3    H155645   2.390   1.458   6.576  0.6263 -0.1181 -0.8398
11410TIP3    H255646   2.345   1.323   6.627 -0.4425  0.3949 -0.4022
11411TIP3   OH255647   4.638   3.408   4.046 -0.5522  0.0909 -0.2222
11411TIP3    H155648   4.605   3.498   4.045  0.5619  0.5568  1.6366
11411TIP3    H255649   4.559   3.354   4.052 -1.1712  1.1399  2.7464
11412TIP3   OH255650   2.256   4.388  16.673 -0.6094  0.1992  0.2779
11412TIP3    H155651   2.348   4.374  16.696 -0.3934 -0.7149 -1.0568
11412TIP3    H255652   2.255   4.394  16.578 -2.0767 -1.0427  0.1774
11413TIP3   OH255653   3.136   6.221   4.510 -0.2669 -0.6046 -0.3365
11413TIP3    H155654   3.088   6.260   4.436 -0.7138  3.1198  1.7015
11413TIP3    H255655   3.225   6.254   4.502  0.4437 -2.4232 -0.6078
11414TIP3   OH255656   3.539   0.024  13.411  0.3660  0.2068 -0.2369
11414TIP3    H155657   3.628  -0.008  13.425  0.4878  0.0599 -1.2923
11414TIP3    H255658   3.548   0.119  13.409  0.5510  0.1812 -0.6651
11415TIP3   OH255659   0.349   4.656   1.864  0.3343 -0.1563 -0.0432
11415TIP3    H155660   0.326   4.678   1.954  2.0726 -1.0917  0.6760
11415TIP3    H255661   0.321   4.733   1.813 -1.2355  0.1391  1.1574
11416TIP3   OH255662   4.157   3.486  12.904  0.9129 -0.1955 -0.0655
11416TIP3    H155663   4.146   3.392  12.921  0.4121 -0.2661 -0.7213
11416TIP3    H255664   4.240   3.508  12.944  0.4465 -0.6447  1.1996
11417TIP3   OH255665   6.688   6.201   0.984 -0.2280 -0.9967  0.2755
11417TIP3    H155666   6.763   6.248   1.021 -0.6346  0.9365 -1.2053
11417TIP3    H255667   6.723   6.116   0.959  1.7507  0.1733 -1.2158
11418TIP3   OH255668   6.481   2.773   6.121 -0.1860 -0.2057 -0.3685
11418TIP3    H155669   6.544   2.708   6.152 -0.8983  0.1459  2.0245
11418TIP3    H255670   6.494   2.849   6.178 -2.3475  0.0781 -0.1610
11419TIP3   OH255671   2.223   5.887  16.939 -0.1472 -0.0578  0.0627
11419TIP3    H155672   2.269   5.888  16.855 -3.3446  1.7453 -1.8920
11419TIP3    H255673   2.253   5.966  16.984 -0.6242  0.6414 -0.8160
11420TIP3   OH255674   5.756   3.318  12.393 -0.0976  0.3498  1.1774
11420TIP3    H155675   5.821   3.364  12.340  0.4414 -0.7551  0.8486
11420TIP3    H255676   5.690   3.287  12.331 -0.2101  0.2796  1.3299
11421TIP3   OH255677   4.914   3.364   2.316  0.0720  0.5603 -0.4226
11421TIP3    H155678   4.893   3.454   2.290  0.3477  0.8479  0.3258
11421TIP3    H255679   4.840   3.338   2.371 -1.2064 -0.5427 -2.5554
11422TIP3   OH255680   6.071   6.548  12.264 -0.1262 -0.5378  0.3384
11422TIP3    H155681   6.160   6.580  12.274 -0.3294 -0.1270  0.8200
11422TIP3    H255682   6.031   6.608  12.201 -0.0288 -0.7994  0.0228
11423TIP3   OH255683   3.785   5.930   0.988 -0.3323  0.0253 -0.1659
11423TIP3    H155684   3.747   5.877   1.059  0.3010 -0.8164 -0.4411
11423TIP3    H255685   3.736   5.904   0.910 -0.7130  0.6136 -0.1325
11424TIP3   OH255686   3.359   1.799  17.575 -0.2190  0.0108  0.8745
11424TIP3    H155687   3.401   1.718  17.546  2.4048  0.8354  2.1439
11424TIP3    H255688   3.348   1.789  17.669 -2.7868 -0.0636  0.6355
11425TIP3   OH255689   5.565   0.165   2.130  0.0910  0.3893 -0.3024
11425TIP3    H155690   5.537   0.215   2.053 -0.0216 -1.2617 -1.3883
11425TIP3    H255691   5.492   0.105   2.147  0.3293  0.3914  0.8006
11426TIP3   OH255692   1.602   2.324  10.832 -0.0118 -0.1469  0.0848
11426TIP3    H155693   1.540   2.267  10.786 -1.1082  0.6818  0.4730
11426TIP3    H255694   1.626   2.276  10.911 -1.6752  0.2814  0.8973
11427TIP3   OH255695   5.904   0.882   0.023 -1.0955  0.4282  0.0611
11427TIP3    H155696   5.917   0.970  -0.012 -0.8372 -0.8723 -3.5694
11427TIP3    H255697   5.992   0.845   0.029 -1.3625 -0.4652 -1.1754
11428TIP3   OH255698   1.290   4.640  15.307 -0.9138  0.3616 -0.1426
11428TIP3    H155699   1.269   4.668  15.396 -0.0974  3.4930 -0.8207
11428TIP3    H255700   1.386   4.641  15.304 -0.9414  1.0034 -1.2278
11429TIP3   OH255701   0.217   2.202   2.070 -0.5977  0.1381  0.3275
11429TIP3    H155702   0.127   2.205   2.103  0.2016 -0.8940  2.8440
11429TIP3    H255703   0.250   2.291   2.080 -0.6898  0.0538  1.5226
11430TIP3   OH255704   2.709   3.613   3.415 -0.2163 -0.2482  0.2908
11430TIP3    H155705   2.633   3.613   3.474 -0.2503 -0.9228  0.2536
11430TIP3    H255706   2.785   3.621   3.474 -0.2630 -0.6875  0.4152
11431TIP3   OH255707   2.610   2.402   0.487  1.0771  0.2540  0.0662
11431TIP3    H155708   2.584   2.415   0.396  1.5759 -0.4625 -0.1859
11431TIP3    H255709   2.534   2.431   0.538  0.0720 -1.0840 -0.6142
11432TIP3   OH255710   0.961   5.518   1.867  0.0004 -0.2693  0.5912
11432TIP3    H155711   0.974   5.552   1.955 -1.1135 -1.6000  1.3009
11432TIP3    H255712   1.040   5.544   1.819 -0.0490  1.7551  1.5469
11433TIP3   OH255713   1.624   4.399  12.425 -0.4740 -0.0727  0.0547
11433TIP3    H155714   1.628   4.305  12.443 -1.2876 -0.3974 -1.2970
11433TIP3    H255715   1.533   4.415  12.401 -0.1138  0.8488 -0.7818
11434TIP3   OH255716   1.940   1.992   4.434 -0.2674  0.2010  0.5840
11434TIP3    H155717   1.922   1.908   4.476 -0.0110  0.0305  0.3577
11434TIP3    H255718   1.888   2.056   4.483 -3.4099 -0.5749 -1.4390
11435TIP3   OH255719   1.252   5.286  12.842  0.2171 -0.0369 -0.0695
11435TIP3    H155720   1.278   5.369  12.802 -0.3702  0.5983  0.8384
11435TIP3    H255721   1.227   5.309  12.932  0.7151 -1.3019  0.4245
11436TIP3   OH255722   1.618   2.324  11.691 -0.5100 -0.4340 -0.6405
11436TIP3    H155723   1.607   2.229  11.690 -1.2310 -0.3698 -2.0791
11436TIP3    H255724   1.665   2.343  11.609  0.1128  0.4112 -0.1061
11437TIP3   OH255725   6.599   5.328   2.499  0.3347  0.2217 -0.5914
11437TIP3    H155726   6.656   5.282   2.560  1.5191  0.1733 -1.7005
11437TIP3    H255727   6.602   5.419   2.527  1.2732  0.2811 -0.8735
11438TIP3   OH255728   0.009   2.742  14.024  0.2635  0.0270 -0.0228
11438TIP3    H155729   0.018   2.766  13.931  0.7762 -0.7247 -0.1776
11438TIP3    H255730  -0.060   2.676  14.024  0.1669  0.1288  0.1557
11439TIP3   OH255731   4.087   1.390   6.622 -0.1628  0.5641  0.6842
11439TIP3    H155732   4.093   1.485   6.624 -1.4739  0.6786  0.1502
11439TIP3    H255733   4.177   1.360   6.611  0.1892  1.7597  0.1702
11440TIP3   OH255734   0.622   4.597  16.061  0.7870 -0.1485 -0.3852
11440TIP3    H155735   0.642   4.632  16.148  2.9114  0.3999 -1.0370
11440TIP3    H255736   0.527   4.589  16.060  0.5540  1.6298  1.3127
11441TIP3   OH255737   4.936   6.329  16.473  0.6620  0.0509 -0.0553
11441TIP3    H155738   4.868   6.263  16.483 -1.4375  2.2957  1.7094
11441TIP3    H255739   5.004   6.304  16.536 -0.4813 -0.0464  1.1710
11442TIP3   OH255740   1.580   4.431  14.145  0.2982  0.1824  0.3407
11442TIP3    H155741   1.496   4.447  14.189  0.2999  0.5006  0.2251
11442TIP3    H255742   1.646   4.467  14.204  0.4545 -1.1519  1.0177
11443TIP3   OH255743   3.763   6.370  17.407  0.5048  0.5465  0.3455
11443TIP3    H155744   3.822   6.416  17.347  1.3514  0.8381  1.3790
11443TIP3    H255745   3.789   6.278  17.399 -0.6288  0.3070 -1.0891
11444TIP3   OH255746   5.318   5.248   0.461  0.3432  0.3294  0.2016
11444TIP3    H155747   5.267   5.263   0.381 -0.5385  0.2271  0.7245
11444TIP3    H255748   5.261   5.280   0.531 -0.0421 -1.9719  1.0240
11445TIP3   OH255749   4.566   0.449   0.834 -0.2285  0.0185  0.5016
11445TIP3    H155750   4.588   0.366   0.793  2.0186  0.6343  0.3191
11445TIP3    H255751   4.517   0.425   0.913  1.0087 -1.5239  0.8424
11446TIP3   OH255752   3.864   5.554  12.745 -0.1437  0.9588 -0.4079
11446TIP3    H155753   3.870   5.460  12.727 -0.5049  0.7937  0.2967
11446TIP3    H255754   3.902   5.595  12.668 -0.5820  0.2514 -1.0228
11447TIP3   OH255755   5.489   2.973   0.889 -0.0882 -0.1479  0.3972
11447TIP3    H155756   5.460   3.060   0.913  0.6715  1.2509 -3.1099
11447TIP3    H255757   5.581   2.985   0.863 -0.0668 -1.9173 -0.4745
11448TIP3   OH255758   0.419   4.995  11.539 -0.2164  0.4243  0.0044
11448TIP3    H155759   0.452   5.065  11.482 -0.5998  0.4768 -0.1571
11448TIP3    H255760   0.443   5.024  11.627  3.4849 -1.2714 -0.2549
11449TIP3   OH255761   5.965   1.516   3.897  0.3525  0.1286 -0.1176
11449TIP3    H155762   5.914   1.466   3.834  0.6532 -1.3309  0.7579
11449TIP3    H255763   5.950   1.608   3.872 -0.2122 -0.3733 -1.7525
11450TIP3   OH255764   5.866   1.044  12.373  0.3600  0.0896  0.2690
11450TIP3    H155765   5.882   1.135  12.398  1.8708 -0.1252  0.2122
11450TIP3    H255766   5.772   1.039  12.358  0.5729  2.4240 -2.8812
11451TIP3   OH255767   4.160   2.594   5.458 -0.1088 -0.0872  0.3160
11451TIP3    H155768   4.179   2.544   5.378 -1.0559  0.2096 -0.1054
11451TIP3    H255769   4.245   2.628   5.486  0.3532 -0.8627 -0.1114
11452TIP3   OH255770   2.518   1.467   1.793  0.3536  0.2839 -0.0722
11452TIP3    H155771   2.442   1.493   1.740 -0.0851  0.1822  0.4856
11452TIP3    H255772   2.558   1.395   1.745 -1.5361 -1.5482  0.9394
11453TIP3   OH255773   3.583   3.181  17.188  0.1218  0.3501  0.2981
11453TIP3    H155774   3.557   3.090  17.173 -0.1020  0.5120 -0.3208
11453TIP3    H255775   3.502   3.227  17.206  0.2018  0.4900  0.3014
11454TIP3   OH255776   5.688   3.854  13.151 -0.8035 -0.4721  0.3329
11454TIP3    H155777   5.687   3.825  13.243 -1.0279 -2.1655 -0.1734
11454TIP3    H255778   5.670   3.775  13.101 -0.5891  0.4147 -1.1939
11455TIP3   OH255779   2.162   5.021   2.096  0.5063 -0.0829 -0.2531
11455TIP3    H155780   2.235   5.058   2.045  0.6812 -0.9425 -0.6380
11455TIP3    H255781   2.132   5.094   2.150  0.2848  0.8717 -1.6231
11456TIP3   OH255782   0.061   5.521   2.948 -0.0911  0.3490  0.0607
11456TIP3    H155783   0.085   5.429   2.948 -0.2831  0.2778  1.3940
11456TIP3    H255784   0.141   5.567   2.973 -0.2067  0.4829  0.1829
11457TIP3   OH255785   3.034   1.187   3.057  0.2735 -0.0653 -0.1919
11457TIP3    H155786   3.127   1.167   3.052  0.2559 -0.9879  2.0388
11457TIP3    H255787   3.016   1.195   3.151 -1.6165  1.5317 -0.6211
11458TIP3   OH255788   6.215   6.487  16.705 -0.3884  0.1805 -0.3217
11458TIP3    H155789   6.194   6.409  16.756  1.1831  0.1522  0.3372
11458TIP3    H255790   6.147   6.491  16.638 -0.5476 -1.7268 -0.3322
11459TIP3   OH255791   3.657   3.085  11.813  0.1041  0.0670  0.0450
11459TIP3    H155792   3.568   3.105  11.840  0.4352 -0.4026  1.5587
11459TIP3    H255793   3.657   2.991  11.795  0.6157 -0.2406  1.5058
11460TIP3   OH255794   6.415   2.978   6.384 -0.2369  0.2675 -0.2389
11460TIP3    H155795   6.509   2.964   6.370 -0.5628 -2.7957 -0.1723
11460TIP3    H255796   6.409   3.025   6.467  1.2356  0.1830 -0.0649
11461TIP3   OH255797   5.810   0.606   0.762 -0.0145 -0.2317  0.1334
11461TIP3    H155798   5.750   0.618   0.689 -0.1223 -0.6546  0.1489
11461TIP3    H255799   5.794   0.681   0.820  0.0348  0.0777 -0.2490
11462TIP3   OH255800   6.230   4.464  14.974 -0.2953  0.3800  0.1670
11462TIP3    H155801   6.164   4.477  14.905 -0.3583  0.0052  0.1535
11462TIP3    H255802   6.195   4.512  15.049 -0.4437  0.4283  0.0689
11463TIP3   OH255803   4.592   2.123  14.890 -0.3313  0.0583  0.2296
11463TIP3    H155804   4.653   2.158  14.955 -1.2190  1.0553  0.5666
11463TIP3    H255805   4.532   2.196  14.872 -1.7310 -1.0261  0.2913
11464TIP3   OH255806   0.113   0.356  14.459  0.4437  0.1168 -0.3611
11464TIP3    H155807   0.043   0.318  14.512  0.2997  1.3516  0.3900
11464TIP3    H255808   0.078   0.440  14.430  2.1808  1.5811  1.4920
11465TIP3   OH255809   3.900   0.416   5.564  0.0268  0.0933 -0.0005
11465TIP3    H155810   3.882   0.462   5.482  0.8762 -2.1250 -1.5503
11465TIP3    H255811   3.815   0.409   5.607 -1.4145 -2.4047 -2.8234
11466TIP3   OH255812   6.367   3.984  14.820 -0.4380  0.9292  0.5441
11466TIP3    H155813   6.309   4.011  14.749 -1.1159 -0.8422  0.3536
11466TIP3    H255814   6.326   4.018  14.899 -1.6105 -0.0110  0.3780
11467TIP3   OH255815   4.028   6.576   1.132 -1.1222 -0.2387 -0.1584
11467TIP3    H155816   3.958   6.638   1.153 -1.7082 -0.4702 -1.2860
11467TIP3    H255817   4.108   6.618   1.162 -1.8712 -0.7180  2.7785
11468TIP3   OH255818   4.907   3.540  13.136 -0.1338  0.0290  0.4817
11468TIP3    H155819   4.872   3.488  13.208  2.6599 -2.4028  0.3213
11468TIP3    H255820   4.870   3.500  13.057  0.4808 -0.4761  0.4372
11469TIP3   OH255821   0.084   5.330   3.807 -0.2420  0.3633 -0.0222
11469TIP3    H155822   0.172   5.307   3.834 -0.1567 -0.1400 -0.6897
11469TIP3    H255823   0.086   5.425   3.793  0.8566  0.0851 -2.2586
11470TIP3   OH255824   3.625   2.520  15.984  0.5046 -0.0616  0.2671
11470TIP3    H155825   3.571   2.529  15.906  2.3948 -0.4955 -1.1776
11470TIP3    H255826   3.626   2.607  16.024  0.5803  0.5062 -0.9446
11471TIP3   OH255827   0.065   4.873  13.870 -0.2351 -0.4282 -0.0925
11471TIP3    H155828   0.146   4.842  13.910 -0.3264  0.5862  0.9345
11471TIP3    H255829  -0.004   4.850  13.932 -0.5851 -0.2045 -0.3870
11472TIP3   OH255830   6.080   5.585   5.194  0.4478  0.2406 -0.2705
11472TIP3    H155831   5.988   5.561   5.185  0.7584 -1.2262  0.1108
11472TIP3    H255832   6.115   5.581   5.105  0.4804 -0.7682 -0.2254
11473TIP3   OH255833   2.129   0.009   2.270  0.0027  0.0619  0.9982
11473TIP3    H155834   2.066   0.078   2.289  1.1114  1.2350  0.5626
11473TIP3    H255835   2.092  -0.070   2.309 -2.6104  0.3048 -0.7228
11474TIP3   OH255836   4.533   2.307   6.354  0.0997  0.4828  0.6614
11474TIP3    H155837   4.595   2.330   6.285 -1.4292  1.4249 -0.4551
11474TIP3    H255838   4.522   2.212   6.344  1.4984  0.2477  1.0419
11475TIP3   OH255839   2.321   4.242   0.603  0.6521  0.0762  0.9784
11475TIP3    H155840   2.410   4.273   0.583  0.4645  0.0867  0.1414
11475TIP3    H255841   2.320   4.151   0.572  0.4298  0.0142  1.1671
11476TIP3   OH255842   3.408   1.865  12.567  0.1010 -0.1524  0.4154
11476TIP3    H155843   3.380   1.777  12.591  1.4040 -0.5255  0.6290
11476TIP3    H255844   3.473   1.852  12.498 -0.9134  0.7445 -0.7691
11477TIP3   OH255845   3.527   4.402   4.442 -0.2088  0.5380  0.5387
11477TIP3    H155846   3.515   4.474   4.504  2.6558  0.4309  1.3747
11477TIP3    H255847   3.518   4.323   4.496  0.4028  0.3898  0.4250
11478TIP3   OH255848   3.893   5.396   3.442  0.3452  0.4294  0.0549
11478TIP3    H155849   3.866   5.314   3.483 -0.4869  0.1517 -0.9893
11478TIP3    H255850   3.967   5.426   3.494  1.4004 -1.5591 -0.2150
11479TIP3   OH255851   4.587   3.948  14.421 -0.5209  0.4206  0.1890
11479TIP3    H155852   4.587   3.895  14.501 -0.3374 -1.6647 -1.0994
11479TIP3    H255853   4.506   3.997  14.425 -0.1728  0.9302  1.9805
11480TIP3   OH255854   5.253   5.488  11.470 -0.3773 -0.8303 -0.2046
11480TIP3    H155855   5.225   5.516  11.557  1.9939 -0.4419  0.4917
11480TIP3    H255856   5.227   5.395  11.465 -0.2384 -0.9452  1.0434
11481TIP3   OH255857   4.939   1.056  13.310  0.2795 -0.4682  0.2518
11481TIP3    H155858   4.868   1.004  13.348  1.0318 -0.7956  1.2658
11481TIP3    H255859   4.899   1.140  13.289 -0.4384 -0.6972  0.6740
11482TIP3   OH255860   2.235   1.217   0.252  0.6007  0.3190 -0.4443
11482TIP3    H155861   2.280   1.278   0.193  0.1123  0.9451 -0.1828
11482TIP3    H255862   2.179   1.166   0.194 -1.7345  2.5533 -0.3544
11483TIP3   OH255863   0.608   0.103  17.063  0.2517  0.2959  0.1612
11483TIP3    H155864   0.677   0.138  17.007  1.1444 -0.3885  0.7987
11483TIP3    H255865   0.532   0.158  17.045  0.0620 -0.7379 -2.7736
11484TIP3   OH255866   4.662   4.789   0.608 -0.7512  0.3112  0.1922
11484TIP3    H155867   4.589   4.785   0.671 -1.4431  2.3518 -0.3968
11484TIP3    H255868   4.619   4.800   0.523  0.2225  1.5757 -0.1603
11485TIP3   OH255869   5.132   2.087  15.913 -0.6562 -0.3300 -0.1718
11485TIP3    H155870   5.187   2.153  15.870 -0.4926 -0.4220 -0.1041
11485TIP3    H255871   5.043   2.117  15.898 -0.5862 -0.1602 -0.2519
11486TIP3   OH255872   2.210   4.277   3.235  0.0067 -0.3242 -0.1537
11486TIP3    H155873   2.232   4.323   3.316  0.1274 -0.7031  0.0305
11486TIP3    H255874   2.119   4.303   3.216 -0.2275 -0.7056  0.4316
11487TIP3   OH255875   5.163   3.311  13.749  0.0458 -0.0315  0.4355
11487TIP3    H155876   5.092   3.366  13.783  0.7402  1.2586 -0.1658
11487TIP3    H255877   5.156   3.319  13.654 -0.3851 -1.7189  0.2874
11488TIP3   OH255878   4.716   2.083   5.246 -0.1528  0.1385 -0.6120
11488TIP3    H155879   4.734   2.172   5.215 -0.1014  0.6124  0.6884
11488TIP3    H255880   4.789   2.031   5.213  1.8546  1.3371  1.6300
11489TIP3   OH255881   4.224   4.909   0.776  0.1411  0.0950  0.2942
11489TIP3    H155882   4.313   4.880   0.797  0.1324  0.1929  0.4672
11489TIP3    H255883   4.237   4.979   0.711  0.2468  0.7963  1.0520
11490TIP3   OH255884   0.852   1.349   1.036  0.2751 -0.4762 -0.0589
11490TIP3    H155885   0.886   1.431   1.071 -0.1525  0.3000 -1.3833
11490TIP3    H255886   0.930   1.300   1.009  0.4933 -0.1309 -0.0625
11491TIP3   OH255887   5.552   3.170  11.981  0.3814 -0.0230 -0.0159
11491TIP3    H155888   5.596   3.123  11.910  0.1805  0.4175 -0.4404
11491TIP3    H255889   5.597   3.255  11.985 -1.5175  1.1618 -1.6685
11492TIP3   OH255890   6.372   3.238  13.016 -0.2716 -0.0822  0.1670
11492TIP3    H155891   6.376   3.143  13.001 -2.0522 -0.1125 -0.3444
11492TIP3    H255892   6.364   3.246  13.111  3.2207 -0.2400  0.5903
11493TIP3   OH255893   5.381   5.590   3.787 -0.5963  0.2747 -0.2246
11493TIP3    H155894   5.295   5.600   3.747 -0.6427 -0.5696 -0.3478
11493TIP3    H255895   5.440   5.574   3.713 -0.5969 -0.7557 -0.0138
11494TIP3   OH255896   3.918   5.577  15.021  0.0442  0.1352 -0.3233
11494TIP3    H155897   3.912   5.667  14.990 -2.4629  0.7582  1.6903
11494TIP3    H255898   3.942   5.584  15.113  0.6621 -1.3335 -0.3359
11495TIP3   OH255899   5.606   4.611  10.971  0.3406 -0.8860 -0.6261
11495TIP3    H155900   5.611   4.624  10.876  0.8642  0.0946 -0.4769
11495TIP3    H255901   5.670   4.673  11.007  1.8394 -2.8219  0.2527
11496TIP3   OH255902   3.244   0.429  12.335 -0.2310 -0.2865 -0.1248
11496TIP3    H155903   3.283   0.494  12.394  0.5430 -0.8781  0.0413
11496TIP3    H255904   3.318   0.399  12.282 -0.8458 -0.0481 -1.1288
11497TIP3   OH255905   2.914   3.100  13.457 -0.0067 -0.3414  0.0191
11497TIP3    H155906   3.001   3.063  13.440  0.2729  0.8086 -1.2896
11497TIP3    H255907   2.853   3.033  13.425  0.4700 -0.1098 -1.4927
11498TIP3   OH255908   1.702   1.525   0.494 -0.2667 -0.2870 -0.4588
11498TIP3    H155909   1.695   1.587   0.566  0.1779 -1.4045  0.5757
11498TIP3    H255910   1.666   1.443   0.528 -0.4324 -0.7358 -1.6462
11499TIP3   OH255911   5.715   2.390   1.827  0.0347 -0.4126  0.5029
11499TIP3    H155912   5.666   2.320   1.785 -1.0187  0.7443 -0.2402
11499TIP3    H255913   5.785   2.410   1.765  0.8144 -1.3027  1.0641
11500TIP3   OH255914   0.388   0.629  14.295  0.5486  0.2599  0.1734
11500TIP3    H155915   0.296   0.653  14.310  0.1539  1.6839 -3.4844
11500TIP3    H255916   0.390   0.596  14.205  3.9614  2.6225 -0.8129
11501TIP3   OH255917   1.669   6.168   4.012  0.0558 -0.8566 -0.1241
11501TIP3    H155918   1.683   6.080   4.047  3.7920 -0.4490 -0.2039
11501TIP3    H255919   1.690   6.160   3.919 -0.8692 -0.1186 -0.4039
11502TIP3   OH255920   1.801   4.112  11.885  0.2422  0.0562  0.8801
11502TIP3    H155921   1.764   4.195  11.855 -0.5552 -0.3406  0.7402
11502TIP3    H255922   1.889   4.111  11.849  0.2872  0.8656  0.9328
11503TIP3   OH255923   3.533   0.773  13.204 -0.1836  0.2629 -0.2220
11503TIP3    H155924   3.491   0.688  13.195  1.6723 -0.8291  0.7427
11503TIP3    H255925   3.560   0.777  13.296  0.4403  1.5568 -0.4353
11504TIP3   OH255926   6.559   3.508  11.111 -0.3193  0.0729  0.5943
11504TIP3    H155927   6.517   3.590  11.088  3.5195  1.9445 -0.4839
11504TIP3    H255928   6.595   3.523  11.199 -1.5790 -1.4021  1.4156
11505TIP3   OH255929   3.767   2.762  15.118 -0.1783 -0.3340  0.0125
11505TIP3    H155930   3.748   2.805  15.201  1.0017  2.0300 -0.8353
11505TIP3    H255931   3.681   2.747  15.079 -0.6786  0.7647  0.6436
11506TIP3   OH255932   4.737   5.562   2.347 -0.0950  0.1815 -0.7877
11506TIP3    H155933   4.649   5.590   2.371  0.5703  1.0173  0.8298
11506TIP3    H255934   4.737   5.467   2.361 -0.1325  0.4607  1.4129
11507TIP3   OH255935   1.595   1.359   1.979 -0.0400 -0.0858  0.0747
11507TIP3    H155936   1.664   1.293   1.983 -0.9550 -1.2667 -2.0316
11507TIP3    H255937   1.624   1.427   2.040  1.6803 -1.7149  1.1964
11508TIP3   OH255938   5.781   6.177   0.439  1.1564 -0.1929 -0.1598
11508TIP3    H155939   5.819   6.139   0.360  0.6156  0.1506 -0.5972
11508TIP3    H255940   5.687   6.182   0.420  0.8080 -1.5021  1.0913
11509TIP3   OH255941   0.175   1.852  14.171  0.2363 -0.0055 -0.4762
11509TIP3    H155942   0.115   1.848  14.246  0.1284 -0.4285 -0.5792
11509TIP3    H255943   0.182   1.945  14.150  0.7484  0.1788  0.4431
11510TIP3   OH255944   3.829   0.154   5.693  0.3070  0.0754  0.1972
11510TIP3    H155945   3.752   0.190   5.736 -1.0570  0.3422 -2.2505
11510TIP3    H255946   3.897   0.154   5.760 -1.7929 -0.1661  2.4616
11511TIP3   OH255947   0.369   5.320   2.165  0.1952 -0.0619 -0.5954
11511TIP3    H155948   0.310   5.340   2.237 -0.8412 -0.4911 -1.3103
11511TIP3    H255949   0.375   5.402   2.116  0.6525  0.1398 -0.2170
11512TIP3   OH255950   0.123   5.528  15.449  0.2793 -0.3472 -0.1499
11512TIP3    H155951   0.211   5.567  15.452  1.1973 -2.3391  0.6983
11512TIP3    H255952   0.139   5.435  15.438 -1.7922 -0.6708 -0.7470
11513TIP3   OH255953   4.026   1.072   3.855  0.3116  0.0654  0.1338
11513TIP3    H155954   4.087   1.122   3.908  1.4509  1.6819 -2.4806
11513TIP3    H255955   4.046   0.980   3.873  1.5474  0.5643  1.4411
11514TIP3   OH255956   3.100   5.824   0.372  0.8281 -0.0095 -0.0090
11514TIP3    H155957   3.068   5.892   0.312  0.4754 -0.1701 -0.0031
11514TIP3    H255958   3.180   5.861   0.409  1.1775 -0.0109 -0.7575
11515TIP3   OH255959   5.513   2.400  14.259 -0.7824  0.4778 -0.5281
11515TIP3    H155960   5.554   2.486  14.250  1.9148 -0.2280  2.9001
11515TIP3    H255961   5.452   2.409  14.331  1.2743 -0.8730  1.5174
11516TIP3   OH255962   6.715   1.569  14.572 -0.3409 -0.2838  0.3869
11516TIP3    H155963   6.626   1.554  14.542 -0.9172 -2.0012  2.6728
11516TIP3    H255964   6.745   1.484  14.602  0.4975  0.9964  3.5638
11517TIP3   OH255965   6.569   1.491   3.428 -0.1265 -0.2664 -0.6192
11517TIP3    H155966   6.656   1.452   3.437 -0.9042 -1.6502  1.6337
11517TIP3    H255967   6.525   1.437   3.363 -0.0941 -1.0918  0.0325
11518TIP3   OH255968   0.380   2.480  12.197 -0.4132 -0.1663  0.3156
11518TIP3    H155969   0.413   2.394  12.224 -0.6827 -0.7369 -1.0992
11518TIP3    H255970   0.430   2.500  12.118 -1.4160  0.2798 -0.2144
11519TIP3   OH255971   6.237   3.050   4.698 -0.2697  0.2826 -0.0148
11519TIP3    H155972   6.252   3.135   4.739  0.2880 -0.1335  0.6806
11519TIP3    H255973   6.187   3.001   4.764  1.7662 -0.8559  0.7826
11520TIP3   OH255974   3.629   1.342   3.221  0.0558  0.3238 -0.4947
11520TIP3    H155975   3.645   1.324   3.313 -0.8980  2.6571  0.1891
11520TIP3    H255976   3.705   1.306   3.175  1.5674  0.9530  1.4135
11521TIP3   OH255977   3.604   0.834   3.969 -0.4904 -0.4011 -0.5586
11521TIP3    H155978   3.563   0.781   4.038  0.5491 -1.1055 -0.4585
11521TIP3    H255979   3.531   0.879   3.928 -1.0984  0.5156  1.3840
11522TIP3   OH255980   2.060   6.493   2.418  0.0708 -0.2226  0.1520
11522TIP3    H155981   2.102   6.460   2.498 -0.0946  0.0773  0.3652
11522TIP3    H255982   2.062   6.419   2.358 -2.4461 -1.4326  1.4038
11523TIP3   OH255983   4.406   0.019  16.235 -0.3310  0.1095  0.0901
11523TIP3    H155984   4.313  -0.001  16.248 -0.4326 -0.7708 -1.6139
11523TIP3    H255985   4.440  -0.056  16.186  1.4835  0.0629  1.3204
11524TIP3   OH255986   0.730   5.006   2.449 -0.0190  0.3613 -0.8815
11524TIP3    H155987   0.800   4.967   2.395  0.7488 -0.7309  0.8057
11524TIP3    H255988   0.751   4.978   2.538 -0.9638  2.5131  0.0731
11525TIP3   OH255989   4.568   5.672  11.885 -0.4011 -0.3711 -0.3993
11525TIP3    H155990   4.567   5.580  11.913  2.3011 -0.9817 -1.8967
11525TIP3    H255991   4.565   5.722  11.966  1.7599 -1.9250  0.7389
11526TIP3   OH255992   6.247   3.344  12.117 -0.4144  0.2270  0.1189
11526TIP3    H155993   6.318   3.290  12.083 -0.3567 -1.5488  2.7419
11526TIP3    H255994   6.279   3.375  12.202 -1.6675  1.8512  0.0481
11527TIP3   OH255995   4.854   0.210   3.931  0.4542  0.2524 -0.5111
11527TIP3    H155996   4.943   0.183   3.955  0.8187  0.5281 -1.4946
11527TIP3    H255997   4.817   0.133   3.887  0.3044  0.2265 -0.3376
11528TIP3   OH255998   5.139   2.358   3.174  0.1010  0.3642 -0.6254
11528TIP3    H155999   5.157   2.406   3.093 -0.3777  0.3551 -0.7424
11528TIP3    H256000   5.221   2.314   3.195 -0.2157 -0.9532 -1.9881
11529TIP3   OH256001   3.524   6.123   0.138 -0.2614 -0.3330 -0.7915
11529TIP3    H156002   3.595   6.177   0.104 -1.1826  0.5804 -1.2929
11529TIP3    H256003   3.546   6.034   0.109  0.3387  0.0334 -1.4848
11530TIP3   OH256004   2.832   3.178   5.850  0.1470  0.0768 -1.0002
11530TIP3    H156005   2.802   3.088   5.856 -0.4267  0.3391  0.5402
11530TIP3    H256006   2.759   3.225   5.809  0.2288 -0.0524 -1.2977
11531TIP3   OH256007   5.381   2.895   6.114  0.3567  0.4346 -0.4757
11531TIP3    H156008   5.472   2.895   6.141  0.4096 -0.7543 -0.5754
11531TIP3    H256009   5.343   2.972   6.156  1.1909  0.4409  0.2985
11532TIP3   OH256010   4.375   1.566   0.365 -0.5236 -0.0798  0.1148
11532TIP3    H156011   4.400   1.658   0.373 -0.4571 -0.1357  0.5602
11532TIP3    H256012   4.455   1.518   0.387 -0.4699 -0.2441 -0.4252
11533TIP3   OH256013   3.662   2.586  12.932  0.1976 -0.0944  0.2710
11533TIP3    H156014   3.638   2.654  12.995  0.9267  0.8319 -0.4136
11533TIP3    H256015   3.698   2.515  12.985  0.5251  0.5448  0.9179
11534TIP3   OH256016   2.003   3.810  16.937  0.0281  0.8328 -0.3355
11534TIP3    H156017   2.058   3.751  16.885  0.9083  1.0767  0.3159
11534TIP3    H256018   1.932   3.834  16.877  0.8794  0.8976 -1.3551
11535TIP3   OH256019   3.506   3.097   6.100 -0.0166  0.2839  0.2859
11535TIP3    H156020   3.476   3.088   6.191 -0.7650 -1.8963 -0.1184
11535TIP3    H256021   3.601   3.104   6.106 -0.0829  0.5152  1.2463
11536TIP3   OH256022   3.063   0.321  11.924  0.1618  0.1497  0.3766
11536TIP3    H156023   3.159   0.315  11.925  0.1462 -1.5072  3.3997
11536TIP3    H256024   3.043   0.401  11.972 -0.0147  0.5211 -0.2951
11537TIP3   OH256025   1.362   1.275  11.314 -0.1169  0.6817  0.2259
11537TIP3    H156026   1.277   1.281  11.359 -0.4032  2.5680 -0.4597
11537TIP3    H256027   1.426   1.303  11.380 -0.3542  1.8343 -0.0027
11538TIP3   OH256028   3.241   3.767   4.195 -0.0504 -0.5195 -0.4803
11538TIP3    H156029   3.154   3.762   4.156 -0.8768  2.1747  0.7517
11538TIP3    H256030   3.254   3.682   4.237 -3.8105  0.1418  2.6041
11539TIP3   OH256031   1.776   5.144  17.250 -0.2357  0.3490  0.0397
11539TIP3    H156032   1.714   5.079  17.282  0.9640 -1.0349 -0.3516
11539TIP3    H256033   1.832   5.096  17.190  1.1423  1.5742  0.2887
11540TIP3   OH256034   2.213   4.753  13.472  0.0431  0.2837 -0.4724
11540TIP3    H156035   2.254   4.668  13.456 -0.5704 -0.1102 -0.0090
11540TIP3    H256036   2.156   4.738  13.548  1.1082  1.4920  0.6226
11541TIP3   OH256037   2.446   6.543   4.371  0.6330  0.7220 -0.1957
11541TIP3    H156038   2.391   6.568   4.444  0.8547 -2.0549  1.0350
11541TIP3    H256039   2.387   6.501   4.309  1.2408 -3.3414  1.6407
11542TIP3   OH256040   5.928   5.253  16.649  0.3511  0.3101 -0.3358
11542TIP3    H156041   5.983   5.297  16.714 -0.8836 -0.5918  1.4241
11542TIP3    H256042   5.970   5.270  16.565  1.9822  1.5953  0.6936
11543TIP3   OH256043   0.508   4.043  15.443 -0.1296 -0.0466  0.5385
11543TIP3    H156044   0.525   3.968  15.499  1.8776 -0.5478 -0.6337
11543TIP3    H256045   0.440   4.092  15.489 -1.2590 -2.3655  1.5117
11544TIP3   OH256046   4.800   6.666   2.502 -0.2356  0.1329 -0.6400
11544TIP3    H156047   4.852   6.740   2.531  2.3889 -1.1722 -1.6782
11544TIP3    H256048   4.755   6.635   2.581 -0.1627  1.8385  0.1049
11545TIP3   OH256049   4.004   2.801   6.410  0.3355 -0.5747 -0.0567
11545TIP3    H156050   4.052   2.846   6.341  0.6837 -2.3624 -1.0373
11545TIP3    H256051   4.072   2.770   6.470  0.2694 -1.3799 -0.3845
11546TIP3   OH256052   2.821   0.431   0.120  0.2641 -0.3728  0.4276
11546TIP3    H156053   2.880   0.364   0.086  1.7010  0.7179  0.6317
11546TIP3    H256054   2.777   0.467   0.043 -1.1800 -2.0833  0.3944
11547TIP3   OH256055   6.472   5.928   5.042  0.0811 -0.4152  0.5092
11547TIP3    H156056   6.506   6.010   5.077  0.8372 -0.6564  0.3540
11547TIP3    H256057   6.438   5.881   5.118 -1.6884  0.6372  0.4303
11548TIP3   OH256058   5.741   3.338  12.740 -0.4168 -0.2876 -0.2653
11548TIP3    H156059   5.712   3.336  12.832  0.9016  2.5814  0.3211
11548TIP3    H256060   5.681   3.399  12.698  0.6676  0.5712 -0.6075
11549TIP3   OH256061   4.104   6.111   4.029 -0.1126 -0.2401  0.6042
11549TIP3    H156062   4.040   6.151   4.089  0.5957 -0.3354  1.4425
11549TIP3    H256063   4.090   6.017   4.039  0.1126 -0.2593  0.7391
11550TIP3   OH256064   1.318   2.985   1.940 -0.4936  0.0128  0.0088
11550TIP3    H156065   1.397   2.942   1.973 -0.3555  0.7399  0.6720
11550TIP3    H256066   1.266   3.002   2.018 -1.4973 -0.8152 -0.4673
11551TIP3   OH256067   4.937   3.972   6.257  0.1408  0.0556 -0.4766
11551TIP3    H156068   5.019   3.937   6.291  0.8558  1.3145 -0.8558
11551TIP3    H256069   4.956   4.063   6.237 -2.1340  1.2752  2.1879
11552TIP3   OH256070   6.261   5.040   1.266  0.4957 -0.1330  0.3887
11552TIP3    H156071   6.294   4.951   1.255  1.4824  0.3730 -1.2447
11552TIP3    H256072   6.340   5.094   1.272 -0.0788  0.6762  0.8845
11553TIP3   OH256073   3.666   6.107   0.594 -0.0269  0.0943 -0.2432
11553TIP3    H156074   3.606   6.138   0.526 -0.2480  1.2771  0.4632
11553TIP3    H256075   3.647   6.163   0.670  1.2512 -0.2042  0.3166
11554TIP3   OH256076   2.009   5.582   5.475 -0.8644  0.1485 -0.1965
11554TIP3    H156077   1.957   5.653   5.513 -0.5182 -0.4479  1.4712
11554TIP3    H256078   2.100   5.606   5.495 -0.6012  0.2306 -1.4165
11555TIP3   OH256079   0.778   5.073   0.583 -0.3067 -0.1743  0.4441
11555TIP3    H156080   0.690   5.090   0.616 -0.7019 -1.2441 -0.0103
11555TIP3    H256081   0.782   4.978   0.572  0.4689 -0.0284 -0.7317
11556TIP3   OH256082   0.840   2.856  14.759 -0.0509 -0.7853  0.7132
11556TIP3    H156083   0.831   2.764  14.785 -0.8175 -1.1425 -0.6705
11556TIP3    H256084   0.791   2.905  14.825  0.8963 -1.2888  1.8196
11557TIP3   OH256085   3.428   6.159  11.051  0.1230 -0.2472  0.9709
11557TIP3    H156086   3.414   6.197  10.965  0.7742  2.2954  1.9108
11557TIP3    H256087   3.352   6.103  11.066 -0.2136 -0.3701 -1.0259
11558TIP3   OH256088   5.576   5.999  16.832 -0.2960  0.0808 -0.0342
11558TIP3    H156089   5.645   6.013  16.767 -2.5716  1.0302 -2.4511
11558TIP3    H256090   5.579   6.078  16.887  1.3366 -0.5050  0.7947
11559TIP3   OH256091   3.577   2.438  16.462  0.3375 -0.5202 -0.4312
11559TIP3    H156092   3.600   2.420  16.371 -0.5096 -1.0296 -0.5543
11559TIP3    H256093   3.544   2.355  16.496 -0.4518 -0.0401 -0.0079
11560TIP3   OH256094   5.665   6.223  15.215 -0.2808 -0.4980  0.0904
11560TIP3    H156095   5.624   6.244  15.300 -0.7415  0.1840 -0.2910
11560TIP3    H256096   5.606   6.262  15.150  0.2161 -0.7773 -0.5338
11561TIP3   OH256097   0.530   2.457  17.349  0.0352 -0.4953  0.4490
11561TIP3    H156098   0.483   2.532  17.312  2.4500  1.3756  0.8892
11561TIP3    H256099   0.517   2.387  17.286 -0.6672  0.9045 -1.0334
11562TIP3   OH256100   4.946   1.136  17.583  0.3064 -1.0036  0.5067
11562TIP3    H156101   4.900   1.073  17.528  0.6613 -1.0757  0.2883
11562TIP3    H256102   4.886   1.211  17.590  0.3324 -0.9198 -0.1270
11563TIP3   OH256103   1.120   3.478   1.812  1.0857  0.4681 -0.1722
11563TIP3    H156104   1.192   3.512   1.865  1.8986 -0.9333 -0.3482
11563TIP3    H256105   1.160   3.456   1.728  0.1971  0.8170 -0.7051
11564TIP3   OH256106   2.140   1.656   3.594  0.0505  0.1098 -0.4604
11564TIP3    H156107   2.081   1.604   3.541 -0.1213 -0.2793  0.1008
11564TIP3    H256108   2.083   1.696   3.661  0.3968 -0.2062  0.0342
11565TIP3   OH256109   5.149   5.017   5.006 -0.5987  0.6353 -0.2287
11565TIP3    H156110   5.123   5.021   5.098 -1.4780 -1.3026 -0.3324
11565TIP3    H256111   5.085   5.073   4.961 -1.3093  0.1535  0.1542
11566TIP3   OH256112   6.556   1.252  11.435  0.5528  0.4086 -0.7132
11566TIP3    H156113   6.488   1.279  11.497  0.7115 -0.1425 -0.2889
11566TIP3    H256114   6.518   1.268  11.349  0.8186  2.4279 -0.4966
11567TIP3   OH256115   1.243   3.707   2.783 -0.2655 -0.0105 -0.3394
11567TIP3    H156116   1.225   3.614   2.790 -1.0989  0.2037  0.4813
11567TIP3    H256117   1.242   3.724   2.688  0.9119 -1.0024 -0.5609
11568TIP3   OH256118   5.617   4.754  11.246  0.4544  0.7065  0.1088
11568TIP3    H156119   5.658   4.839  11.228  1.2629 -0.0981 -2.2385
11568TIP3    H256120   5.691   4.693  11.253 -0.1751 -0.4537 -2.3289
11569TIP3   OH256121   1.382   6.166   4.311 -0.4399 -0.4242  0.0742
11569TIP3    H156122   1.361   6.102   4.378  0.1678 -0.1961  0.4851
11569TIP3    H256123   1.337   6.246   4.339  0.8205  0.0191  0.8688
11570TIP3   OH256124   3.669   5.082  17.106 -0.5150  0.5012  0.0983
11570TIP3    H156125   3.579   5.051  17.113 -0.0609 -0.5890  1.5233
11570TIP3    H256126   3.700   5.090  17.196  1.0318  0.1409 -0.3564
11571TIP3   OH256127   6.107   0.038   3.066  0.0591  0.5287 -0.1300
11571TIP3    H156128   6.136   0.032   2.975 -0.7272 -0.5898 -0.3280
11571TIP3    H256129   6.015   0.064   3.060 -0.4537 -1.0570  0.2459
11572TIP3   OH256130   3.716   3.341   1.715  0.1974 -0.2251 -0.3059
11572TIP3    H156131   3.790   3.382   1.760  0.9868 -1.1758 -0.7025
11572TIP3    H256132   3.755   3.268   1.667 -1.3537 -2.3785  1.5130
11573TIP3   OH256133   4.050   3.248   3.795 -0.0540 -0.4990  0.3278
11573TIP3    H156134   4.135   3.256   3.750  1.0763 -1.0407  2.2580
11573TIP3    H256135   3.993   3.308   3.747  1.1674 -0.7319 -1.5554
11574TIP3   OH256136   1.972   0.201   1.174  0.1586  0.1945 -0.0341
11574TIP3    H156137   1.980   0.164   1.086 -1.7474  1.4375 -0.7848
11574TIP3    H256138   2.001   0.130   1.232  2.3555 -0.3350 -1.6467
11575TIP3   OH256139   4.608   0.742   2.605 -0.1094  0.1866 -0.1086
11575TIP3    H156140   4.611   0.682   2.679 -0.9455 -0.8681 -0.8872
11575TIP3    H256141   4.638   0.826   2.640 -2.1038  0.1724  1.8712
11576TIP3   OH256142   4.021   1.925   1.283  0.5764  0.5429  0.4002
11576TIP3    H156143   3.971   1.939   1.202 -0.9928 -0.0820  1.1997
11576TIP3    H256144   4.083   1.855   1.261 -0.9195 -0.7650  0.1170
11577TIP3   OH256145   0.841   2.598  13.250  0.4580  0.0076 -0.2223
11577TIP3    H156146   0.869   2.666  13.311 -1.7469  0.4331  0.3887
11577TIP3    H256147   0.874   2.516  13.288  1.0936  0.4929  0.2952
11578TIP3   OH256148   6.206   5.767  14.129  0.5245  0.3782 -1.1395
11578TIP3    H156149   6.173   5.817  14.203  1.1786 -0.5192 -0.2080
11578TIP3    H256150   6.264   5.701  14.168  2.4228  1.0968 -2.5780
11579TIP3   OH256151   4.371   4.052   0.377  0.2329 -0.0748  0.1618
11579TIP3    H156152   4.401   4.143   0.373 -0.2361  0.1200  0.8926
11579TIP3    H256153   4.326   4.038   0.294  1.4282 -0.0560 -0.5180
11580TIP3   OH256154   1.453   2.324  16.244  0.4769 -0.0190 -0.0859
11580TIP3    H156155   1.435   2.254  16.181 -1.7428  0.7039 -0.3209
11580TIP3    H256156   1.405   2.299  16.322 -0.9561  1.5457 -0.4076
11581TIP3   OH256157   6.654   4.207   1.270  0.1723  0.0019  0.3604
11581TIP3    H156158   6.696   4.277   1.221 -1.5199  0.0590 -1.1010
11581TIP3    H256159   6.597   4.251   1.332 -0.2208 -0.0562  0.0484
11582TIP3   OH256160   1.547   4.402   5.753  0.1305 -0.0598  0.7539
11582TIP3    H156161   1.497   4.336   5.802 -0.9272  0.4376  0.3758
11582TIP3    H256162   1.529   4.485   5.799  1.4769 -0.0050  1.2484
11583TIP3   OH256163   1.376   5.015  14.272  0.1504  0.5021 -0.0349
11583TIP3    H156164   1.346   4.995  14.361 -0.3761 -0.9813 -0.5231
11583TIP3    H256165   1.368   5.110  14.265 -1.4168  0.4723  0.9442
11584TIP3   OH256166   1.860   5.826   4.617 -0.2969 -0.1182 -0.0221
11584TIP3    H156167   1.857   5.897   4.681 -0.7783 -0.1837  0.0295
11584TIP3    H256168   1.939   5.777   4.639 -1.2917 -1.0984  1.5539
11585TIP3   OH256169   2.107   5.767   3.379 -0.7361  0.1483  0.4779
11585TIP3    H156170   2.032   5.824   3.394  0.1365  1.7625 -0.9334
11585TIP3    H256171   2.170   5.792   3.447 -0.7157  0.1860  0.4450
11586TIP3   OH256172   2.870   1.533  17.367 -0.0176  0.4039  0.0293
11586TIP3    H156173   2.823   1.497  17.443 -1.7042  1.1662 -0.5977
11586TIP3    H256174   2.896   1.457  17.317 -0.6539 -0.0520  0.3715
11587TIP3   OH256175   5.406   1.881  12.315 -0.4927  0.8119 -0.0556
11587TIP3    H156176   5.388   1.954  12.256 -0.7771  0.3951 -0.4917
11587TIP3    H256177   5.323   1.835  12.323  0.3630 -1.4072 -2.4702
11588TIP3   OH256178   1.629   6.329   2.872  0.3177  0.0486 -0.4403
11588TIP3    H156179   1.599   6.407   2.824  1.5865  0.3114 -0.8340
11588TIP3    H256180   1.604   6.256   2.815  2.1234  0.3770 -1.7234
11589TIP3   OH256181   1.952   2.170   4.131 -0.3732  0.4167 -0.2957
11589TIP3    H156182   1.952   2.192   4.038 -2.3026  1.4980 -0.1032
11589TIP3    H256183   1.861   2.144   4.149  0.4619 -2.0538  0.8346
11590TIP3   OH256184   2.513   0.394  15.435 -0.6073  0.2441  0.3059
11590TIP3    H156185   2.577   0.464  15.444 -0.0936 -0.3696  1.7785
11590TIP3    H256186   2.495   0.366  15.525 -3.2535  0.6452 -0.0221
11591TIP3   OH256187   2.361   0.281   0.995 -0.0683 -0.1993  0.0462
11591TIP3    H156188   2.397   0.232   1.069 -0.1623  0.4237  0.5135
11591TIP3    H256189   2.324   0.213   0.938  0.0161 -0.6918  0.5580
11592TIP3   OH256190   2.794   2.278   2.342 -0.1466  0.5061  0.0585
11592TIP3    H156191   2.742   2.358   2.346 -0.9289 -0.0343  1.1246
11592TIP3    H256192   2.791   2.243   2.431  1.9069  0.3515  0.1127
11593TIP3   OH256193   1.500   1.801   5.355 -0.1301 -0.0684  0.5588
11593TIP3    H156194   1.478   1.803   5.448  0.8413 -0.9579  0.8316
11593TIP3    H256195   1.571   1.736   5.349 -0.8175 -0.7165 -0.9333
11594TIP3   OH256196   1.803   3.106  14.313  1.2462  0.2334 -0.2505
11594TIP3    H156197   1.803   3.053  14.233  0.1420  0.9984 -0.7826
11594TIP3    H256198   1.775   3.193  14.284 -0.6398  0.1613  1.1696
11595TIP3   OH256199   4.385   4.262   3.376 -0.2175 -0.7039 -0.3688
11595TIP3    H156200   4.367   4.169   3.383  1.3121 -1.0286 -0.3876
11595TIP3    H256201   4.476   4.271   3.403 -0.1088  0.6793 -1.0866
11596TIP3   OH256202   3.931   4.162   3.460  0.1023 -0.1972  0.4046
11596TIP3    H156203   3.847   4.129   3.430  0.7819 -0.7768 -0.9326
11596TIP3    H256204   3.949   4.112   3.540  0.5611 -2.2849 -0.9340
11597TIP3   OH256205   4.844   1.447  16.569 -0.2112  0.2248  0.3432
11597TIP3    H156206   4.887   1.514  16.515  0.1437 -1.1174 -1.0843
11597TIP3    H256207   4.778   1.496  16.619 -0.8573  1.4594 -1.6206
11598TIP3   OH256208   6.705   0.579   3.371 -0.2800  0.3371 -0.5136
11598TIP3    H156209   6.678   0.595   3.280 -1.5777 -0.1152 -0.2409
11598TIP3    H256210   6.686   0.487   3.385 -1.2634  0.6754  0.5674
11599TIP3   OH256211   4.389   1.565  15.358  1.1329  0.3772 -0.2286
11599TIP3    H156212   4.477   1.530  15.340  1.7335  2.0296 -0.6408
11599TIP3    H256213   4.377   1.635  15.294 -1.6675 -1.5993 -2.1204
11600TIP3   OH256214   0.373   2.807   2.012  0.1675 -0.0819 -0.0538
11600TIP3    H156215   0.343   2.871   1.948  1.2211  0.1106 -0.3756
11600TIP3    H256216   0.391   2.858   2.091  0.4905 -0.0482 -0.1445
11601TIP3   OH256217   4.755   1.372  17.407  0.0330 -0.1512 -0.0323
11601TIP3    H156218   4.739   1.352  17.314  0.9806  0.0568 -0.2462
11601TIP3    H256219   4.671   1.355  17.449 -0.2414 -0.8453 -0.8318
11602TIP3   OH256220   0.075   2.266   1.275  0.5199 -0.5078 -0.1500
11602TIP3    H156221   0.124   2.215   1.339  1.7569  0.5613 -0.2079
11602TIP3    H256222  -0.005   2.292   1.321  2.1794  1.7801  1.6599
11603TIP3   OH256223   1.166   6.290  11.518  0.1259  0.0896 -0.1983
11603TIP3    H156224   1.177   6.374  11.473 -2.4769  0.6412  0.0479
11603TIP3    H256225   1.125   6.233  11.453  0.9660 -0.7085 -0.0530
11604TIP3   OH256226   5.686   4.430   0.278  0.0621  0.3003 -0.3207
11604TIP3    H156227   5.700   4.419   0.372 -0.1098 -0.0487 -0.3347
11604TIP3    H256228   5.774   4.436   0.241  0.2017 -1.3799 -0.3482
11605TIP3   OH256229   5.986   2.787  14.890 -0.0673 -0.0694 -0.3848
11605TIP3    H156230   6.076   2.757  14.897 -0.1692 -1.0739 -2.5872
11605TIP3    H256231   5.979   2.822  14.801 -1.9713 -0.5184 -0.4536
11606TIP3   OH256232   4.303   2.772   1.776 -0.2206  0.0096 -0.2490
11606TIP3    H156233   4.390   2.742   1.749 -0.2079 -0.8871  0.7001
11606TIP3    H256234   4.257   2.788   1.694  1.2487  1.8347 -0.7829
11607TIP3   OH256235   2.177   2.195  14.105  0.4691 -0.5762  0.8950
11607TIP3    H156236   2.198   2.177  14.013  1.9477  0.7667  0.9207
11607TIP3    H256237   2.082   2.186  14.110  0.5269 -2.3634 -0.3588
11608TIP3   OH256238   4.581   6.408   4.603  0.0441 -0.1986 -0.2538
11608TIP3    H156239   4.660   6.369   4.638 -0.0569 -0.7548 -0.6346
11608TIP3    H256240   4.583   6.499   4.634  0.7240 -0.2645 -0.0942
11609TIP3   OH256241   2.938   0.092  13.045 -0.0206  0.0779 -0.4341
11609TIP3    H156242   2.932   0.124  12.955  0.3978  0.6745 -0.2542
11609TIP3    H256243   2.947  -0.003  13.036 -2.0440 -0.1015 -0.9503
11610TIP3   OH256244   3.641   5.761  10.865  0.1544 -0.8261 -0.7197
11610TIP3    H156245   3.612   5.809  10.788 -0.1048  0.7162  0.2995
11610TIP3    H256246   3.644   5.669  10.837 -1.9459 -0.5658 -1.9744
11611TIP3   OH256247   4.155   1.355  12.855 -0.3499 -0.1544  0.2539
11611TIP3    H156248   4.161   1.447  12.831  1.3219 -0.4435 -0.5841
11611TIP3    H256249   4.228   1.341  12.916 -1.0268 -0.7714  0.9544
11612TIP3   OH256250   0.409   1.771   0.609 -0.6325 -0.1420  0.2671
11612TIP3    H156251   0.443   1.718   0.682 -0.6608  0.6290  0.8532
11612TIP3    H256252   0.318   1.744   0.600 -1.0897  0.8716  1.5782
11613TIP3   OH256253   2.028   3.257   0.724  0.2933  0.2687 -0.0997
11613TIP3    H156254   2.078   3.330   0.761 -0.5484  0.2208  1.1817
11613TIP3    H256255   2.072   3.179   0.757 -0.2496  0.2218  0.5189
11614TIP3   OH256256   0.293   0.633  12.769 -0.6521 -0.6028 -0.2285
11614TIP3    H156257   0.302   0.632  12.865 -0.0535  0.2320 -0.2741
11614TIP3    H256258   0.250   0.715  12.750 -0.1220 -0.4397 -0.7325
11615TIP3   OH256259   2.647   2.442   3.339  0.6315 -0.4439 -0.1925
11615TIP3    H156260   2.706   2.380   3.296  1.0392  1.1205 -2.0207
11615TIP3    H256261   2.691   2.527   3.331 -1.0858  0.5006 -0.0852
11616TIP3   OH256262   2.192   1.684  12.523  0.5208 -0.4198 -0.0655
11616TIP3    H156263   2.166   1.599  12.488  1.5322 -0.0581 -1.7843
11616TIP3    H256264   2.111   1.735  12.526 -0.2789 -1.6760  1.8572
11617TIP3   OH256265   4.981   5.456   6.022  0.0299 -0.2642 -0.5200
11617TIP3    H156266   4.950   5.533   6.069 -0.5871 -1.1632  0.5771
11617TIP3    H256267   5.069   5.481   5.991 -0.1583  0.8681 -0.1869
11618TIP3   OH256268   4.296   4.486   3.554 -0.4007 -0.5112 -0.3574
11618TIP3    H156269   4.352   4.557   3.521 -4.3426  1.7628 -2.9105
11618TIP3    H256270   4.285   4.428   3.478 -1.0295 -1.2632  0.2987
11619TIP3   OH256271   4.671   0.289   2.831 -0.0781 -0.0011 -0.5583
11619TIP3    H156272   4.701   0.214   2.882  0.3693 -0.0139 -0.8319
11619TIP3    H256273   4.576   0.283   2.831 -0.0274 -0.9204 -1.0975
11620TIP3   OH256274   6.044   5.929  11.222  0.2162  0.3257  0.3485
11620TIP3    H156275   6.073   5.891  11.305 -0.7087  1.1438  1.0702
11620TIP3    H256276   6.005   6.013  11.246 -0.2285  0.4967 -0.8919
11621TIP3   OH256277   0.942   0.388   3.134  0.2955  0.2092  0.7038
11621TIP3    H156278   0.870   0.395   3.071  1.3873  1.9157 -0.4280
11621TIP3    H256279   1.015   0.353   3.083  0.2219 -1.9112  1.9382
11622TIP3   OH256280   1.589   1.771   3.809  0.4921  0.2924 -0.7943
11622TIP3    H156281   1.576   1.676   3.803  2.0480  0.0997 -1.6358
11622TIP3    H256282   1.618   1.785   3.899  0.3159 -0.0280 -0.6836
11623TIP3   OH256283   0.330   1.404   4.994 -0.4454  0.2604 -0.2909
11623TIP3    H156284   0.357   1.396   5.086  1.3808 -0.7718 -0.8552
11623TIP3    H256285   0.286   1.489   4.989 -0.6438  0.3077  1.5350
11624TIP3   OH256286   4.809   0.630   6.843 -0.4802  0.5490 -0.1539
11624TIP3    H156287   4.839   0.589   6.762  0.1922 -2.1912  1.3695
11624TIP3    H256288   4.870   0.703   6.857  0.2173  0.2345 -1.3968
11625TIP3   OH256289   6.172   1.655   6.196 -0.5312  0.1326 -0.2561
11625TIP3    H156290   6.174   1.618   6.108  0.8393  0.9030 -0.5859
11625TIP3    H256291   6.240   1.607   6.244 -1.1312 -0.1434  0.3333
11626TIP3   OH256292   5.298   0.555  13.176 -0.3374 -0.1196 -0.3791
11626TIP3    H156293   5.343   0.631  13.212  0.5455 -0.7571 -0.1122
11626TIP3    H256294   5.225   0.540  13.236  0.9787 -1.0204  1.0560
11627TIP3   OH256295   3.282   2.585   5.258 -0.2866 -0.1564  0.9423
11627TIP3    H156296   3.227   2.570   5.335 -0.7697 -0.7063  0.4966
11627TIP3    H256297   3.260   2.514   5.198 -0.0509  0.3731  0.2158
11628TIP3   OH256298   2.420   3.607   2.990  0.0197 -0.2336  0.0163
11628TIP3    H156299   2.504   3.639   2.959 -0.8773  1.8132 -0.4940
11628TIP3    H256300   2.425   3.612   3.085  1.4423 -2.9134  0.1733
11629TIP3   OH256301   1.473   0.163   5.010 -0.0037 -0.7792 -0.8766
11629TIP3    H156302   1.564   0.134   5.009  0.3657  0.3372 -1.7789
11629TIP3    H256303   1.476   0.254   4.980 -1.2276 -0.1273  0.7839
11630TIP3   OH256304   1.533   1.087   3.222 -0.0750  0.2498 -0.7468
11630TIP3    H156305   1.515   1.070   3.130 -2.1036  0.5202 -0.4464
11630TIP3    H256306   1.503   1.177   3.237 -3.3206 -0.9078  0.9025
11631TIP3   OH256307   4.050   2.702   0.060 -0.3991  0.1265 -0.4056
11631TIP3    H156308   4.124   2.696  -0.000  0.1730 -0.6664  0.3555
11631TIP3    H256309   4.087   2.737   0.140 -0.5232 -1.6254  0.4610
11632TIP3   OH256310   5.470   5.786  14.890  0.0667 -0.0695  0.1049
11632TIP3    H156311   5.528   5.711  14.906  0.6261  0.4301  0.4291
11632TIP3    H256312   5.529   5.859  14.871 -0.4349  0.5412  0.8480
11633TIP3   OH256313   3.695   4.034  17.008 -0.0059  0.3114 -0.0286
11633TIP3    H156314   3.728   4.091  16.939 -1.6011  1.7096  0.3080
11633TIP3    H256315   3.758   4.042  17.079  1.8023 -1.3496 -1.3480
11634TIP3   OH256316   1.415   4.179  17.597  0.2508  0.5409 -0.0866
11634TIP3    H156317   1.323   4.195  17.579  0.0623 -0.1007  0.3023
11634TIP3    H256318   1.429   4.087  17.576  0.7349  0.5593  0.1302
11635TIP3   OH256319   1.632   3.428   5.808 -0.2063 -0.0809  0.2293
11635TIP3    H156320   1.692   3.451   5.878  0.0228 -1.3352  0.4597
11635TIP3    H256321   1.596   3.343   5.833 -0.5765 -0.2731 -0.8801
11636TIP3   OH256322   6.449   1.834   3.154 -0.5397 -0.9349  0.0658
11636TIP3    H156323   6.411   1.756   3.195 -1.1513 -0.7564 -0.1423
11636TIP3    H256324   6.461   1.809   3.062  2.4420 -1.9298  0.6300
11637TIP3   OH256325   1.961   5.396  14.269 -0.4544  0.0063  0.4693
11637TIP3    H156326   2.013   5.320  14.242  0.1040 -0.5033  2.7616
11637TIP3    H256327   1.877   5.358  14.297 -0.5430  0.3615  0.6827
11638TIP3   OH256328   2.896   1.015  12.487 -0.0170 -0.2992  0.0475
11638TIP3    H156329   2.837   1.062  12.428 -0.0960  3.3008  2.6195
11638TIP3    H256330   2.839   0.977  12.553  0.3028  0.2556  0.6583
11639TIP3   OH256331   2.684   3.133  11.283  0.5068  0.5185  0.0887
11639TIP3    H156332   2.634   3.061  11.244  1.0963  1.3493 -2.3969
11639TIP3    H256333   2.628   3.210  11.271  0.9715  0.8939  0.3343
11640TIP3   OH256334   1.335   5.552   4.498 -0.2047 -0.8983 -0.0401
11640TIP3    H156335   1.295   5.609   4.432  1.1888 -0.5730 -0.6312
11640TIP3    H256336   1.285   5.570   4.578 -0.5878  0.2376 -0.5181
11641TIP3   OH256337   0.681   0.316   1.976 -0.3255 -0.0663 -0.3525
11641TIP3    H156338   0.743   0.360   2.034 -1.3657  0.3617  0.4749
11641TIP3    H256339   0.619   0.385   1.951 -1.4449 -0.8392  0.2257
11642TIP3   OH256340   4.793   1.971   3.681  0.1438 -0.5757 -0.3121
11642TIP3    H156341   4.726   2.011   3.736  1.5661  2.4149 -0.5350
11642TIP3    H256342   4.814   1.889   3.724 -1.8273 -0.3989  1.1387
11643TIP3   OH256343   6.269   1.773   3.712  0.0843 -0.0304  0.7190
11643TIP3    H156344   6.184   1.816   3.703 -0.0193 -0.3036  0.3422
11643TIP3    H256345   6.331   1.845   3.724  0.1313  0.3744 -1.4391
11644TIP3   OH256346   3.734   1.214   3.992  0.0744 -0.1254 -0.0442
11644TIP3    H156347   3.796   1.230   3.922  0.1463 -1.4224 -0.3006
11644TIP3    H256348   3.725   1.119   3.996 -0.8212 -0.0305  0.9259
11645TIP3   OH256349   3.547   3.811  15.714  0.8323 -0.0093 -0.6848
11645TIP3    H156350   3.483   3.745  15.741  0.3994  0.1538 -1.2988
11645TIP3    H256351   3.499   3.893  15.715  0.6823 -0.0426 -2.2992
11646TIP3   OH256352   4.516   6.049   5.090 -0.1830 -0.7263  0.3252
11646TIP3    H156353   4.596   6.083   5.130 -0.1333 -1.2659  0.6962
11646TIP3    H256354   4.535   6.047   4.996  0.1354 -0.5835  0.3860
11647TIP3   OH256355   2.603   0.353   3.923  0.0860  0.0944 -0.3975
11647TIP3    H156356   2.605   0.446   3.947  1.1543 -0.6480  2.7795
11647TIP3    H256357   2.695   0.327   3.921 -0.2424 -1.1103 -0.3253
11648TIP3   OH256358   0.470   5.178   4.196 -0.0955 -0.2021  0.2513
11648TIP3    H156359   0.515   5.203   4.277 -1.0174  1.0217  0.4248
11648TIP3    H256360   0.456   5.261   4.150  2.6882 -1.0729 -2.4502
11649TIP3   OH256361   2.502   0.044  16.798  0.2529  0.3751  0.4274
11649TIP3    H156362   2.495  -0.006  16.880 -2.8017  0.7416  0.4872
11649TIP3    H256363   2.505   0.135  16.827  0.3822  0.4645  0.1315
11650TIP3   OH256364   3.175   4.706   0.910 -0.6167  0.1388  0.4525
11650TIP3    H156365   3.154   4.783   0.857  1.4997  1.6441  1.6748
11650TIP3    H256366   3.124   4.717   0.990  0.4790  0.8530  1.0680
11651TIP3   OH256367   6.185   5.555  15.519  0.8232 -0.1523  0.3918
11651TIP3    H156368   6.183   5.467  15.483  0.6060  0.1784 -0.4321
11651TIP3    H256369   6.096   5.571  15.549  0.3679  0.4856 -1.2300
11652TIP3   OH256370   1.177   0.991  14.417  0.0300  0.3894  0.0459
11652TIP3    H156371   1.095   0.946  14.399  1.1628 -1.1718 -1.5899
11652TIP3    H256372   1.162   1.036  14.500 -2.2164 -0.4309  0.1550
11653TIP3   OH256373   0.878   3.361  12.319 -0.1340  0.2010  0.2284
11653TIP3    H156374   0.887   3.324  12.232 -0.3442  0.0554  0.2670
11653TIP3    H256375   0.875   3.285  12.378 -0.2845  0.2864  0.3335
11654TIP3   OH256376   5.449   4.648  13.740  0.5073  0.3264  0.2056
11654TIP3    H156377   5.455   4.743  13.752 -0.9181  0.4837 -0.2122
11654TIP3    H256378   5.541   4.619  13.738  0.9753  1.7504 -0.1686
11655TIP3   OH256379   2.803   4.905  12.930  0.0506  0.0899 -0.1752
11655TIP3    H156380   2.845   4.973  12.983 -0.7656  0.3725  0.1398
11655TIP3    H256381   2.873   4.868  12.877  0.6421  0.6969  0.1695
11656TIP3   OH256382   5.525   6.606  13.770  0.5242 -0.0735 -0.1959
11656TIP3    H156383   5.610   6.647  13.752  0.1123  1.4466  1.0676
11656TIP3    H256384   5.462   6.676  13.754 -0.4466 -0.9900 -0.4667
11657TIP3   OH256385   6.438   6.117   0.868  0.0828  0.3201 -0.2974
11657TIP3    H156386   6.488   6.124   0.949 -0.4800 -0.2272  0.1080
11657TIP3    H256387   6.383   6.195   0.866  0.1061  0.3392 -0.1651
11658TIP3   OH256388   2.394   5.832  15.454 -0.4294  0.5093 -0.5495
11658TIP3    H156389   2.337   5.756  15.468  0.1809  0.1249 -0.1139
11658TIP3    H256390   2.353   5.879  15.381 -1.2186  0.1619 -0.3447
11659TIP3   OH256391   3.853   6.247   1.292 -0.4285 -0.1820 -0.3022
11659TIP3    H156392   3.920   6.200   1.343  1.7728  1.2107 -1.7306
11659TIP3    H256393   3.810   6.304   1.355 -0.1890 -1.0141  0.6373
11660TIP3   OH256394   6.007   5.547   4.144  0.0605 -0.5656 -0.1374
11660TIP3    H156395   6.088   5.520   4.187  1.1062  0.8053 -1.1721
11660TIP3    H256396   5.976   5.622   4.195 -1.3736 -1.9353  1.1085
11661TIP3   OH256397   3.168   1.681   1.682 -0.3269  0.3885  0.5756
11661TIP3    H156398   3.106   1.752   1.697  1.0238  1.6087  0.5758
11661TIP3    H256399   3.211   1.704   1.600 -0.5742 -0.9814  0.0322
11662TIP3   OH256400   6.288   3.149   5.306 -0.5483  0.1334  0.2966
11662TIP3    H156401   6.210   3.182   5.351 -0.0327 -1.6855  2.6799
11662TIP3    H256402   6.337   3.102   5.373  1.7003 -0.3472 -1.5691
11663TIP3   OH256403   0.175   5.056   3.616 -0.0292  0.0340 -0.2363
11663TIP3    H156404   0.193   5.084   3.705 -1.4311 -0.6004  0.2738
11663TIP3    H256405   0.226   4.975   3.606  2.1798  1.4160 -0.9368
11664TIP3   OH256406   4.061   3.093   0.898  0.2803  0.1540  0.0536
11664TIP3    H156407   4.056   3.053   0.984  1.0507  0.0529  0.0577
11664TIP3    H256408   3.972   3.125   0.881  0.3338  1.0455  1.2973
11665TIP3   OH256409   0.247   5.519  13.770 -0.2452  0.0802  0.0987
11665TIP3    H156410   0.232   5.569  13.851 -2.0614 -1.0886  0.5375
11665TIP3    H256411   0.342   5.506  13.767  0.2020  2.6785  0.4541
11666TIP3   OH256412   5.998   0.095   2.353 -0.1499 -0.4160 -0.0958
11666TIP3    H156413   6.088   0.123   2.334 -0.8543  1.2423 -1.2482
11666TIP3    H256414   6.001  -0.000   2.344  2.2424 -0.8616  3.4368
11667TIP3   OH256415   4.836   4.051   2.230  0.0243  0.1077  0.2401
11667TIP3    H156416   4.775   3.980   2.250  0.2091 -0.2225 -0.3464
11667TIP3    H256417   4.825   4.113   2.302 -0.2240 -0.4592  0.6975
11668TIP3   OH256418   6.100   4.484  17.526 -0.0923 -0.7383  0.0357
11668TIP3    H156419   6.134   4.508  17.439  0.2828 -0.6758  0.1988
11668TIP3    H256420   6.177   4.454  17.575  0.4191  2.7334  1.5956
11669TIP3   OH256421   5.227   2.572  11.542  0.5264 -0.1408  0.0327
11669TIP3    H156422   5.171   2.649  11.525 -2.7102 -2.2124  0.4506
11669TIP3    H256423   5.268   2.554  11.458  1.0298  1.7507 -0.1833
11670TIP3   OH256424   0.813   1.819  13.951  0.2785 -0.0349  0.0917
11670TIP3    H156425   0.877   1.756  13.985  1.2454  2.3261  3.0938
11670TIP3    H256426   0.779   1.863  14.028 -2.6619  1.0519 -1.6576
11671TIP3   OH256427   6.716   6.544  15.199  0.9392  0.3810 -0.1362
11671TIP3    H156428   6.693   6.460  15.239  0.5016  0.5135 -0.1006
11671TIP3    H256429   6.773   6.586  15.264 -1.1756  1.3538  1.1980
11672TIP3   OH256430   2.475   4.498   0.786  0.2628  0.4255  0.5853
11672TIP3    H156431   2.469   4.405   0.810 -0.6438  0.3240  0.0604
11672TIP3    H256432   2.541   4.501   0.717 -1.0957 -0.1770 -0.8082
11673TIP3   OH256433   1.981   3.424  14.353 -0.6536 -0.1063  0.5877
11673TIP3    H156434   1.921   3.398  14.424  0.3514 -0.0314  1.4882
11673TIP3    H256435   1.987   3.346  14.298 -1.0189 -0.3445  0.8767
11674TIP3   OH256436   5.507   1.671  12.134  0.1726  0.0174 -0.2455
11674TIP3    H156437   5.599   1.649  12.145 -0.4645 -1.9489  1.7961
11674TIP3    H256438   5.486   1.726  12.209 -0.3703  0.3835 -0.6504
11675TIP3   OH256439   0.770   0.801   5.637 -0.1533  0.2086  0.0709
11675TIP3    H156440   0.747   0.855   5.562  1.1251  0.8150  0.0830
11675TIP3    H256441   0.691   0.800   5.691 -1.9360 -2.1708 -2.3162
11676TIP3   OH256442   1.694   3.938  10.793  0.1534 -0.1163 -0.5256
11676TIP3    H156443   1.749   3.927  10.870 -0.2165 -1.0855 -0.3901
11676TIP3    H256444   1.703   3.856  10.745 -0.4538  0.0686 -0.9671
11677TIP3   OH256445   4.070   1.086   4.396 -0.0605 -0.0465  0.1238
11677TIP3    H156446   4.034   1.152   4.456 -1.5178 -0.9694  0.3189
11677TIP3    H256447   4.013   1.090   4.319  1.5348  0.8314 -1.0765
11678TIP3   OH256448   4.735   4.177   5.635  0.1191  0.0079  0.3695
11678TIP3    H156449   4.705   4.228   5.711 -1.3864 -0.4603  0.1253
11678TIP3    H256450   4.755   4.091   5.671  1.5400  0.3861  0.5771
11679TIP3   OH256451   0.828   2.920   2.466 -0.1736  0.5453 -0.1852
11679TIP3    H156452   0.911   2.966   2.457 -0.1110  0.5293  0.2852
11679TIP3    H256453   0.775   2.977   2.522 -1.0785  1.3571 -1.7953
11680TIP3   OH256454   5.431   6.208  15.848 -0.2549 -0.5377 -0.2811
11680TIP3    H156455   5.351   6.249  15.881  0.1866 -1.6025  2.3976
11680TIP3    H256456   5.401   6.138  15.791 -1.4212 -2.0270  2.0061
11681TIP3   OH256457   1.856   4.944   4.951 -0.0656 -0.1308  0.2708
11681TIP3    H156458   1.922   5.005   4.983  0.0845  0.4653 -1.1257
11681TIP3    H256459   1.804   4.922   5.029  0.6375  0.8119  1.0295
11682TIP3   OH256460   1.077   5.266  14.707 -0.6832  0.2588 -0.0255
11682TIP3    H156461   1.106   5.241  14.794  1.9627  0.1777 -0.8352
11682TIP3    H256462   1.054   5.358  14.714 -1.7054 -0.0601  0.9992
11683TIP3   OH256463   2.692   3.974   1.054 -0.3666 -0.2563  0.3864
11683TIP3    H156464   2.782   3.997   1.033 -1.0653  0.2297 -2.4323
11683TIP3    H256465   2.699   3.912   1.128  2.1946  0.1250  0.5290
11684TIP3   OH256466   3.016   3.483  14.339 -0.1206 -0.1773  0.4871
11684TIP3    H156467   3.037   3.511  14.250 -2.5136  0.2258 -0.0362
11684TIP3    H256468   2.948   3.416  14.328 -2.0450  1.3869  1.9854
11685TIP3   OH256469   0.962   6.501  17.025 -0.2095 -0.0409  0.2111
11685TIP3    H156470   0.963   6.494  16.929 -0.1398  0.4053  0.1781
11685TIP3    H256471   1.055   6.500  17.050 -0.2310 -0.2679  0.2834
11686TIP3   OH256472   2.050   5.660  12.097  0.5706 -0.1393  0.2620
11686TIP3    H156473   2.012   5.717  12.164  0.9424 -1.0919  1.3173
11686TIP3    H256474   2.082   5.584  12.146  2.7725  0.0845 -0.6961
11687TIP3   OH256475   5.776   1.586  12.127  0.2035 -0.1217  0.2892
11687TIP3    H156476   5.860   1.580  12.172 -0.0762 -1.0169  0.7352
11687TIP3    H256477   5.791   1.548  12.041 -0.1003 -1.7940  0.9383
11688TIP3   OH256478   4.766   6.701  16.684  0.2666 -0.1660 -0.5180
11688TIP3    H156479   4.790   6.760  16.755  0.0641 -1.4160  0.6395
11688TIP3    H256480   4.849   6.678  16.642  0.3763  0.6658 -0.7675
11689TIP3   OH256481   1.379   5.443   3.269 -0.1732 -0.1848 -0.2377
11689TIP3    H156482   1.458   5.431   3.321  0.3331  1.1893 -0.6524
11689TIP3    H256483   1.404   5.412   3.181 -0.0401  0.3531 -0.3964
11690TIP3   OH256484   2.192   3.505   2.837  0.0714 -0.4397 -0.2454
11690TIP3    H156485   2.254   3.576   2.851  0.4837 -1.0143  0.9718
11690TIP3    H256486   2.164   3.514   2.746  1.0755  0.5109 -0.4658
11691TIP3   OH256487   5.029   2.472   0.929 -0.6512 -0.8195 -0.1120
11691TIP3    H156488   4.943   2.432   0.933  0.5060 -3.6451 -1.0877
11691TIP3    H256489   5.055   2.465   0.837 -0.0373  1.6028 -0.1946
11692TIP3   OH256490   4.729   1.615  14.949  0.3976 -0.2836 -0.0816
11692TIP3    H156491   4.696   1.596  14.861  1.0930 -1.4196 -0.1145
11692TIP3    H256492   4.693   1.701  14.970 -0.6051 -0.4458 -1.0652
11693TIP3   OH256493   0.536   6.217   1.060  0.0717 -0.1287  0.1237
11693TIP3    H156494   0.615   6.269   1.073  0.9980 -1.1018 -1.3559
11693TIP3    H256495   0.474   6.277   1.018  0.8466  0.0353 -0.8235
11694TIP3   OH256496   5.290   1.692   5.962  0.6325  0.1947  0.0418
11694TIP3    H156497   5.233   1.765   5.982 -2.2622 -2.2314  1.3925
11694TIP3    H256498   5.267   1.625   6.026  3.7523 -1.6337 -0.5466
11695TIP3   OH256499   0.774   0.029  12.397  0.5003 -0.2860  0.6714
11695TIP3    H156500   0.830   0.051  12.323  1.8205  1.9442  2.2235
11695TIP3    H256501   0.749   0.113  12.435 -0.3320 -1.3446  2.6287
11696TIP3   OH256502   6.178   6.094   0.227 -0.2401  0.1596 -0.0259
11696TIP3    H156503   6.156   6.046   0.147 -1.3070  1.2009 -0.3844
11696TIP3    H256504   6.273   6.082   0.236 -0.1466 -0.2549 -1.2642
11697TIP3   OH256505   0.836   4.436   5.136 -0.8335  0.1091 -0.3948
11697TIP3    H156506   0.766   4.497   5.158 -0.7854  0.3076 -0.7872
11697TIP3    H256507   0.838   4.375   5.210  0.3084  1.6294  0.8986
11698TIP3   OH256508   3.117   1.049   6.215  0.0916  0.3119 -0.2314
11698TIP3    H156509   3.205   1.080   6.191 -0.0700  0.4031 -0.7117
11698TIP3    H256510   3.090   1.107   6.285  1.2426 -0.9803  1.3764
11699TIP3   OH256511   4.784   1.687   4.567  0.1463 -0.2251  0.3287
11699TIP3    H156512   4.778   1.647   4.480 -0.6900  2.9800 -1.2178
11699TIP3    H256513   4.693   1.690   4.598  0.4854 -1.7958  1.6254
11700TIP3   OH256514   1.379   1.254   3.538  0.0536 -0.3957  0.0405
11700TIP3    H156515   1.409   1.344   3.531  2.5970 -1.1359  0.2473
11700TIP3    H256516   1.285   1.258   3.518 -0.3492  2.5154  1.9078
11701TIP3   OH256517   3.035   3.376   4.419 -0.0104 -0.3651  0.0308
11701TIP3    H156518   2.956   3.322   4.416 -0.7654  0.7132 -0.0873
11701TIP3    H256519   3.035   3.413   4.508 -0.2794  0.5418 -0.3313
11702TIP3   OH256520   2.380   5.885   5.735 -0.3973  0.2474  0.4412
11702TIP3    H156521   2.351   5.976   5.729 -2.7084 -0.4182  0.5735
11702TIP3    H256522   2.381   5.866   5.829 -1.1449 -0.2020  0.3671
11703TIP3   OH256523   1.432   1.190   0.198 -0.0761  0.5118  0.3761
11703TIP3    H156524   1.354   1.163   0.245 -0.8934 -0.1364 -1.2833
11703TIP3    H256525   1.431   1.139   0.117  2.1823  0.3267  0.3896
11704TIP3   OH256526   2.268   6.336   2.125 -0.4064 -0.3547 -0.4487
11704TIP3    H156527   2.203   6.275   2.160  0.8814 -0.6364  1.5658
11704TIP3    H256528   2.286   6.303   2.037 -2.3036 -0.7855 -0.7327
11705TIP3   OH256529   5.471   1.482  12.928  0.2943 -0.5227  0.6205
11705TIP3    H156530   5.438   1.456  13.014 -2.6863  0.8239  0.0305
11705TIP3    H256531   5.413   1.554  12.901  0.4252 -1.5455 -2.9414
11706TIP3   OH256532   5.559   6.166   5.453  0.4174 -0.1871 -0.2983
11706TIP3    H156533   5.478   6.148   5.500  1.1637 -1.4910  0.5396
11706TIP3    H256534   5.565   6.262   5.452 -0.4476 -0.0972  0.8405
11707TIP3   OH256535   0.052   6.468  11.606 -0.6371  0.2698 -0.0382
11707TIP3    H156536  -0.028   6.419  11.587 -0.9269  1.2153 -1.4084
11707TIP3    H256537   0.085   6.493  11.519  0.7923  0.4485  0.5403
11708TIP3   OH256538   4.466   5.900   0.260  0.1771 -0.3871  0.0708
11708TIP3    H156539   4.392   5.948   0.298  0.0686  0.2448 -0.9078
11708TIP3    H256540   4.433   5.811   0.249  0.3259 -0.6985  1.7510
11709TIP3   OH256541   5.925   4.921   0.081 -0.7320  0.1545 -0.1889
11709TIP3    H156542   5.870   4.977   0.027 -0.5986 -0.3872 -0.8972
11709TIP3    H256543   5.999   4.898   0.025 -1.9729 -2.7062 -0.8039
11710TIP3   OH256544   1.062   5.847  12.818 -0.0526  0.2024  0.2821
11710TIP3    H156545   1.053   5.828  12.912  1.7565  0.8864  0.6308
11710TIP3    H256546   1.155   5.838  12.801 -0.4283 -0.4446 -1.6063
11711TIP3   OH256547   1.382   5.212  14.609 -0.2999 -0.7288 -0.0086
11711TIP3    H156548   1.327   5.251  14.677  1.3109  0.2180  0.8342
11711TIP3    H256549   1.392   5.282  14.545  1.0233 -0.3852  0.5429
11712TIP3   OH256550   1.733   6.615  15.760  0.1516  0.5187  0.2056
11712TIP3    H156551   1.735   6.532  15.808  0.1332  2.2044  3.3962
11712TIP3    H256552   1.823   6.626  15.728  0.6002  0.0358  1.2425
11713TIP3   OH256553   5.504   3.388   0.769  0.6327 -0.0895 -0.5644
11713TIP3    H156554   5.512   3.383   0.864 -0.4076  2.1218 -0.2926
11713TIP3    H256555   5.592   3.369   0.736  1.1859 -0.1421  0.8776
11714TIP3   OH256556   1.399   6.225   3.142 -0.2726  0.4633  0.4293
11714TIP3    H156557   1.461   6.156   3.119  0.6040  1.5872 -0.7868
11714TIP3    H256558   1.446   6.277   3.208 -0.6131  0.3372  0.7698
11715TIP3   OH256559   1.935   4.588  13.940 -0.5817 -0.0470 -0.1228
11715TIP3    H156560   1.885   4.532  14.000 -1.0480  0.9598  0.4498
11715TIP3    H256561   1.923   4.548  13.854 -0.7581 -0.9245  0.2962
11716TIP3   OH256562   5.273   1.028   4.923 -0.5281  0.2156  0.1069
11716TIP3    H156563   5.182   0.999   4.923 -0.6774  0.5266 -1.9215
11716TIP3    H256564   5.287   1.064   5.011 -2.6304  0.9467  0.1984
11717TIP3   OH256565   3.892   4.376   2.923  0.2085 -0.6236 -0.4699
11717TIP3    H156566   3.965   4.345   2.869  0.0572  0.0319 -1.0581
11717TIP3    H256567   3.906   4.334   3.008 -0.8121 -3.5360 -1.6050
11718TIP3   OH256568   3.239   3.813   1.503 -0.6943  0.1701 -0.4553
11718TIP3    H156569   3.214   3.904   1.486  0.1824  0.4233 -0.4760
11718TIP3    H256570   3.157   3.765   1.505 -1.2470  1.0999  0.3939
11719TIP3   OH256571   3.045   4.348  17.256  0.1293  0.5922 -0.2004
11719TIP3    H156572   3.062   4.325  17.165 -0.8558 -0.7397 -0.0774
11719TIP3    H256573   2.957   4.313  17.274  0.9452 -0.6712  1.7312
11720TIP3   OH256574   2.738   3.532   1.796  0.0297 -0.7293 -0.4387
11720TIP3    H156575   2.733   3.474   1.871  0.1091 -0.0036  0.1404
11720TIP3    H256576   2.827   3.568   1.800 -0.2847  0.0591 -0.3017
11721TIP3   OH256577   6.139   2.050   2.675 -0.1114  0.3153  0.2967
11721TIP3    H156578   6.054   2.012   2.657  0.1764  0.1216 -0.7094
11721TIP3    H256579   6.175   1.997   2.746  0.1461 -1.0989 -0.8526
11722TIP3   OH256580   5.590   6.368  11.096 -0.0366  0.2260  0.3066
11722TIP3    H156581   5.684   6.376  11.115  0.3012  2.7542 -1.8124
11722TIP3    H256582   5.547   6.406  11.173  0.7711  0.5673  0.6036
11723TIP3   OH256583   2.276   5.646   5.554 -0.1204  0.1672 -0.7852
11723TIP3    H156584   2.346   5.581   5.558 -3.1835 -3.4060  0.3619
11723TIP3    H256585   2.306   5.717   5.612  1.3806 -2.5898  2.1042
11724TIP3   OH256586   0.082   0.109   5.103  0.4344  0.8147  0.2340
11724TIP3    H156587   0.105   0.191   5.059 -0.3376  0.3498 -1.0771
11724TIP3    H256588   0.094   0.042   5.036 -1.7192  0.1971  0.4084
11725TIP3   OH256589   5.859   3.964  14.130 -0.1301 -0.1118 -0.7004
11725TIP3    H156590   5.839   3.884  14.179  0.2611  0.3216  0.1923
11725TIP3    H256591   5.922   3.937  14.064  0.5401 -0.4324  0.0453
11726TIP3   OH256592   5.932   1.054   2.246 -0.3400  0.3813  0.4080
11726TIP3    H156593   5.975   0.976   2.282  0.5360  0.3899 -0.5824
11726TIP3    H256594   6.004   1.112   2.222 -0.8115  0.0083 -2.1859
11727TIP3   OH256595   4.753   4.328   6.371 -0.6838 -0.0842  0.0862
11727TIP3    H156596   4.750   4.404   6.429 -1.1040  0.3672 -0.4978
11727TIP3    H256597   4.668   4.330   6.326  0.0818  0.2931 -1.4055
11728TIP3   OH256598   1.422   4.469  15.052  0.6019  0.2359  0.3910
11728TIP3    H156599   1.364   4.536  15.089  0.3516  1.2992 -1.7805
11728TIP3    H256600   1.397   4.388  15.097 -2.5173  0.6674 -0.3098
11729TIP3   OH256601   4.425   2.272   4.163 -0.0652  0.0449 -0.4379
11729TIP3    H156602   4.443   2.193   4.112  0.7669 -1.1501  1.5522
11729TIP3    H256603   4.332   2.289   4.150  0.0229 -0.4772 -1.9270
11730TIP3   OH256604   6.174   5.189  11.289  0.7554  0.0060 -0.2470
11730TIP3    H156605   6.099   5.247  11.278  0.8794  0.6976  1.9183
11730TIP3    H256606   6.241   5.224  11.230 -0.4853 -0.4730 -2.0178
11731TIP3   OH256607   6.292   6.564   4.752  0.0611 -0.1324  0.1478
11731TIP3    H156608   6.246   6.643   4.780 -0.3643 -0.5938  0.7716
11731TIP3    H256609   6.252   6.542   4.667  2.2037  1.9814 -1.5684
11732TIP3   OH256610   0.992   5.398  16.565 -0.4025 -0.1682 -0.0111
11732TIP3    H156611   1.027   5.338  16.630  0.1812 -0.3587 -0.4928
11732TIP3    H256612   0.898   5.380  16.563 -0.3998 -0.2576  0.6742
11733TIP3   OH256613   4.681   4.241  16.259  0.1746 -0.2837 -0.3240
11733TIP3    H156614   4.770   4.268  16.234  0.6508 -0.9205  0.6266
11733TIP3    H256615   4.694   4.178  16.330 -1.1076  1.7268  1.8538
11734TIP3   OH256616   5.485   3.185  12.261  0.2788 -0.1058  0.1233
11734TIP3    H156617   5.438   3.264  12.285 -0.1543 -0.0876 -0.7395
11734TIP3    H256618   5.513   3.200  12.171 -2.7412 -2.1964 -1.3476
11735TIP3   OH256619   0.494   2.785  16.553 -0.2109 -0.4220 -0.2831
11735TIP3    H156620   0.587   2.804  16.567 -0.5071  1.0119 -0.1243
11735TIP3    H256621   0.482   2.698  16.592  0.7102  0.0888  1.2539
11736TIP3   OH256622   6.412   4.731   6.320  0.3524  0.4687 -0.1222
11736TIP3    H156623   6.442   4.659   6.375 -1.2919  1.3144  1.9853
11736TIP3    H256624   6.463   4.806   6.349  0.3333  0.6785 -0.6226
11737TIP3   OH256625   2.404   6.059  12.972 -0.3771 -0.4986 -0.3020
11737TIP3    H156626   2.451   6.056  13.055 -0.6308  3.5401  0.2101
11737TIP3    H256627   2.314   6.037  12.995 -0.5077  0.8671  0.6514
11738TIP3   OH256628   2.451   5.381   4.745 -0.2626 -0.0269  0.3855
11738TIP3    H156629   2.519   5.333   4.792  0.2946 -1.1906 -1.4765
11738TIP3    H256630   2.379   5.319   4.738  0.0136 -0.2287 -1.0226
11739TIP3   OH256631   4.168   3.596   5.115  0.1132  0.3840 -0.8372
11739TIP3    H156632   4.235   3.652   5.075  1.1255 -1.0441 -1.2382
11739TIP3    H256633   4.168   3.516   5.061 -0.0284 -0.7192  0.7326
11740TIP3   OH256634   2.620   1.464   4.634 -0.2357 -0.0382 -0.0661
11740TIP3    H156635   2.699   1.412   4.621 -0.1893 -0.2101  0.7916
11740TIP3    H256636   2.646   1.532   4.696 -1.1940 -1.2472  1.7743
11741TIP3   OH256637   0.174   3.307  11.485  0.2519  0.5551 -0.0098
11741TIP3    H156638   0.106   3.257  11.441  1.2990 -0.5553 -0.4170
11741TIP3    H256639   0.131   3.389  11.509 -0.5081  1.0548 -2.6917
11742TIP3   OH256640   0.399   3.409  16.023  0.4450 -0.0439  0.2632
11742TIP3    H156641   0.477   3.455  16.054  1.3802 -1.6825  0.4767
11742TIP3    H256642   0.410   3.319  16.055 -2.1411 -0.0554  1.3545
11743TIP3   OH256643   1.947   2.902   4.086  0.1259  0.1164  0.3768
11743TIP3    H156644   1.867   2.895   4.139 -1.3205  0.7981 -1.5869
11743TIP3    H256645   1.979   2.991   4.102 -2.0015  1.4446 -1.9996
11744TIP3   OH256646   5.787   6.085   0.161  0.2935  0.3275 -0.1010
11744TIP3    H156647   5.743   6.086   0.075  0.8454  1.4221 -0.3804
11744TIP3    H256648   5.849   6.012   0.155  0.3852  0.4474 -0.6590
11745TIP3   OH256649   0.137   4.443  17.417 -0.0510  0.1478  0.0831
11745TIP3    H156650   0.091   4.360  17.407 -1.0999  0.7313 -0.1196
11745TIP3    H256651   0.228   4.419  17.430 -0.1768 -1.0011 -0.9945
11746TIP3   OH256652   0.952   1.311  13.198 -0.5640 -0.7190  0.3696
11746TIP3    H156653   0.965   1.295  13.105 -0.0586 -0.1218  0.3284
11746TIP3    H256654   0.866   1.353  13.203 -1.7376 -2.9938  0.4472
11747TIP3   OH256655   1.344   3.835   5.711 -0.0868  0.1581  0.1743
11747TIP3    H156656   1.317   3.746   5.689 -0.5394  0.3774 -0.1812
11747TIP3    H256657   1.348   3.836   5.807  0.5960 -0.4326  0.1581
11748TIP3   OH256658   1.500   3.732   4.319 -0.4424  0.2606  0.1077
11748TIP3    H156659   1.531   3.801   4.261 -0.4803 -0.2563 -0.5382
11748TIP3    H256660   1.435   3.684   4.267  1.2509 -1.6998 -0.3084
11749TIP3   OH256661   3.833   5.143   3.516  0.2628 -0.0964  0.0187
11749TIP3    H156662   3.914   5.091   3.514  1.5670  1.6776  2.4416
11749TIP3    H256663   3.771   5.092   3.464  2.2318 -2.7219  0.0512
11750TIP3   OH256664   4.180   2.457   4.947  0.3334  0.4244  0.2590
11750TIP3    H156665   4.218   2.385   4.996 -1.6311  0.6508  2.2872
11750TIP3    H256666   4.161   2.524   5.013 -0.3903  1.6711 -1.1391
11751TIP3   OH256667   2.398   2.424   5.004 -0.2941 -0.0309 -0.0572
11751TIP3    H156668   2.448   2.459   5.077 -0.6544  1.2044 -0.3825
11751TIP3    H256669   2.354   2.347   5.040  0.6728 -0.2802  0.6178
11752TIP3   OH256670   4.794   2.791  14.437  0.0488 -0.4494  0.2179
11752TIP3    H156671   4.770   2.838  14.357 -1.7070  0.6939  1.3559
11752TIP3    H256672   4.866   2.735  14.410  0.0437  0.4805 -1.9828
11753TIP3   OH256673   1.228   1.887  13.432 -0.0474 -0.2264  0.1183
11753TIP3    H156674   1.148   1.894  13.380  0.4926 -0.0696 -0.7069
11753TIP3    H256675   1.206   1.824  13.501 -0.6280 -0.7867 -0.5639
11754TIP3   OH256676   6.514   2.280   0.286 -0.9885 -0.1017 -0.4122
11754TIP3    H156677   6.609   2.272   0.289 -0.9191  0.6877  1.8235
11754TIP3    H256678   6.482   2.206   0.337 -1.4831  0.4139  0.0400
11755TIP3   OH256679   5.130   6.474  17.432 -0.2703 -0.2011 -0.2978
11755TIP3    H156680   5.086   6.505  17.511  2.2620 -0.6327  1.4084
11755TIP3    H256681   5.200   6.538  17.417  1.0219 -1.5841 -0.4642
11756TIP3   OH256682   5.413   3.646  14.662  0.4099 -0.2020 -0.1655
11756TIP3    H156683   5.417   3.553  14.684 -1.3988 -0.2892 -0.0043
11756TIP3    H256684   5.414   3.691  14.746 -0.3323 -0.1840 -0.1593
11757TIP3   OH256685   1.362   5.112   6.074  0.2303 -0.4469  0.3251
11757TIP3    H156686   1.380   5.035   6.020 -1.0955 -1.0013  0.6222
11757TIP3    H256687   1.447   5.140   6.106  0.9012 -0.8247 -1.0788
11758TIP3   OH256688   5.623   3.338   3.491  0.1013  0.0910 -0.5855
11758TIP3    H156689   5.681   3.301   3.424  2.0778  0.3077  0.9243
11758TIP3    H256690   5.636   3.433   3.484 -0.9932  0.2262 -0.9909
11759TIP3   OH256691   3.052   2.260   3.441  0.2174  0.3068 -0.1854
11759TIP3    H156692   3.123   2.313   3.406  0.5356 -0.2000 -0.3084
11759TIP3    H256693   2.982   2.268   3.376 -0.2087  1.6000  0.4091
11760TIP3   OH256694   1.956   2.138   0.095 -0.5394 -0.2372 -0.4198
11760TIP3    H156695   2.044   2.131   0.130  0.2690 -0.6949 -2.4162
11760TIP3    H256696   1.928   2.047   0.082 -0.8297 -0.0812 -0.9166
11761TIP3   OH256697   0.293   5.686  14.335 -0.4780  0.1866  0.1771
11761TIP3    H156698   0.293   5.612  14.275 -0.2686 -1.4698  2.1103
11761TIP3    H256699   0.385   5.695  14.362 -0.5658  0.9108  0.2459
11762TIP3   OH256700   6.436   0.493  16.708 -0.0241 -0.4502  0.0634
11762TIP3    H156701   6.457   0.570  16.657  0.3182 -0.1882  0.5873
11762TIP3    H256702   6.404   0.528  16.792 -2.5898 -0.8134 -0.6757
11763TIP3   OH256703   4.647   3.894  16.118  0.0266  0.8980 -0.1591
11763TIP3    H156704   4.616   3.870  16.031  0.0411  2.6333 -0.6825
11763TIP3    H256705   4.734   3.930  16.104  0.2165  0.7736  0.6364
11764TIP3   OH256706   3.339   5.109  11.673  0.0793  0.3639 -0.1026
11764TIP3    H156707   3.289   5.034  11.705 -0.1079  1.0676  1.3417
11764TIP3    H256708   3.423   5.102  11.718 -0.0539  1.1888  0.2808
11765TIP3   OH256709   0.779   6.711   2.277 -0.2524  0.2799  0.3635
11765TIP3    H156710   0.730   6.739   2.200  0.1534  0.1736  0.0604
11765TIP3    H256711   0.778   6.787   2.335 -2.5944 -0.4071  1.3067
11766TIP3   OH256712   0.555   3.286   1.643  0.6851 -0.2371 -0.2845
11766TIP3    H156713   0.544   3.196   1.610  0.4707 -0.2766 -0.1113
11766TIP3    H256714   0.526   3.281   1.734 -2.0374  0.5899 -1.0049
11767TIP3   OH256715   6.485   5.378   5.807 -0.9709 -0.5798 -0.0366
11767TIP3    H156716   6.411   5.378   5.747 -2.3544  0.3620  1.5556
11767TIP3    H256717   6.492   5.469   5.837  0.8903 -0.6335 -0.1863
11768TIP3   OH256718   5.574   3.437   0.156  0.1778 -0.6500 -0.2475
11768TIP3    H156719   5.657   3.388   0.155 -0.7791 -2.4482  1.1915
11768TIP3    H256720   5.538   3.424   0.068  1.2689 -0.0882 -0.7980
11769TIP3   OH256721   2.281   6.075  11.032 -0.8279  0.2055  0.1282
11769TIP3    H156722   2.192   6.039  11.033 -0.6187 -0.6422 -2.7846
11769TIP3    H256723   2.269   6.167  11.054 -2.5877  0.3023 -1.0165
11770TIP3   OH256724   1.641   5.199   2.166 -0.6008  0.0486 -0.1477
11770TIP3    H156725   1.668   5.271   2.109  1.0034 -0.3002  0.1194
11770TIP3    H256726   1.607   5.132   2.107  1.1043 -0.3411 -0.7712
11771TIP3   OH256727   4.543   0.492  12.841 -0.4208 -0.0536  0.3502
11771TIP3    H156728   4.519   0.553  12.910  1.9570 -1.1973  2.3486
11771TIP3    H256729   4.561   0.547  12.765  0.7389  1.6847  1.8061
11772TIP3   OH256730   3.138   0.428  15.954  0.2806 -0.1215  0.3359
11772TIP3    H156731   3.133   0.365  15.882  1.1274  0.3354 -0.1389
11772TIP3    H256732   3.049   0.432  15.988 -0.2754  0.0970 -1.0767
11773TIP3   OH256733   3.759   0.532  11.358  0.1336  0.1199 -0.0655
11773TIP3    H156734   3.768   0.592  11.432  0.1169 -0.1864  0.1852
11773TIP3    H256735   3.841   0.483  11.357 -0.7979 -1.5781  1.2514
11774TIP3   OH256736   5.036   5.581  12.760  0.0895 -0.0849  0.1225
11774TIP3    H156737   5.109   5.579  12.699  0.2972 -1.9916  0.3793
11774TIP3    H256738   5.047   5.503  12.814 -2.0575 -0.3602  0.2548
11775TIP3   OH256739   2.284   2.582   0.688 -0.0153  0.2432  0.0867
11775TIP3    H156740   2.204   2.533   0.708  1.8097 -2.7922  0.5954
11775TIP3    H256741   2.301   2.563   0.595  0.0691  0.9489 -0.0437
11776TIP3   OH256742   1.229   0.931  12.315 -0.2685 -0.0052 -0.2003
11776TIP3    H156743   1.271   0.963  12.235 -1.2488 -0.8313 -1.0628
11776TIP3    H256744   1.288   0.959  12.385  2.3619 -2.0733 -1.3983
11777TIP3   OH256745   5.846   3.489  13.269 -0.0225  0.1718  0.0070
11777TIP3    H156746   5.915   3.427  13.290  0.4226  0.0206 -1.7437
11777TIP3    H256747   5.777   3.472  13.334  0.5142 -1.4357  0.1964
11778TIP3   OH256748   4.165   0.588   3.998 -0.0001 -0.9324  0.2592
11778TIP3    H156749   4.161   0.656   3.932  0.0464 -0.0120  1.1783
11778TIP3    H256750   4.095   0.527   3.974 -2.4955  1.2921  1.3710
11779TIP3   OH256751   3.404   3.971   3.538 -0.3015  0.3902  0.4037
11779TIP3    H156752   3.397   3.982   3.444  0.3607 -1.9724  0.0063
11779TIP3    H256753   3.344   3.900   3.558  0.0891  0.3819  1.6493
11780TIP3   OH256754   1.693   4.256   4.298  0.0329 -0.0023 -0.1078
11780TIP3    H156755   1.769   4.314   4.299 -0.3831  0.5475 -0.1867
11780TIP3    H256756   1.710   4.195   4.226  0.3521  0.1823 -0.1895
11781TIP3   OH256757   0.317   2.551   2.078 -0.5743 -0.5227  0.6267
11781TIP3    H156758   0.356   2.635   2.051 -1.2802  0.5944  2.8908
11781TIP3    H256759   0.224   2.570   2.087 -0.6202 -1.3246  1.9594
11782TIP3   OH256760   0.570   6.231   2.078 -0.4436  0.9349 -0.4148
11782TIP3    H156761   0.605   6.200   2.161  1.6661  0.8624 -1.2783
11782TIP3    H256762   0.551   6.150   2.029  0.0431  0.9749 -0.6749
11783TIP3   OH256763   1.246   2.188   5.313 -0.3755 -0.6780  0.3623
11783TIP3    H156764   1.249   2.271   5.361 -1.3152 -0.8217  0.6871
11783TIP3    H256765   1.240   2.215   5.221 -1.9623 -0.3433  0.5327
11784TIP3   OH256766   4.108   6.090   6.006 -0.1565  0.3770  0.4855
11784TIP3    H156767   4.183   6.105   5.948 -0.1005  0.2924  0.5356
11784TIP3    H256768   4.040   6.148   5.973 -0.7281 -0.9566 -0.7927
11785TIP3   OH256769   0.826   6.345  11.528 -0.0623  0.2074 -0.3704
11785TIP3    H156770   0.739   6.382  11.535 -0.0129  0.4243 -0.8718
11785TIP3    H256771   0.883   6.419  11.508 -0.0063 -0.1638 -1.6821
11786TIP3   OH256772   4.619   2.649  13.038 -0.4919 -0.3608  0.2435
11786TIP3    H156773   4.549   2.588  13.059 -0.8506  0.5897  1.9446
11786TIP3    H256774   4.577   2.734  13.035  0.3993  0.0854  0.1041
11787TIP3   OH256775   5.281   3.109  16.553 -0.0517 -0.0827  0.0914
11787TIP3    H156776   5.327   3.191  16.571 -1.1501  0.3133  1.1550
11787TIP3    H256777   5.188   3.131  16.556 -0.4465 -1.7342  2.4307
11788TIP3   OH256778   1.579   2.498  17.070  0.2272 -0.0958  0.1757
11788TIP3    H156779   1.652   2.438  17.063  2.3854  2.3676 -0.1021
11788TIP3    H256780   1.541   2.481  17.156  0.9069 -1.6179  0.2011
11789TIP3   OH256781   6.643   6.403   3.724  0.7161  0.0629 -0.0250
11789TIP3    H156782   6.647   6.371   3.634  0.7544  2.1472 -0.8132
11789TIP3    H256783   6.578   6.473   3.722  0.0762 -0.4383  1.7811
11790TIP3   OH256784   3.922   6.514  17.153  0.4049 -0.5906  0.1034
11790TIP3    H156785   4.014   6.539  17.165 -0.2979  2.6592 -0.4850
11790TIP3    H256786   3.923   6.454  17.079  2.1511 -1.7403  0.9751
11791TIP3   OH256787   0.167   2.726  12.956  0.2787 -0.2975  0.5066
11791TIP3    H156788   0.220   2.727  12.876  1.5078  2.4575  1.2307
11791TIP3    H256789   0.188   2.643  12.998  1.4889 -0.7070 -0.8177
11792TIP3   OH256790   3.770   4.199  16.535 -0.5574  0.2585  0.0937
11792TIP3    H156791   3.710   4.175  16.464 -0.5451  0.6657 -0.0563
11792TIP3    H256792   3.725   4.169  16.615 -0.2930 -0.7537 -0.1209
11793TIP3   OH256793   5.346   1.462  14.916  0.2415  0.1202 -0.0948
11793TIP3    H156794   5.402   1.518  14.969  2.3726 -1.4750 -0.5242
11793TIP3    H256795   5.300   1.407  14.980 -0.1548  0.8198  0.2294
11794TIP3   OH256796   4.883   4.346   4.375  0.0400  0.3224  0.0597
11794TIP3    H156797   4.806   4.382   4.421 -0.7917  0.7302 -1.5549
11794TIP3    H256798   4.927   4.293   4.441 -0.8051  1.2635  1.4662
11795TIP3   OH256799   3.606   1.843   3.189  0.1530  0.0464 -0.4010
11795TIP3    H156800   3.521   1.863   3.149  0.2716 -1.1527 -1.3303
11795TIP3    H256801   3.624   1.753   3.162  1.3944  0.0400  0.3811
11796TIP3   OH256802   6.511   3.080   3.572 -0.3870 -0.6350  0.3771
11796TIP3    H156803   6.438   3.029   3.535  2.2814 -3.4080 -1.5055
11796TIP3    H256804   6.518   3.155   3.513 -1.9537 -0.0309  0.8880
11797TIP3   OH256805   3.324   3.092  14.158  0.4540 -0.0621 -0.2515
11797TIP3    H156806   3.306   3.185  14.168  1.9853  0.2184  0.2067
11797TIP3    H256807   3.274   3.066  14.080 -0.7630  0.8975  0.1719
11798TIP3   OH256808   5.464   0.559  11.779 -0.3210 -0.1574  0.2574
11798TIP3    H156809   5.413   0.481  11.756  1.4517 -1.3661  0.2790
11798TIP3    H256810   5.429   0.586  11.865 -1.0391 -0.8270  0.1872
11799TIP3   OH256811   0.943   0.044   1.944 -0.2825  0.0905  0.1751
11799TIP3    H156812   1.015   0.026   2.004 -1.3750 -1.3867  1.1063
11799TIP3    H256813   0.865   0.041   1.999 -1.1306  0.9456 -0.9396
11800TIP3   OH256814   2.642   3.035  11.900  0.1579 -0.0523  0.0642
11800TIP3    H156815   2.612   3.052  11.989  2.1737  1.0564  0.6078
11800TIP3    H256816   2.602   2.952  11.876 -0.6332 -0.2447  1.9111
11801TIP3   OH256817   5.023   2.416  13.106  0.2452  0.2272  0.3110
11801TIP3    H156818   5.030   2.377  13.193  1.9837 -0.2180  0.0089
11801TIP3    H256819   5.113   2.416  13.072 -0.5345 -0.7832 -1.9760
11802TIP3   OH256820   6.507   1.429   1.595  0.4456 -0.9601  0.0546
11802TIP3    H156821   6.490   1.437   1.501  0.7936 -0.8080  0.0002
11802TIP3    H256822   6.568   1.500   1.614 -0.0288 -0.6701  0.5051
11803TIP3   OH256823   3.294   2.444   2.155 -0.1715 -0.4218  0.3077
11803TIP3    H156824   3.209   2.405   2.177 -0.3939  0.1549  0.4825
11803TIP3    H256825   3.273   2.533   2.126  0.7004  1.5885  5.0313
11804TIP3   OH256826   4.097   0.424  13.078 -0.4795  0.2064  0.5523
11804TIP3    H156827   4.162   0.356  13.062 -2.2289 -1.2282 -0.8925
11804TIP3    H256828   4.079   0.461  12.992 -1.8521  0.2993  0.8608
11805TIP3   OH256829   6.102   4.080   4.981  0.3418 -0.4971  0.2816
11805TIP3    H156830   6.114   4.064   4.887 -1.3936 -1.6102  0.2052
11805TIP3    H256831   6.113   3.994   5.022  2.6537  0.2218  1.3444
11806TIP3   OH256832   5.213   3.013  14.955 -0.0570 -0.5918  0.5780
11806TIP3    H156833   5.245   2.951  14.890 -0.4183  0.2130 -0.3998
11806TIP3    H256834   5.291   3.060  14.985 -0.0607  0.1984 -0.5520
11807TIP3   OH256835   5.087   2.808  11.516  0.0988  0.3862 -1.0252
11807TIP3    H156836   5.140   2.888  11.521  1.5719 -0.6268  1.1950
11807TIP3    H256837   5.043   2.803  11.601  0.0701 -1.1812 -1.1019
11808TIP3   OH256838   5.800   3.777   0.705  0.1801 -0.0905 -0.3011
11808TIP3    H156839   5.731   3.755   0.767 -0.0460  1.7140  0.1387
11808TIP3    H256840   5.858   3.835   0.754  0.8907  0.0635 -1.2941
11809TIP3   OH256841   3.582   3.849   4.939  0.0593  0.1556  0.0833
11809TIP3    H156842   3.565   3.894   4.856  0.7854  0.9678  0.3585
11809TIP3    H256843   3.673   3.871   4.960  0.2015 -0.8634  0.5972
11810TIP3   OH256844   6.670   2.574  17.056  0.1007  0.1679 -0.6940
11810TIP3    H156845   6.735   2.642  17.040  2.2108 -0.2185  4.2585
11810TIP3    H256846   6.596   2.620  17.097  0.4697 -0.1485  0.3686
11811TIP3   OH256847   1.543   3.305  11.834  0.2533  0.2934  0.8745
11811TIP3    H156848   1.522   3.382  11.781  1.0672  0.4234  0.7351
11811TIP3    H256849   1.630   3.278  11.804  0.3126 -0.2037  1.4821
11812TIP3   OH256850   4.090   0.508  14.729 -0.5595 -0.1083  0.1316
11812TIP3    H156851   3.995   0.514  14.718 -0.6898 -0.9260  0.7332
11812TIP3    H256852   4.122   0.477  14.645 -0.9004 -0.5145  0.1509
11813TIP3   OH256853   1.798   3.480  15.968  0.1453  1.0793  0.0459
11813TIP3    H156854   1.834   3.430  16.042  3.5301  2.5162 -0.4654
11813TIP3    H256855   1.749   3.551  16.009 -0.3159  0.3429  0.8264
11814TIP3   OH256856   6.116   0.167   4.071  0.7701 -0.9997 -0.3489
11814TIP3    H156857   6.066   0.181   3.991  1.7374 -0.5423 -0.8941
11814TIP3    H256858   6.127   0.072   4.077 -0.3465 -1.1201 -0.0932
11815TIP3   OH256859   2.227   3.785  11.529  0.5579 -0.0588  0.1004
11815TIP3    H156860   2.150   3.833  11.499 -0.3824  0.1978  2.6487
11815TIP3    H256861   2.288   3.789  11.455 -1.6860  0.0562 -1.8673
11816TIP3   OH256862   4.803   3.732  16.974  0.2898 -0.0303 -0.2169
11816TIP3    H156863   4.745   3.736  17.050 -1.6516  0.0702 -1.6197
11816TIP3    H256864   4.806   3.823  16.942  2.3345  0.2298  0.5619
11817TIP3   OH256865   2.130   2.187   4.390 -0.0032 -0.1238 -0.2025
11817TIP3    H156866   2.048   2.140   4.378 -0.3498  0.8211 -2.0417
11817TIP3    H256867   2.196   2.130   4.349 -0.4385  0.8934 -2.5292
11818TIP3   OH256868   1.549   4.867  12.604 -0.3513 -0.3332  0.5902
11818TIP3    H156869   1.578   4.775  12.610  1.6845  0.2143 -0.1501
11818TIP3    H256870   1.459   4.861  12.573  0.9519 -2.0928 -3.6092
11819TIP3   OH256871   0.576   5.375   0.786  0.3794 -0.0139 -0.6452
11819TIP3    H156872   0.569   5.468   0.807  0.5297 -0.3694  1.1497
11819TIP3    H256873   0.668   5.353   0.803  0.6619 -0.2494 -2.2837
11820TIP3   OH256874   4.427   0.325  16.059 -0.0275  0.5059  0.6016
11820TIP3    H156875   4.516   0.358  16.042  0.2745  0.2280  1.5796
11820TIP3    H256876   4.373   0.404  16.062 -0.3677  0.5517 -2.8026
11821TIP3   OH256877   2.151   0.156  17.135  0.4704 -0.2078  0.2041
11821TIP3    H156878   2.108   0.230  17.177 -0.8726 -1.0780  0.4118
11821TIP3    H256879   2.102   0.079  17.163  0.2509 -0.9525 -1.9647
11822TIP3   OH256880   3.180   2.147  15.710  0.1626 -0.4358 -0.3997
11822TIP3    H156881   3.218   2.190  15.787 -2.1187  0.7968  0.1469
11822TIP3    H256882   3.163   2.057  15.739 -0.6366  0.0066  0.5767
11823TIP3   OH256883   4.317   4.799  14.295 -0.2076 -0.4278 -0.0570
11823TIP3    H156884   4.308   4.872  14.234  0.5343 -0.1267  0.1850
11823TIP3    H256885   4.364   4.836  14.370  0.0755 -1.1229  0.1179
11824TIP3   OH256886   5.682   4.221  13.016  0.2814 -0.1217  0.1194
11824TIP3    H156887   5.713   4.132  12.997  0.2360 -0.4682  1.5600
11824TIP3    H256888   5.745   4.255  13.080 -0.0160  0.6900 -0.0076
11825TIP3   OH256889   2.334   6.108   4.628 -0.2796 -0.3398  0.4474
11825TIP3    H156890   2.330   6.199   4.657  0.2804 -0.5697  1.2969
11825TIP3    H256891   2.370   6.061   4.703 -0.2569 -1.2120 -0.0967
11826TIP3   OH256892   3.382   1.140   0.279 -0.2066  0.3390 -0.6727
11826TIP3    H156893   3.396   1.230   0.251 -1.0637  1.6203  2.5619
11826TIP3    H256894   3.468   1.108   0.304  0.1059  0.1857 -1.8724
11827TIP3   OH256895   5.164   4.244   1.553 -0.3764 -0.4517  0.1824
11827TIP3    H156896   5.099   4.305   1.587 -1.5376 -1.1632 -0.7088
11827TIP3    H256897   5.219   4.297   1.495 -0.2144  0.1262  0.8518
11828TIP3   OH256898   0.961   6.396  11.794 -0.8093 -0.0738 -0.2275
11828TIP3    H156899   0.907   6.373  11.870 -1.2123  2.5748  0.3755
11828TIP3    H256900   0.902   6.390  11.719 -1.3895  0.7326  0.1545
11829TIP3   OH256901   5.672   2.432   3.882 -0.2049 -0.2242  0.3782
11829TIP3    H156902   5.623   2.362   3.839 -1.0515 -0.0103  0.9636
11829TIP3    H256903   5.729   2.387   3.945  0.1805 -0.4557 -0.1261
11830TIP3   OH256904   4.736   0.472  15.771  0.1553  0.1937  0.3518
11830TIP3    H156905   4.826   0.502  15.767 -0.1477  1.3504  1.4330
11830TIP3    H256906   4.742   0.379  15.791  1.1067 -0.2619 -1.8135
11831TIP3   OH256907   5.798   4.647   2.186 -0.1188 -1.0021 -0.7010
11831TIP3    H156908   5.749   4.709   2.130 -1.1487 -0.5763  0.6135
11831TIP3    H256909   5.799   4.566   2.136  0.6281 -0.1413 -2.1553
11832TIP3   OH256910   0.141   0.346   0.446  0.4751 -0.4801  0.4365
11832TIP3    H156911   0.066   0.359   0.504  1.1382  0.3561  1.1291
11832TIP3    H256912   0.105   0.356   0.357 -0.1440  0.3382  0.7748
11833TIP3   OH256913   3.725   4.725  14.721  0.2089 -0.0529  0.2395
11833TIP3    H156914   3.666   4.782  14.672 -0.4896 -1.4086 -0.5572
11833TIP3    H256915   3.793   4.701  14.658  0.8649  0.3978  0.7588
11834TIP3   OH256916   3.517   2.834  14.575  0.4833  0.5814  0.3633
11834TIP3    H156917   3.612   2.829  14.583  0.3536 -0.8462  1.4774
11834TIP3    H256918   3.498   2.926  14.560  2.2246  0.5353 -2.8890
11835TIP3   OH256919   3.134   4.689  15.520 -0.7208  0.6164  0.9537
11835TIP3    H156920   3.041   4.677  15.498 -0.0790  1.3631 -3.0256
11835TIP3    H256921   3.147   4.784  15.519  0.3321  0.4902 -0.2421
11836TIP3   OH256922   4.243   6.019   5.143  0.4798  0.2359 -0.1311
11836TIP3    H156923   4.183   6.047   5.074  0.6735 -1.9602 -1.2954
11836TIP3    H256924   4.330   6.031   5.106  0.7032  1.3832  0.7245
11837TIP3   OH256925   6.039   5.918   5.632  0.5117 -0.4536  0.0948
11837TIP3    H156926   6.075   5.882   5.551  0.4461 -1.5058  0.5122
11837TIP3    H256927   6.087   6.000   5.645  1.7407 -1.1164 -0.1058
11838TIP3   OH256928   4.869   1.788   1.992  0.4250 -0.7885  0.1083
11838TIP3    H156929   4.952   1.772   2.036  0.7840 -0.1101 -0.3071
11838TIP3    H256930   4.843   1.876   2.020  0.2087 -0.7094 -0.3262
11839TIP3   OH256931   2.477   1.617   0.524 -0.1263 -0.5023 -0.0340
11839TIP3    H156932   2.384   1.597   0.518  0.0575 -1.3296 -0.2755
11839TIP3    H256933   2.482   1.712   0.520 -0.8857 -0.4949 -1.0913
11840TIP3   OH256934   5.161   3.904   1.786 -0.1735 -0.4773 -0.3503
11840TIP3    H156935   5.107   3.923   1.710 -0.1935  1.7350  0.1515
11840TIP3    H256936   5.102   3.859   1.847 -0.7084 -0.4250 -0.8221
11841TIP3   OH256937   1.366   1.688   4.488  0.1206 -0.0496 -0.3767
11841TIP3    H156938   1.394   1.633   4.562 -0.1571 -1.0268 -0.9842
11841TIP3    H256939   1.281   1.653   4.463 -2.0262  3.1666  1.7307
11842TIP3   OH256940   6.289   0.164   2.288 -0.4995 -0.7105  0.0763
11842TIP3    H156941   6.343   0.238   2.315 -0.9308 -1.3140  2.8479
11842TIP3    H256942   6.350   0.104   2.245  0.2035  0.3998 -0.5037
11843TIP3   OH256943   1.653   1.487   5.702 -0.2098 -0.0230  0.0267
11843TIP3    H156944   1.675   1.427   5.773 -1.7144 -0.8758 -0.1757
11843TIP3    H256945   1.718   1.556   5.708  0.7295 -0.9623  1.1524
11844TIP3   OH256946   4.911   4.733   1.222 -0.0734 -0.0381 -0.1193
11844TIP3    H156947   4.959   4.715   1.141  1.2841 -0.8550  0.8150
11844TIP3    H256948   4.962   4.801   1.266 -0.5695  0.1051  0.2422
11845TIP3   OH256949   0.610   4.019  13.148  0.0458  0.5045  0.4357
11845TIP3    H156950   0.575   4.050  13.064 -2.2481 -1.8407  0.3727
11845TIP3    H256951   0.696   3.983  13.127  0.5800  2.1644 -0.3791
11846TIP3   OH256952   4.488   6.342  14.885  0.0000  0.0103 -0.7154
11846TIP3    H156953   4.527   6.385  14.961 -0.1529  2.1551 -1.7800
11846TIP3    H256954   4.533   6.380  14.810 -0.7806 -1.0705 -1.7708
11847TIP3   OH256955   1.429   6.373  14.118 -0.1290 -0.5952  0.3172
11847TIP3    H156956   1.495   6.431  14.155 -0.5526  0.6192 -0.7488
11847TIP3    H256957   1.367   6.431  14.073 -2.1825 -1.6417  1.6100
11848TIP3   OH256958   3.208   0.700  15.085  0.3088 -0.6571 -0.0486
11848TIP3    H156959   3.127   0.670  15.044 -0.0124  1.2023 -0.8411
11848TIP3    H256960   3.276   0.643  15.048 -0.6887 -2.9772  1.4421
11849TIP3   OH256961   5.875   4.635  16.631 -0.1220  0.3759  0.2951
11849TIP3    H156962   5.953   4.592  16.595  1.3597  2.0994  1.3123
11849TIP3    H256963   5.834   4.567  16.685  1.7290 -0.0543  1.2492
11850TIP3   OH256964   0.869   2.486   2.405  0.2935 -0.0333  0.1343
11850TIP3    H156965   0.878   2.552   2.336 -0.3082  0.2575  0.3271
11850TIP3    H256966   0.931   2.514   2.473  0.2599  0.1618  0.0849
11851TIP3   OH256967   5.646   3.272  16.208  0.6042 -0.4113 -0.2414
11851TIP3    H156968   5.590   3.215  16.155 -1.3488  1.6986 -0.6234
11851TIP3    H256969   5.646   3.232  16.295 -2.2274 -0.1243 -0.0231
11852TIP3   OH256970   6.128   3.391  11.792  0.1164  0.3280  0.6289
11852TIP3    H156971   6.063   3.460  11.780  0.5881  0.4512 -1.6209
11852TIP3    H256972   6.212   3.438  11.798  0.2782  0.0338  0.7100
11853TIP3   OH256973   0.600   5.875   3.133 -0.6947 -0.0998 -0.5810
11853TIP3    H156974   0.507   5.885   3.152 -0.5162 -0.2577  0.4327
11853TIP3    H256975   0.644   5.905   3.212  0.1426  0.5062 -1.2565
11854TIP3   OH256976   0.919   4.927  14.783  0.5784 -0.4211  0.3144
11854TIP3    H156977   0.989   4.979  14.744  0.8045 -1.6536 -1.0128
11854TIP3    H256978   0.950   4.837  14.779 -1.3985 -1.1209 -1.1553
11855TIP3   OH256979   5.366   2.931  15.416  0.3517  0.3015 -0.2364
11855TIP3    H156980   5.292   2.902  15.362 -0.1314 -0.9316  1.0309
11855TIP3    H256981   5.346   2.898  15.503  2.1919  0.3376  0.2329
11856TIP3   OH256982   2.167   6.136   5.112 -0.4618 -0.0061  0.1897
11856TIP3    H156983   2.258   6.107   5.122 -0.2286  0.2853 -0.9022
11856TIP3    H256984   2.173   6.230   5.095 -1.0277  0.1679  0.9344
11857TIP3   OH256985   4.990   4.026  15.169  0.5145  0.2125 -0.1201
11857TIP3    H156986   5.077   4.018  15.209 -0.4550  1.2405  2.4576
11857TIP3    H256987   4.929   4.001  15.239 -1.3023  0.0065 -1.6830
11858TIP3   OH256988   0.902   4.112   0.479 -0.0891 -0.1503  0.1041
11858TIP3    H156989   0.806   4.120   0.478 -0.0538  0.4395 -0.8689
11858TIP3    H256990   0.921   4.049   0.410  0.2569  0.4198 -0.3320
11859TIP3   OH256991   6.663   3.466   5.301  0.1881  0.0043  0.7251
11859TIP3    H156992   6.621   3.387   5.267  0.0014 -0.0499  1.0759
11859TIP3    H256993   6.698   3.510   5.224 -1.2843  0.5065  0.3204
11860TIP3   OH256994   0.878   4.889   5.920  0.2116  0.0892 -0.0115
11860TIP3    H156995   0.857   4.872   6.012  1.0247 -1.3457 -0.0597
11860TIP3    H256996   0.920   4.974   5.921  1.2035 -0.3808  1.1188
11861TIP3   OH256997   3.480   1.091  11.481 -0.2600 -0.2166  0.0714
11861TIP3    H156998   3.391   1.057  11.491 -0.0249 -0.7043  0.5359
11861TIP3    H256999   3.490   1.152  11.554 -1.3865  2.4627 -1.8590
11862TIP3   OH257000   1.365   1.084   2.988 -0.4107 -0.5485 -0.3170
11862TIP3    H157001   1.429   1.055   2.923 -1.1833  0.2119 -1.4380
11862TIP3    H257002   1.329   1.166   2.953 -1.2034 -0.3738  0.8278
11863TIP3   OH257003   2.621   3.833  15.284  0.1277 -0.0839  0.3834
11863TIP3    H157004   2.600   3.843  15.192  0.1914 -1.3834  0.2103
11863TIP3    H257005   2.559   3.767  15.316  0.4477 -0.0319  1.1405
11864TIP3   OH257006   2.271   4.474  11.285  0.4867 -0.9639 -0.2320
11864TIP3    H157007   2.256   4.533  11.359 -0.5744 -0.3686 -0.8991
11864TIP3    H257008   2.274   4.531  11.209  0.6754 -1.6561 -0.7509
11865TIP3   OH257009   2.800   4.058   2.989 -0.0742  0.1704  0.0365
11865TIP3    H157010   2.814   4.140   2.942 -1.1863  0.2062 -0.2562
11865TIP3    H257011   2.824   3.989   2.926  0.2392  0.2564  0.0619
11866TIP3   OH257012   1.168   4.762  10.741 -0.2583  0.3462  0.0893
11866TIP3    H157013   1.158   4.742  10.648 -0.8395  0.0462  0.2078
11866TIP3    H257014   1.228   4.836  10.744 -0.1167  0.2566 -0.5173
11867TIP3   OH257015   6.473   3.691   3.836 -0.2242  0.2718  0.6949
11867TIP3    H157016   6.421   3.635   3.778  0.5913  0.9049 -0.7226
11867TIP3    H257017   6.456   3.780   3.803  0.6500  0.6008  1.1210
11868TIP3   OH257018   5.709   1.328  16.827  0.2796  0.0320  0.1309
11868TIP3    H157019   5.776   1.396  16.828 -1.4595  1.8396  0.3646
11868TIP3    H257020   5.661   1.340  16.908 -0.6746 -0.8526 -0.2823
11869TIP3   OH257021   4.011   1.782  15.223 -0.5642  0.2864 -0.3126
11869TIP3    H157022   4.035   1.690  15.213 -0.4649  0.1790  0.8057
11869TIP3    H257023   3.987   1.791  15.315 -1.0348  1.2762 -0.5152
11870TIP3   OH257024   5.817   0.768  15.131  0.2395 -0.1597  0.1749
11870TIP3    H157025   5.758   0.809  15.195  0.0697 -0.6726  0.3500
11870TIP3    H257026   5.862   0.842  15.091  0.2025  0.1876  0.7479
11871TIP3   OH257027   6.342   5.275  12.313  0.5720  0.1178  0.6082
11871TIP3    H157028   6.336   5.327  12.392  0.3237 -0.6447  1.1012
11871TIP3    H257029   6.358   5.339  12.243 -0.7912  0.9711  1.0337
11872TIP3   OH257030   4.236   1.490   4.021 -0.2490 -0.2849 -0.2421
11872TIP3    H157031   4.306   1.546   4.056  0.7448 -1.2524 -0.5885
11872TIP3    H257032   4.155   1.533   4.048  0.4738  0.7241  0.4309
11873TIP3   OH257033   1.354   0.681   2.126  0.7181  0.4008 -0.6177
11873TIP3    H157034   1.365   0.683   2.031  2.6208 -0.2064 -0.4479
11873TIP3    H257035   1.311   0.597   2.144  1.0651  0.1627 -0.8930
11874TIP3   OH257036   3.135   6.579   0.876 -0.2499 -0.0387 -0.5277
11874TIP3    H157037   3.074   6.641   0.836 -0.2152 -0.2315 -0.8804
11874TIP3    H257038   3.104   6.570   0.966 -2.1275 -1.8514 -1.2599
11875TIP3   OH257039   5.635   1.565   4.330 -0.0241  0.2094 -0.5863
11875TIP3    H157040   5.571   1.634   4.309  1.4520  1.8556  0.0366
11875TIP3    H257041   5.678   1.546   4.247  0.2460  0.7937 -0.5864
11876TIP3   OH257042   0.398   0.052   4.283 -0.1366  0.4719  0.0761
11876TIP3    H157043   0.471   0.038   4.343 -0.8612  1.8093  1.3144
11876TIP3    H257044   0.383  -0.034   4.244  0.6819 -0.3242  1.4336
11877TIP3   OH257045   1.747   0.839  11.970  0.2537  0.0316  0.1456
11877TIP3    H157046   1.699   0.796  12.041  1.3585 -0.5156  0.5847
11877TIP3    H257047   1.679   0.875  11.914 -0.7193 -1.6689  0.1482
11878TIP3   OH257048   3.911   2.294   4.188 -0.0514  0.1646  0.6123
11878TIP3    H157049   3.928   2.244   4.267  1.5364  2.4907  1.8519
11878TIP3    H257050   3.864   2.372   4.218 -0.7465  0.3916 -0.9549
11879TIP3   OH257051   4.224   5.871  16.255 -0.5960  0.2624  0.3514
11879TIP3    H157052   4.216   5.965  16.241  1.0160  0.2088 -1.2232
11879TIP3    H257053   4.317   5.857  16.274 -0.8616 -0.9870  0.8304
11880TIP3   OH257054   4.780   5.872  13.368  0.2785 -0.0184 -0.8020
11880TIP3    H157055   4.783   5.909  13.456  0.3828 -2.2112  0.1795
11880TIP3    H257056   4.864   5.898  13.329  0.3144  0.8066 -0.2089
11881TIP3   OH257057   5.074   2.390  11.349  0.5468  0.5557  0.7719
11881TIP3    H157058   5.124   2.419  11.273  0.1215 -2.2399 -0.6998
11881TIP3    H257059   5.130   2.326  11.393 -0.8356 -1.0825  0.2758
11882TIP3   OH257060   1.786   4.217   6.152  0.2572  0.3036  0.3231
11882TIP3    H157061   1.735   4.166   6.089  0.4147 -0.8679  1.1293
11882TIP3    H257062   1.747   4.305   6.148  0.8044  0.4992 -1.9912
11883TIP3   OH257063   6.496   3.972  16.271  0.1707 -0.1105 -0.0502
11883TIP3    H157064   6.524   4.012  16.353  0.7111 -0.2625 -0.1551
11883TIP3    H257065   6.505   3.878  16.285  2.9607 -0.0961 -1.1838
11884TIP3   OH257066   2.962   0.030   2.736  0.6009 -0.0303 -0.1454
11884TIP3    H157067   2.978  -0.064   2.735 -0.9409 -0.3395 -1.4100
11884TIP3    H257068   2.944   0.051   2.827 -0.5474 -1.2803 -0.0531
11885TIP3   OH257069   1.669   5.339  13.943 -0.2817  0.2678  0.4013
11885TIP3    H157070   1.746   5.339  13.886 -1.5058 -1.3831 -1.3979
11885TIP3    H257071   1.638   5.430  13.941  0.5295  0.5404 -0.4333
11886TIP3   OH257072   2.163   0.830  14.697 -0.5328 -0.8316  0.1354
11886TIP3    H157073   2.121   0.796  14.776  0.2571 -0.0684  0.9091
11886TIP3    H257074   2.218   0.902  14.728 -1.8031  0.8960 -1.3821
11887TIP3   OH257075   6.482   4.825   4.295 -0.4594 -0.4116  0.1081
11887TIP3    H157076   6.475   4.917   4.320  1.4562 -0.6799  1.8920
11887TIP3    H257077   6.495   4.779   4.378  0.4824 -2.0749 -0.9055
11888TIP3   OH257078   1.266   6.676   4.676  0.4615 -0.1858 -0.0825
11888TIP3    H157079   1.240   6.759   4.715 -1.2098 -1.1821  1.0203
11888TIP3    H257080   1.328   6.639   4.738  0.4908 -0.1988 -0.1193
11889TIP3   OH257081   1.775   1.995  11.645 -0.1156 -0.0968  0.4628
11889TIP3    H157082   1.735   2.010  11.731  0.0111 -0.6333  0.6186
11889TIP3    H257083   1.823   1.913  11.655 -0.0129 -0.1058 -0.0926
11890TIP3   OH257084   2.071   2.414   5.114 -0.4694  0.1918 -0.2769
11890TIP3    H157085   2.114   2.349   5.169  1.0980  0.6500 -0.9049
11890TIP3    H257086   1.978   2.395   5.123 -0.1359 -1.0956  0.8208
11891TIP3   OH257087   1.390   4.565   4.945 -0.2240 -0.3776 -0.6199
11891TIP3    H157088   1.391   4.473   4.916 -1.1401 -0.5384 -0.1884
11891TIP3    H257089   1.396   4.616   4.865  1.0754 -0.7979 -0.8209
11892TIP3   OH257090   6.113   2.404  16.133 -0.2747 -0.0206  0.4715
11892TIP3    H157091   6.202   2.438  16.132 -0.3809  0.2624 -0.2393
11892TIP3    H257092   6.061   2.471  16.090 -0.3751 -1.3179 -1.5873
11893TIP3   OH257093   0.370   2.506  14.046 -0.4860 -0.1105 -0.1821
11893TIP3    H157094   0.296   2.501  13.986 -1.0803 -0.7885  0.5799
11893TIP3    H257095   0.332   2.527  14.131  0.1671 -0.6081  0.2518
11894TIP3   OH257096   1.730   2.945   3.811  0.2019  0.0556  0.1409
11894TIP3    H157097   1.649   2.915   3.771  0.1583 -0.6496  0.7275
11894TIP3    H257098   1.707   2.962   3.903  0.5394  0.6014  0.1317
11895TIP3   OH257099   1.405   2.493  16.809 -1.0139  0.5945  0.1705
11895TIP3    H157100   1.353   2.574  16.807  0.1765  1.4879  1.9608
11895TIP3    H257101   1.432   2.485  16.901  0.5012 -0.8041 -0.3501
11896TIP3   OH257102   1.447   0.907   0.970 -0.1114  0.4158 -0.1444
11896TIP3    H157103   1.439   0.814   0.949 -0.1971  0.7606 -1.7635
11896TIP3    H257104   1.365   0.930   1.013 -1.1615  0.2989 -2.0264
11897TIP3   OH257105   5.632   4.396  13.642 -0.0866  0.1615  0.4392
11897TIP3    H157106   5.543   4.360  13.642  0.3290 -1.0444  2.2185
11897TIP3    H257107   5.651   4.415  13.551 -0.8132 -3.1136 -0.5398
11898TIP3   OH257108   3.338   3.263  10.782 -0.5947 -0.1499 -0.2450
11898TIP3    H157109   3.307   3.207  10.710 -2.5273  1.1615 -0.4984
11898TIP3    H257110   3.368   3.343  10.739  2.3368 -0.9205  0.0976
11899TIP3   OH257111   2.596   1.884  13.690 -0.1559 -0.4933  0.2002
11899TIP3    H157112   2.550   1.964  13.663 -0.4048 -0.5211  0.5491
11899TIP3    H257113   2.603   1.891  13.785  1.2834 -0.0930  0.0885
11900TIP3   OH257114   0.168   6.309  15.806 -0.1634  0.9263 -0.1292
11900TIP3    H157115   0.253   6.348  15.823 -0.0930  1.3034 -1.2564
11900TIP3    H257116   0.145   6.338  15.717 -0.6200 -0.6717 -0.5724
11901TIP3   OH257117   4.075   5.906   0.920  0.7480  0.2316 -0.3799
11901TIP3    H157118   3.999   5.916   0.977  1.2401  0.4036  0.2511
11901TIP3    H257119   4.043   5.934   0.834  0.2546  0.8619 -0.0020
11902TIP3   OH257120   3.234   0.743   1.094 -0.0316  0.5365 -0.2317
11902TIP3    H157121   3.277   0.811   1.145  1.0659 -0.5363  0.3264
11902TIP3    H257122   3.151   0.728   1.139  1.0606 -0.6414  1.5335
11903TIP3   OH257123   2.604   0.040   2.941  0.4928  0.2427 -0.1125
11903TIP3    H157124   2.555   0.123   2.946  0.4058  0.2323 -0.6982
11903TIP3    H257125   2.696   0.066   2.945  0.4425  0.2750  0.8476
11904TIP3   OH257126   3.890   6.149  13.791 -0.4503 -0.2465 -0.3420
11904TIP3    H157127   3.842   6.070  13.815  0.7109 -0.8359  0.1443
11904TIP3    H257128   3.947   6.166  13.866  1.7808 -0.9356 -1.7716
11905TIP3   OH257129   3.032   1.233  11.039  0.4457 -0.1280  0.6592
11905TIP3    H157130   3.124   1.214  11.061  1.5618  0.1107 -3.0567
11905TIP3    H257131   3.035   1.320  10.999 -1.0640 -0.7608 -0.9684
11906TIP3   OH257132   4.567   2.966  16.575 -0.6795 -0.6857  0.2040
11906TIP3    H157133   4.475   2.976  16.551 -1.4814 -1.2144  2.7188
11906TIP3    H257134   4.582   3.037  16.638  0.5841 -0.7402 -0.0171
11907TIP3   OH257135   2.195   3.916   3.721 -0.2613 -0.1719  0.2803
11907TIP3    H157136   2.187   3.912   3.626 -0.4753  0.7428  0.2478
11907TIP3    H257137   2.146   3.841   3.753  0.0652 -0.6601 -0.3387
11908TIP3   OH257138   1.344   4.496  12.487  0.0178 -0.2400  0.7687
11908TIP3    H157139   1.334   4.515  12.580 -1.3795 -0.3872  0.6716
11908TIP3    H257140   1.307   4.573  12.443  0.9912 -0.0125  0.3203
11909TIP3   OH257141   0.589   1.016  16.777  0.2048 -0.2935  0.5671
11909TIP3    H157142   0.632   1.011  16.691  2.0313  0.8664  1.3498
11909TIP3    H257143   0.516   1.076  16.764  2.1247  2.1767  0.3751
11910TIP3   OH257144   5.383   1.518  11.879 -0.7692 -0.0522  0.4242
11910TIP3    H157145   5.308   1.551  11.830 -0.3918  0.3730  0.1280
11910TIP3    H257146   5.360   1.426  11.898 -1.7241  0.3081  1.0860
11911TIP3   OH257147   3.116   0.423   4.840  0.3935  0.8891  0.0022
11911TIP3    H157148   3.051   0.475   4.886  1.4325  1.1926  1.1783
11911TIP3    H257149   3.139   0.353   4.900 -0.2389 -0.3646 -1.1660
11912TIP3   OH257150   1.763   6.714   4.076  0.2460  0.3451 -0.5630
11912TIP3    H157151   1.689   6.661   4.107 -0.8005  1.8375 -0.4183
11912TIP3    H257152   1.743   6.730   3.983  1.0411 -0.2778 -0.8523
11913TIP3   OH257153   5.257   3.947  13.683  0.0499  0.1491  0.1045
11913TIP3    H157154   5.294   3.939  13.771  0.6214 -0.6839 -0.2020
11913TIP3    H257155   5.261   3.859  13.646 -1.2341  0.2623 -0.3536
11914TIP3   OH257156   2.693   4.971   5.118  0.1083  0.3834 -0.5345
11914TIP3    H157157   2.745   4.913   5.064 -0.2930 -0.9360  0.4493
11914TIP3    H257158   2.757   5.018   5.171  0.3685 -0.5486  0.0017
11915TIP3   OH257159   1.359   4.904   1.764  0.5582  0.1796  0.5229
11915TIP3    H157160   1.450   4.911   1.735  1.0395  2.4843  2.3722
11915TIP3    H257161   1.339   4.810   1.755  2.7522 -0.2467 -0.8347
11916TIP3   OH257162   2.603   1.899  15.012  0.2974 -0.2357 -0.6777
11916TIP3    H157163   2.559   1.892  14.927 -0.9002 -2.3909  0.0485
11916TIP3    H257164   2.694   1.921  14.989 -0.2299  0.2871 -2.4471
11917TIP3   OH257165   3.011   3.182   6.053  0.1211 -0.4173  0.0235
11917TIP3    H157166   2.973   3.232   5.981  0.7855 -0.0307 -0.0731
11917TIP3    H257167   2.936   3.149   6.103 -0.3433 -0.6515 -0.8145
11918TIP3   OH257168   5.678   4.233  15.192 -0.2870 -0.1905 -0.1842
11918TIP3    H157169   5.685   4.328  15.184 -0.4684  0.0725  2.0737
11918TIP3    H257170   5.762   4.205  15.229 -0.7237 -0.7049  0.4558
11919TIP3   OH257171   0.888   4.599   0.240 -0.2225 -0.4328 -0.3252
11919TIP3    H157172   0.939   4.540   0.295  1.2021  0.1857 -0.9217
11919TIP3    H257173   0.797   4.571   0.252  0.3859 -2.7125 -0.5756
11920TIP3   OH257174   0.510   1.195   4.937  0.2387  0.5806 -0.5255
11920TIP3    H157175   0.573   1.249   4.889  0.9806 -0.4106 -0.7003
11920TIP3    H257176   0.427   1.242   4.930  0.6739  1.2372 -1.4325
11921TIP3   OH257177   3.925   4.207  12.983 -0.0565 -0.1375  0.4288
11921TIP3    H157178   3.887   4.209  12.895 -0.6623 -1.5163  0.6178
11921TIP3    H257179   3.865   4.260  13.036 -0.0025  0.2376  0.1141
11922TIP3   OH257180   5.523   1.453  12.508 -0.1884  0.5597  0.5397
11922TIP3    H157181   5.545   1.371  12.552 -1.8258  0.1720  0.7036
11922TIP3    H257182   5.539   1.521  12.574  0.7971  0.3489  0.5279
11923TIP3   OH257183   0.033   2.096   0.913 -0.5993 -0.3627 -0.0948
11923TIP3    H157184  -0.012   2.175   0.941 -1.1235 -0.6455 -0.1244
11923TIP3    H257185   0.109   2.089   0.971  0.4301  1.0903 -1.2001
11924TIP3   OH257186   3.170   1.239   0.420  0.0655 -0.3301 -0.2192
11924TIP3    H157187   3.235   1.179   0.383 -0.1461 -1.8728  1.7727
11924TIP3    H257188   3.086   1.200   0.396 -0.0829 -0.3589  0.3381
11925TIP3   OH257189   6.229   4.657  13.329  0.0494  0.3786 -1.0067
11925TIP3    H157190   6.228   4.563  13.310 -1.1062  0.2507 -0.4025
11925TIP3    H257191   6.154   4.692  13.281  1.2470  1.2391 -2.3130
11926TIP3   OH257192   2.093   5.904   5.791 -0.1011 -0.2204 -0.0074
11926TIP3    H157193   2.035   5.871   5.723 -1.2219 -0.2097  0.9291
11926TIP3    H257194   2.089   5.839   5.861 -0.9379  0.9787  1.0979
11927TIP3   OH257195   3.423   1.483  13.109  0.3213  0.2055  0.7223
11927TIP3    H157196   3.482   1.441  13.046 -0.1777 -0.7234  0.8578
11927TIP3    H257197   3.337   1.448  13.089  0.5465 -2.5959  3.8541
11928TIP3   OH257198   3.757   5.436   2.115 -0.1653 -0.2237 -0.1584
11928TIP3    H157199   3.769   5.498   2.187 -2.7191 -1.4606  1.4662
11928TIP3    H257200   3.724   5.490   2.043  4.2987  1.3814 -1.2900
11929TIP3   OH257201   2.524   4.695   4.900  0.2882 -0.8386  0.0842
11929TIP3    H157202   2.471   4.770   4.872  0.3366 -0.5081  0.8595
11929TIP3    H257203   2.462   4.623   4.908 -0.3567 -0.1223  2.3508
11930TIP3   OH257204   3.319   1.725   1.471  0.4839  0.1766 -0.8477
11930TIP3    H157205   3.373   1.787   1.422  0.5654  0.7370 -0.0719
11930TIP3    H257206   3.378   1.653   1.492  2.2121  2.4351  3.3122
11931TIP3   OH257207   2.853   1.425  16.881  0.3165 -0.3485 -0.3055
11931TIP3    H157208   2.947   1.437  16.868  0.0588  2.8671 -0.1411
11931TIP3    H257209   2.832   1.347  16.831  2.9774 -0.8550 -0.7997
11932TIP3   OH257210   6.337   0.931   0.385  0.1053  0.3316 -0.1324
11932TIP3    H157211   6.303   0.849   0.421  0.0861  1.5236  2.8375
11932TIP3    H257212   6.367   0.908   0.297 -2.7268 -2.1239 -0.5971
11933TIP3   OH257213   4.859   4.577   0.925 -0.1040  0.1321  0.2805
11933TIP3    H157214   4.844   4.672   0.919 -1.5276 -0.1696 -2.5330
11933TIP3    H257215   4.944   4.563   0.883 -0.3469  0.0903 -0.2069
11934TIP3   OH257216   6.670   4.631  14.012  0.6625  0.3847  0.0936
11934TIP3    H157217   6.652   4.577  14.089 -0.0881  0.6950  0.1527
11934TIP3    H257218   6.763   4.652  14.018  0.3842  1.3483  1.5461
11935TIP3   OH257219   1.265   1.210  11.636 -0.3585 -0.0150  0.5042
11935TIP3    H157220   1.334   1.155  11.598  1.4778  2.3020  0.2238
11935TIP3    H257221   1.197   1.148  11.662  1.0307 -2.2803 -0.8436
11936TIP3   OH257222   0.260   4.887   1.296 -0.0385  0.8759  0.2888
11936TIP3    H157223   0.293   4.899   1.207  1.8683 -0.3338  0.7750
11936TIP3    H257224   0.224   4.973   1.320 -2.5942  0.6819 -2.3643
11937TIP3   OH257225   4.725   6.033   2.101  0.1860  0.0654  1.1005
11937TIP3    H157226   4.691   5.992   2.021 -0.3116  0.4187  1.1255
11937TIP3    H257227   4.710   6.127   2.088  1.7700  0.3051  0.8288
11938TIP3   OH257228   5.483   3.526  15.224  0.3342 -0.1094  0.5511
11938TIP3    H157229   5.560   3.540  15.281  0.0435  0.6568  0.7800
11938TIP3    H257230   5.409   3.555  15.278 -0.1451 -1.0324  0.4032
11939TIP3   OH257231   4.613   1.031  14.766  1.0988  0.0073  0.6169
11939TIP3    H157232   4.612   1.120  14.801  1.1309  1.9380 -3.7034
11939TIP3    H257233   4.544   1.030  14.700 -0.1441 -3.8579  1.7192
11940TIP3   OH257234   0.511   4.042   3.415  0.2979 -0.6624  0.0733
11940TIP3    H157235   0.592   4.065   3.369 -0.8911  0.2999 -1.6481
11940TIP3    H257236   0.483   4.124   3.456  1.6579 -1.6065  3.2713
11941TIP3   OH257237   6.304   1.790  15.997  0.2361  0.1204  0.0936
11941TIP3    H157238   6.316   1.726  15.927  2.3411 -0.5036  0.9488
11941TIP3    H257239   6.393   1.808  16.029 -0.2952  3.1755  0.1856
11942TIP3   OH257240   6.072   0.962  15.379  0.8638 -0.2031 -0.3568
11942TIP3    H157241   6.064   0.869  15.395  2.7164 -0.2857  0.3764
11942TIP3    H257242   5.989   1.000  15.408 -0.2283 -1.6878 -1.4358
11943TIP3   OH257243   4.385   3.237   5.520 -0.0053 -0.7431 -0.7404
11943TIP3    H157244   4.472   3.249   5.558 -0.0891 -0.3244 -0.6786
11943TIP3    H257245   4.366   3.144   5.533 -0.5846 -0.3865  1.5013
11944TIP3   OH257246   5.944   1.944  14.850  0.4493  0.5146 -0.3777
11944TIP3    H157247   5.906   1.860  14.878 -0.2544  1.5209  1.9528
11944TIP3    H257248   5.972   1.928  14.760 -1.5284 -1.6073 -0.7362
11945TIP3   OH257249   5.988   1.920  16.638 -0.1901  0.2601  0.4704
11945TIP3    H157250   5.905   1.944  16.679 -0.0006 -0.9421  1.6322
11945TIP3    H257251   6.036   2.003  16.629 -0.3610  0.6322  2.4672
11946TIP3   OH257252   6.537   0.218   2.813 -0.0803  0.0895 -0.4562
11946TIP3    H157253   6.539   0.198   2.907 -0.2001 -0.8561 -0.6401
11946TIP3    H257254   6.488   0.300   2.807 -1.6194 -0.7269  0.1911
11947TIP3   OH257255   0.612   2.772  13.164 -0.4533 -0.1055  0.1681
11947TIP3    H157256   0.558   2.693  13.154 -0.0968 -0.2390 -0.8501
11947TIP3    H257257   0.701   2.738  13.174 -0.1940  0.1662 -1.0551
11948TIP3   OH257258   0.076   6.646  17.269  0.0255 -0.1741  0.0342
11948TIP3    H157259   0.121   6.594  17.202 -0.4624 -0.1561 -0.3110
11948TIP3    H257260   0.138   6.650  17.342  1.8394  2.2706 -1.4721
11949TIP3   OH257261   1.001   3.288  11.498 -0.9068 -0.3177  0.0359
11949TIP3    H157262   0.982   3.228  11.426 -0.7441 -2.3153  1.5922
11949TIP3    H257263   1.049   3.360  11.457 -1.5627 -0.9597 -1.9714
11950TIP3   OH257264   1.940   2.896  12.674 -0.1854 -0.1284  0.2964
11950TIP3    H157265   2.013   2.903  12.735 -1.6106 -1.9798  2.3329
11950TIP3    H257266   1.920   2.803  12.670 -0.2327 -0.1230 -3.0303
11951TIP3   OH257267   5.035   1.394  11.900  0.0011 -0.0361  0.2342
11951TIP3    H157268   5.105   1.337  11.867 -0.8503 -1.0656  0.1519
11951TIP3    H257269   4.994   1.429  11.822  0.1534  0.2342  0.2752
11952TIP3   OH257270   5.289   6.585   4.803  0.1821  0.7577  0.2764
11952TIP3    H157271   5.255   6.665   4.764  2.2278  1.5603  0.0212
11952TIP3    H257272   5.356   6.555   4.742  0.3214 -0.4616  0.9917
11953TIP3   OH257273   0.503   3.549  13.576  0.2799  0.7725  0.3350
11953TIP3    H157274   0.426   3.497  13.595  1.1851  0.0398  2.2547
11953TIP3    H257275   0.491   3.630  13.625  0.7937  0.5918  0.7645
11954TIP3   OH257276   5.205   2.191   2.050  0.2485 -0.5795 -0.2343
11954TIP3    H157277   5.208   2.123   2.117 -0.1648 -2.3367 -1.8979
11954TIP3    H257278   5.140   2.160   1.987  0.6781  0.9351 -1.5053
11955TIP3   OH257279   3.035   1.063  13.824 -0.4749  0.1393  0.0556
11955TIP3    H157280   3.061   1.154  13.837 -0.3738  0.2804 -1.0429
11955TIP3    H257281   3.100   1.027  13.764  0.1849 -1.0220  1.3818
11956TIP3   OH257282   1.329   3.596  15.685  0.5313 -0.3619 -0.0671
11956TIP3    H157283   1.397   3.657  15.661  0.6324 -0.3313  0.2934
11956TIP3    H257284   1.366   3.509  15.667 -0.2722 -0.2964 -2.3433
11957TIP3   OH257285   3.022   6.693  16.079  0.8650 -0.2712 -0.5092
11957TIP3    H157286   3.018   6.639  16.000  2.0179  0.9580 -1.4478
11957TIP3    H257287   2.938   6.740  16.080  0.9874 -0.0410 -1.1789
11958TIP3   OH257288   2.564   5.824   3.083 -0.1773  0.4012  0.1449
11958TIP3    H157289   2.650   5.783   3.084 -1.4079 -2.3932 -0.6914
11958TIP3    H257290   2.552   5.855   3.173  1.2374 -0.1163  0.5414
11959TIP3   OH257291   0.116   4.265  14.583 -0.3209 -0.1290  0.8077
11959TIP3    H157292   0.145   4.312  14.505 -0.3679 -1.8200 -0.2741
11959TIP3    H257293   0.194   4.260  14.638  0.4521 -1.2165 -0.3294
11960TIP3   OH257294   4.772   4.019   4.520 -0.0617  0.6566  0.0311
11960TIP3    H157295   4.865   4.001   4.535  0.5369  3.3128  0.0073
11960TIP3    H257296   4.757   3.992   4.429  1.2398  1.9809 -0.6211
11961TIP3   OH257297   1.080   2.959   4.642  0.3492  0.7935  0.3180
11961TIP3    H157298   1.031   2.985   4.564  1.8371  2.1480 -0.2272
11961TIP3    H257299   1.158   3.015   4.642  0.3428  0.9437  2.8635
11962TIP3   OH257300   2.002   1.247   4.641 -0.2685 -0.0292  0.4466
11962TIP3    H157301   2.078   1.200   4.606  0.5092  0.9736  0.7204
11962TIP3    H257302   2.039   1.328   4.677 -1.2265 -0.3569  2.2791
11963TIP3   OH257303   3.050   1.390  11.853 -0.1394  0.3773  0.4118
11963TIP3    H157304   3.035   1.475  11.812  0.2153  1.6836  2.7955
11963TIP3    H257305   3.129   1.403  11.906 -0.5780 -1.1667  1.4987
11964TIP3   OH257306   3.983   0.629   3.384 -0.2783 -0.3959 -0.3562
11964TIP3    H157307   3.905   0.680   3.364 -0.5049 -0.9424 -0.8716
11964TIP3    H257308   3.982   0.557   3.322  0.4654 -0.5910 -0.1536
11965TIP3   OH257309   5.849   4.340  13.271  0.0105  0.1086  0.7527
11965TIP3    H157310   5.768   4.384  13.299 -0.6669  0.1946 -1.1858
11965TIP3    H257311   5.834   4.247  13.291 -1.4458 -0.1788 -1.3469
11966TIP3   OH257312   2.416   1.300  15.564 -0.2447 -0.4003 -0.2768
11966TIP3    H157313   2.419   1.211  15.531  0.3370 -0.1901 -0.8255
11966TIP3    H257314   2.487   1.345  15.518 -2.2576  1.0772 -2.1546
11967TIP3   OH257315   4.891   5.575  12.425 -0.1050 -0.4023  0.3408
11967TIP3    H157316   4.972   5.593  12.473 -1.6154 -0.2211  3.0378
11967TIP3    H257317   4.843   5.658  12.427  0.0166 -0.1842 -2.1891
11968TIP3   OH257318   4.883   6.015   4.573  0.8185 -0.0813  0.4294
11968TIP3    H157319   4.851   6.000   4.662 -0.4750  0.1736  0.0205
11968TIP3    H257320   4.945   6.088   4.582  1.4998 -0.7368  1.2677
11969TIP3   OH257321   5.605   6.034   1.286  0.5082  0.4283 -0.2005
11969TIP3    H157322   5.671   5.967   1.273  1.3542  1.5278 -1.8255
11969TIP3    H257323   5.646   6.098   1.344  0.1435  0.1790  0.3499
11970TIP3   OH257324   0.442   4.521   0.024 -0.1322  0.2894  0.1110
11970TIP3    H157325   0.490   4.492   0.101  1.7764  0.9614 -0.7749
11970TIP3    H257326   0.358   4.551   0.058  0.7995  0.8991  1.9867
11971TIP3   OH257327   1.043   6.040  12.428 -0.1885  0.7172 -0.2624
11971TIP3    H157328   0.958   5.999  12.414  0.2681 -0.3593 -0.0240
11971TIP3    H257329   1.023   6.128  12.459 -1.2154  0.4096 -0.0152
11972TIP3   OH257330   4.278   1.697   1.455  0.1556 -0.1753 -0.7547
11972TIP3    H157331   4.227   1.618   1.439 -0.6902  0.6837 -2.6842
11972TIP3    H257332   4.363   1.665   1.485  0.1334 -1.8875 -2.3233
11973TIP3   OH257333   6.376   2.881   1.781  0.5504 -0.1111  0.0754
11973TIP3    H157334   6.333   2.865   1.697  1.2867 -1.0199 -0.1545
11973TIP3    H257335   6.315   2.936   1.830 -0.3817 -0.4873 -0.6318
11974TIP3   OH257336   3.387   3.147   0.614  0.1730 -0.3024  0.8076
11974TIP3    H157337   3.442   3.071   0.631 -0.4332 -0.8041  0.5885
11974TIP3    H257338   3.342   3.164   0.697  0.0586 -0.3983  0.7667
11975TIP3   OH257339   0.259   0.987   0.707  0.2222  0.1202 -0.5149
11975TIP3    H157340   0.204   1.018   0.635 -0.1279  0.6116 -0.0489
11975TIP3    H257341   0.212   0.911   0.742 -1.7842  2.2494  1.7739
11976TIP3   OH257342   3.175   0.215   5.007 -0.1988 -0.2702 -0.0335
11976TIP3    H157343   3.128   0.219   5.090 -0.3847 -1.3378 -0.0664
11976TIP3    H257344   3.198   0.123   4.997 -1.1789 -0.3765 -1.7001
11977TIP3   OH257345   2.068   2.632   4.716 -0.2919  0.0897 -0.3445
11977TIP3    H157346   2.010   2.593   4.651  0.1771  0.6160 -1.0985
11977TIP3    H257347   2.014   2.639   4.795 -0.1895 -2.7270  0.0789
11978TIP3   OH257348   3.674   6.277  14.021  0.3794  0.0527  0.6127
11978TIP3    H157349   3.618   6.295  13.945  0.6739 -0.2257  0.3229
11978TIP3    H257350   3.673   6.181  14.029 -1.5129  0.1577  2.3943
11979TIP3   OH257351   4.043   0.371   2.705 -0.6496  0.4381 -0.1780
11979TIP3    H157352   3.967   0.315   2.722 -2.0466  1.2851 -3.0337
11979TIP3    H257353   4.083   0.335   2.626 -0.0872  1.9696 -0.6313
11980TIP3   OH257354   4.150   5.592  11.439 -0.1573 -0.4093  0.0062
11980TIP3    H157355   4.090   5.525  11.472  1.4334 -0.9982  1.8810
11980TIP3    H257356   4.217   5.542  11.392 -1.7301  0.3304 -3.2852
11981TIP3   OH257357   5.158   1.781  14.539 -0.1996 -0.0504  0.0317
11981TIP3    H157358   5.214   1.764  14.463  3.5871  2.8776  1.8579
11981TIP3    H257359   5.188   1.720  14.606 -0.6065  0.2057  0.4601
11982TIP3   OH257360   6.452   5.886  17.232 -0.0151  0.0182  0.0517
11982TIP3    H157361   6.480   5.827  17.302 -0.1616 -0.4364 -0.2671
11982TIP3    H257362   6.533   5.919  17.194  0.0635  0.7238  0.8107
11983TIP3   OH257363   5.983   2.166   1.316 -0.0488  0.5111  0.6729
11983TIP3    H157364   6.003   2.231   1.249 -1.1495  1.4217  1.1925
11983TIP3    H257365   5.948   2.217   1.389  1.0489 -0.4585  1.9318
11984TIP3   OH257366   4.380   3.108   2.722  0.1057  0.0677  0.2936
11984TIP3    H157367   4.342   3.055   2.652  1.5434  0.1554 -0.6061
11984TIP3    H257368   4.418   3.184   2.677  1.4415 -0.0940  1.0801
11985TIP3   OH257369   4.814   6.019   5.124 -0.2522 -0.1546 -0.3349
11985TIP3    H157370   4.858   5.935   5.115 -0.2660 -0.2554  0.4122
11985TIP3    H257371   4.826   6.042   5.217 -0.6980  0.4130 -0.4119
11986TIP3   OH257372   2.885   5.013  12.482  0.5547  0.5453 -0.2618
11986TIP3    H157373   2.963   5.064  12.460 -0.3110  1.7457 -0.6625
11986TIP3    H257374   2.826   5.026  12.407  0.8790 -2.3565 -1.1486
11987TIP3   OH257375   6.519   2.183   0.716  0.2688 -0.1078  0.1029
11987TIP3    H157376   6.587   2.182   0.649 -1.5358 -0.5961 -1.7929
11987TIP3    H257377   6.517   2.094   0.750 -0.2496 -0.4064 -0.7089
11988TIP3   OH257378   4.758   5.436   0.103 -0.1108  0.0796 -0.5192
11988TIP3    H157379   4.841   5.431   0.056  0.0917 -0.0224 -0.1550
11988TIP3    H257380   4.763   5.366   0.168 -0.4513  0.1220 -0.4441
11989TIP3   OH257381   4.537   1.240   4.498  0.1902  0.0516 -0.1395
11989TIP3    H157382   4.630   1.216   4.495  0.1715  0.0547 -0.8199
11989TIP3    H257383   4.531   1.317   4.442 -0.2384  0.0158 -0.1421
11990TIP3   OH257384   6.361   4.766   5.638 -0.1104 -0.6911 -0.5742
11990TIP3    H157385   6.300   4.755   5.566 -0.1225  1.5308 -0.9908
11990TIP3    H257386   6.388   4.858   5.632  1.5012 -1.0091  0.9872
11991TIP3   OH257387   1.406   1.400  16.442  0.0310  0.3354  0.4795
11991TIP3    H157388   1.448   1.453  16.511  3.0548  0.2516 -1.1270
11991TIP3    H257389   1.331   1.360  16.485 -0.5028  3.3248  2.6572
11992TIP3   OH257390   0.991   0.465  13.382 -0.1346 -0.3757 -0.1043
11992TIP3    H157391   0.972   0.377  13.417 -0.1970 -0.5194 -0.4940
11992TIP3    H257392   0.929   0.476  13.311  1.0529 -0.7472 -1.2342
11993TIP3   OH257393   4.464   2.133  12.214  0.1911 -0.1453 -0.2875
11993TIP3    H157394   4.488   2.215  12.172 -0.1166 -0.4625 -1.1028
11993TIP3    H257395   4.537   2.113  12.273  0.2401  0.7317 -0.0449
11994TIP3   OH257396   6.245   1.666   0.584 -0.0059 -0.2113  0.0082
11994TIP3    H157397   6.179   1.664   0.515  0.3709  0.8363 -0.4124
11994TIP3    H257398   6.237   1.754   0.622  1.2585 -0.0011 -0.1718
11995TIP3   OH257399   3.191   0.366  14.383 -0.0958 -0.0690  1.1310
11995TIP3    H157400   3.179   0.461  14.377  1.2437  0.1592  1.8080
11995TIP3    H257401   3.118   0.330  14.331 -1.0543  1.2935  1.4634
11996TIP3   OH257402   2.272   3.125  12.827  0.2981  1.0604 -0.1523
11996TIP3    H157403   2.237   3.214  12.832 -0.9045  0.7045 -1.5125
11996TIP3    H257404   2.306   3.118  12.738  0.7668  0.2754  0.0793
11997TIP3   OH257405   0.291   6.463   0.209  0.0395  0.3496  0.5839
11997TIP3    H157406   0.311   6.453   0.116  0.8700  0.7252  0.7111
11997TIP3    H257407   0.359   6.412   0.253  0.0724  0.7555  1.0040
11998TIP3   OH257408   1.002   2.314  15.790  0.0784  0.6066 -0.2146
11998TIP3    H157409   1.063   2.267  15.734  0.2425 -0.2822  0.6846
11998TIP3    H257410   0.936   2.349  15.730  0.8312  0.5983 -1.0650
11999TIP3   OH257411   2.018   4.007   2.019 -0.1046  0.4519  0.0629
11999TIP3    H157412   1.985   4.094   1.998  0.5693  0.7987  0.4280
11999TIP3    H257413   1.939   3.952   2.025 -0.5579  1.1147  0.2270
12000TIP3   OH257414   4.378   3.055   5.746 -0.6216 -0.1248 -0.0651
12000TIP3    H157415   4.405   2.982   5.803 -1.2913  1.0860  1.9190
12000TIP3    H257416   4.447   3.120   5.756 -1.9201  1.1125  1.4087
12001TIP3   OH257417   5.851   1.468   0.193 -0.1278  0.3223  0.8574
12001TIP3    H157418   5.896   1.383   0.190  1.2663  1.0602 -0.3701
12001TIP3    H257419   5.766   1.448   0.231 -0.6646 -2.0349 -1.2504
12002TIP3   OH257420   5.903   0.123   5.084  0.4663  0.4209  0.1226
12002TIP3    H157421   5.974   0.121   5.021  0.4436 -0.4227  0.1182
12002TIP3    H257422   5.940   0.166   5.161  0.4966  1.4480 -0.4385
12003TIP3   OH257423   1.326   1.296   4.833  0.3506 -0.1155  0.4000
12003TIP3    H157424   1.381   1.218   4.842  1.2732  0.2996 -1.3244
12003TIP3    H257425   1.299   1.316   4.923  1.0322 -1.7265  1.0152
12004TIP3   OH257426   1.358   4.846   3.353  0.5891  0.2843 -0.0747
12004TIP3    H157427   1.422   4.812   3.415 -1.3262 -0.9402  1.3644
12004TIP3    H257428   1.294   4.892   3.408 -0.6781 -0.0479 -1.2136
12005TIP3   OH257429   5.238   4.764   5.497 -0.3549 -0.4103 -0.5977
12005TIP3    H157430   5.187   4.686   5.520  2.1751 -1.7025  1.0634
12005TIP3    H257431   5.253   4.808   5.581  0.3252  0.5143 -1.1905
12006TIP3   OH257432   3.364   1.428   5.389 -0.0130 -0.0681  0.1119
12006TIP3    H157433   3.335   1.519   5.399  1.3213  0.6428 -1.9271
12006TIP3    H257434   3.286   1.382   5.359 -0.7879  0.2922  1.4619
12007TIP3   OH257435   5.035   5.718  16.938  0.6108  0.3341  0.0914
12007TIP3    H157436   4.983   5.648  16.899  1.2882 -0.5968  0.8244
12007TIP3    H257437   5.093   5.746  16.868 -0.0238  0.5351 -0.3637
12008TIP3   OH257438   4.473   6.170   2.306  0.2915  0.6764 -0.1039
12008TIP3    H157439   4.383   6.204   2.308  0.2266  0.7894 -2.2630
12008TIP3    H257440   4.513   6.214   2.231  1.7785 -0.3162  0.0673
12009TIP3   OH257441   5.799   4.905  16.832  0.3682  0.0564  0.6745
12009TIP3    H157442   5.760   4.888  16.746  0.6269 -0.1573  0.5973
12009TIP3    H257443   5.737   4.868  16.894  0.0328  0.4822  0.5929
12010TIP3   OH257444   3.540   5.035   3.816 -0.3959  0.3141  0.2358
12010TIP3    H157445   3.507   5.068   3.899  1.2663  2.7683  0.0377
12010TIP3    H257446   3.501   5.093   3.750  1.7291  1.3301 -0.2296
12011TIP3   OH257447   3.185   1.178   3.643  0.2084 -0.2536 -0.2597
12011TIP3    H157448   3.185   1.272   3.627  0.4764 -0.4836 -1.7397
12011TIP3    H257449   3.131   1.141   3.573  0.3197 -1.2330  0.1466
12012TIP3   OH257450   4.151   1.623  12.793 -1.1647 -0.0570 -0.4039
12012TIP3    H157451   4.208   1.698  12.781 -0.8918 -0.1645  0.2163
12012TIP3    H257452   4.092   1.648  12.863  0.8988 -1.5277  2.0282
12013TIP3   OH257453   2.743   5.808   0.788  0.0568 -0.0105  0.0281
12013TIP3    H157454   2.725   5.732   0.842  0.0052 -0.3783 -0.4990
12013TIP3    H257455   2.808   5.777   0.724 -0.8718  0.0355 -0.9668
12014TIP3   OH257456   1.713   5.865   4.325 -0.5694  0.5277  0.0659
12014TIP3    H157457   1.664   5.866   4.243 -1.7161  0.8245  0.7429
12014TIP3    H257458   1.686   5.784   4.368  0.7259 -0.0958 -0.2382
12015TIP3   OH257459   2.542   3.552  15.719  0.2908  0.5078  0.4025
12015TIP3    H157460   2.542   3.559  15.815  0.7686 -0.7466  0.5172
12015TIP3    H257461   2.484   3.622  15.690 -0.5939  0.3394  1.6643
12016TIP3   OH257462   5.991   3.205   4.980 -0.8646 -0.0586  0.0730
12016TIP3    H157463   5.920   3.158   4.936 -0.9633  0.4968 -0.3736
12016TIP3    H257464   6.070   3.156   4.958 -0.8963  0.2976 -0.8402
12017TIP3   OH257465   2.319   0.182   2.377 -0.2073  0.0959  0.2540
12017TIP3    H157466   2.281   0.170   2.464 -2.1036  0.3473 -0.4947
12017TIP3    H257467   2.264   0.128   2.320  0.5055  0.5615 -0.8994
12018TIP3   OH257468   3.177   0.296  17.112  0.2176  0.0244 -0.0880
12018TIP3    H157469   3.128   0.363  17.062 -0.0941 -0.5164 -0.5216
12018TIP3    H257470   3.268   0.312  17.089  0.1874  0.5642  0.1370
12019TIP3   OH257471   2.524   5.039  14.759  0.4456  0.2550 -0.1704
12019TIP3    H157472   2.583   5.078  14.695  0.7356 -0.1295 -0.1367
12019TIP3    H257473   2.581   5.004  14.827  0.2774 -1.5154 -0.8996
12020TIP3   OH257474   4.902   2.345  13.596 -0.1450  0.4402 -0.4792
12020TIP3    H157475   4.817   2.365  13.637 -1.0906 -1.7973 -1.2068
12020TIP3    H257476   4.961   2.412  13.631 -1.8960  1.2874  1.0639
12021TIP3   OH257477   0.655   0.657   5.292 -0.3956 -0.2300  1.0593
12021TIP3    H157478   0.740   0.693   5.267  0.1368 -1.1816  1.4265
12021TIP3    H257479   0.668   0.626   5.382 -0.5847 -1.9971  0.5148
12022TIP3   OH257480   2.546   4.248  16.821 -0.0272 -0.0699 -0.1964
12022TIP3    H157481   2.561   4.298  16.741  1.3805 -0.4421 -0.2009
12022TIP3    H257482   2.462   4.279  16.853  1.2106  3.1096  0.3761
12023TIP3   OH257483   5.198   0.981  11.289 -0.0033  0.1274  0.0419
12023TIP3    H157484   5.218   1.049  11.354 -0.2910  0.0136  0.2500
12023TIP3    H257485   5.278   0.974  11.237  0.5420 -0.3878  0.9229
12024TIP3   OH257486   1.914   3.409  13.402 -0.0125  0.4181  0.3471
12024TIP3    H157487   1.911   3.321  13.438 -0.1102  0.7471  1.1740
12024TIP3    H257488   2.004   3.421  13.373 -0.3299 -0.4470 -1.0642
12025TIP3   OH257489   1.129   3.666  17.067 -0.3429 -0.5804  0.3125
12025TIP3    H157490   1.175   3.612  17.003  0.2577  0.3252 -0.0528
12025TIP3    H257491   1.151   3.627  17.152  2.5794  0.7577  0.3149
12026TIP3   OH257492   5.094   5.525   4.410  0.2663 -0.0739 -0.7340
12026TIP3    H157493   5.037   5.562   4.478 -0.3244 -0.4869 -0.9967
12026TIP3    H257494   5.112   5.597   4.350  1.6754  0.5905  0.4136
12027TIP3   OH257495   0.314   3.211  13.240 -0.1387  0.2822 -0.3583
12027TIP3    H157496   0.224   3.181  13.247 -0.0540 -0.0888 -0.8371
12027TIP3    H257497   0.363   3.135  13.207  0.3348  0.5001 -0.1717
12028TIP3   OH257498   1.527   4.153   1.520  0.4530 -0.2692  0.2770
12028TIP3    H157499   1.605   4.208   1.529  0.4550  0.0490 -1.3890
12028TIP3    H257500   1.501   4.163   1.428 -0.4507 -1.8491  0.3269
12029TIP3   OH257501   2.921   3.479   5.281  0.3069 -0.0348  0.0449
12029TIP3    H157502   2.871   3.398   5.290  1.0853 -0.5833 -0.3861
12029TIP3    H257503   2.985   3.459   5.212  0.2438  1.0833 -0.3508
12030TIP3   OH257504   2.464   2.967  13.408  0.6315  0.2059  0.1669
12030TIP3    H157505   2.480   2.914  13.486 -1.0363 -2.1665 -0.9868
12030TIP3    H257506   2.404   3.036  13.438  1.0755  0.1462  1.2344
12031TIP3   OH257507   3.015   0.070   0.331 -0.0651 -0.4466 -0.3476
12031TIP3    H157508   3.024   0.153   0.378  0.8284  1.1350 -3.0765
12031TIP3    H257509   2.926   0.041   0.350 -0.6098  1.4464  0.2454
12032TIP3   OH257510   5.757   3.292   0.703 -0.1197  0.1940  0.2292
12032TIP3    H157511   5.759   3.217   0.762  0.0254 -0.3236 -0.4185
12032TIP3    H257512   5.800   3.362   0.752 -1.1016  0.1439  1.2069
12033TIP3   OH257513   0.151   1.407   1.240  0.4557 -0.2844  0.3116
12033TIP3    H157514   0.099   1.479   1.204 -0.6522  0.2396  2.7599
12033TIP3    H257515   0.241   1.439   1.241  0.3633  0.0614 -0.9474
12034TIP3   OH257516   6.588   4.387   2.293 -0.3050 -0.5418 -0.4373
12034TIP3    H157517   6.587   4.477   2.261 -0.6735 -0.6320 -0.6959
12034TIP3    H257518   6.513   4.383   2.353 -0.3224 -0.6892 -0.4698
12035TIP3   OH257519   4.039   0.987  16.844 -0.8437 -0.2568 -0.1900
12035TIP3    H157520   3.962   0.972  16.789 -0.7071 -1.0808 -0.1656
12035TIP3    H257521   4.094   1.045  16.793 -2.0423  1.4102  0.3170
12036TIP3   OH257522   1.613   3.005  10.795 -0.2931 -0.1879  0.0009
12036TIP3    H157523   1.621   2.932  10.733  1.2057  0.7244 -0.9435
12036TIP3    H257524   1.606   3.083  10.740  2.1176  0.7594  0.8869
12037TIP3   OH257525   5.392   4.670   1.961 -0.0256 -0.2876 -0.2178
12037TIP3    H157526   5.340   4.603   1.917  0.3496 -1.2014  0.6794
12037TIP3    H257527   5.379   4.749   1.909 -1.0802 -0.8717 -0.8733
12038TIP3   OH257528   5.050   5.122  16.893  0.3753 -0.4334 -0.1039
12038TIP3    H157529   4.965   5.166  16.894  0.6476  0.1026  0.5872
12038TIP3    H257530   5.082   5.134  16.803 -0.0227 -0.1325 -0.2086
12039TIP3   OH257531   3.645   1.704   1.261 -0.1365  0.4712 -0.0056
12039TIP3    H157532   3.613   1.620   1.229  2.8569 -0.7878 -0.0456
12039TIP3    H257533   3.646   1.761   1.184 -0.5676 -0.0095 -0.3692
12040TIP3   OH257534   3.838   1.823  13.597 -0.5002 -0.2831 -0.0156
12040TIP3    H157535   3.754   1.866  13.590 -0.2710  0.3076  0.6728
12040TIP3    H257536   3.818   1.735  13.628 -0.8707 -0.1947 -0.0078
12041TIP3   OH257537   4.505   6.598   5.134  0.3596  0.1087 -0.2478
12041TIP3    H157538   4.495   6.532   5.066 -0.5866 -0.0824  0.0700
12041TIP3    H257539   4.432   6.658   5.120  0.9975  0.9013 -0.3030
12042TIP3   OH257540   4.256   1.349   0.264 -0.5704  0.3025  0.7181
12042TIP3    H157541   4.289   1.435   0.290 -0.0585  0.8654 -1.5749
12042TIP3    H257542   4.331   1.290   0.273 -1.1135 -0.1697  3.0380
12043TIP3   OH257543   1.624   1.990   4.328  0.1058  0.3924 -0.2195
12043TIP3    H157544   1.625   2.068   4.273 -1.8467  0.6756  0.0449
12043TIP3    H257545   1.667   2.017   4.409  0.0856  0.9815 -0.4001
12044TIP3   OH257546   5.911   3.756   3.994  0.3599 -0.0839  0.4786
12044TIP3    H157547   5.962   3.775   3.916  0.2608 -0.5903  0.2877
12044TIP3    H257548   5.823   3.739   3.962  0.4043 -0.6766  0.6588
12045TIP3   OH257549   5.812   2.128  17.160 -0.1438  0.1690 -0.7198
12045TIP3    H157550   5.729   2.135  17.114 -1.1506  0.2526  1.0118
12045TIP3    H257551   5.857   2.211  17.143 -1.5027  1.1476  0.2534
12046TIP3   OH257552   0.839   5.631  15.608  0.0757 -0.3055 -0.2166
12046TIP3    H157553   0.779   5.585  15.666 -3.2612  1.8335 -1.6462
12046TIP3    H257554   0.825   5.724  15.626  1.1225  0.3516 -2.3278
12047TIP3   OH257555   2.823   3.202   4.406  0.0008 -0.0175  0.6209
12047TIP3    H157556   2.846   3.114   4.436 -1.9374 -0.0807  2.2051
12047TIP3    H257557   2.729   3.197   4.387 -0.5231  2.0090  2.2053
12048TIP3   OH257558   0.930   5.941   2.654 -0.5523  0.6009  0.3553
12048TIP3    H157559   0.937   6.013   2.716  1.4664  0.4619  0.3325
12048TIP3    H257560   0.852   5.893   2.683 -0.3277  1.1953  2.0744
12049TIP3   OH257561   0.979   6.232  11.102  0.2599  0.1958  0.2246
12049TIP3    H157562   0.987   6.215  11.008 -1.2131  0.0617  0.1003
12049TIP3    H257563   0.973   6.327  11.109  0.5132  0.2142  0.1966
12050TIP3   OH257564   4.511   1.986   2.421  0.5166  0.6229  0.2640
12050TIP3    H157565   4.474   2.075   2.428 -1.2539 -0.0931  0.5808
12050TIP3    H257566   4.479   1.941   2.499  2.5773  0.0711  0.8436
12051TIP3   OH257567   5.363   2.639   3.939 -0.2740  0.3473  0.3743
12051TIP3    H157568   5.324   2.650   3.852 -0.4558  0.4563  0.4707
12051TIP3    H257569   5.403   2.724   3.958 -0.9787  0.5930  0.7683
12052TIP3   OH257570   2.725   0.418  16.300 -0.0950 -0.2281 -0.2361
12052TIP3    H157571   2.659   0.384  16.239 -0.9521 -0.3611  0.7234
12052TIP3    H257572   2.785   0.345  16.312 -0.1622 -0.3451 -0.5832
12053TIP3   OH257573   3.206   6.464  14.496 -0.0042 -0.1078 -0.6066
12053TIP3    H157574   3.156   6.486  14.418 -0.9444 -0.5563 -0.1500
12053TIP3    H257575   3.297   6.484  14.473 -0.2637 -0.2294 -1.8060
12054TIP3   OH257576   2.783   5.728   4.108 -0.8324 -0.0568  0.5006
12054TIP3    H157577   2.811   5.637   4.109 -0.2419  0.1286  1.6468
12054TIP3    H257578   2.848   5.773   4.055 -0.2809 -0.0423  1.1854
12055TIP3   OH257579   2.084   0.541  16.590  0.7778  0.0002 -0.3314
12055TIP3    H157580   2.115   0.603  16.656 -0.6058 -1.2192  1.5345
12055TIP3    H257581   2.000   0.577  16.562  0.0241 -0.9308  0.6772
12056TIP3   OH257582   5.470   1.780  15.327 -0.0548  0.6231  0.2872
12056TIP3    H157583   5.440   1.713  15.387  1.7176 -2.2233 -1.7511
12056TIP3    H257584   5.546   1.819  15.370  0.6784 -0.7897  0.3384
12057TIP3   OH257585   4.846   1.136   5.400 -0.2797 -0.2324 -0.1027
12057TIP3    H157586   4.918   1.073   5.401  0.2718  0.3771 -0.8085
12057TIP3    H257587   4.809   1.131   5.488 -0.3143 -1.6114 -0.1752
12058TIP3   OH257588   2.431   3.429   1.063 -0.6287  0.0620 -0.1284
12058TIP3    H157589   2.405   3.410   1.153 -1.1330 -0.3928 -0.3659
12058TIP3    H257590   2.471   3.348   1.032  0.1503  0.4308 -0.1001
12059TIP3   OH257591   0.872   5.966   2.243 -0.2644 -0.1793 -0.0252
12059TIP3    H157592   0.819   5.985   2.165 -2.1711  0.0731  1.2684
12059TIP3    H257593   0.878   6.050   2.288 -0.9614 -0.7233  1.1174
12060TIP3   OH257594   3.954   2.559  16.051 -0.0237 -0.6287 -0.2751
12060TIP3    H157595   4.031   2.615  16.038  0.7130 -1.5200  0.1090
12060TIP3    H257596   3.916   2.550  15.964  0.2674 -0.1252 -0.4625
12061TIP3   OH257597   5.715   5.511  12.635  0.2613  0.4879  0.5637
12061TIP3    H157598   5.694   5.419  12.649 -0.0096  0.7206  1.8150
12061TIP3    H257599   5.671   5.557  12.706 -1.2771  1.8330 -1.1779
12062TIP3   OH257600   5.193   3.068   5.644  0.3008 -0.0630 -0.2767
12062TIP3    H157601   5.170   3.150   5.689  1.6393  0.1223  0.1007
12062TIP3    H257602   5.228   3.096   5.559  0.8970 -0.2271 -0.0895
12063TIP3   OH257603   6.039   4.222   4.637 -0.5948  0.1597  0.0410
12063TIP3    H157604   5.961   4.204   4.584  0.1401 -0.3898 -0.8988
12063TIP3    H257605   6.060   4.137   4.676  0.4309 -0.0895 -0.9900
12064TIP3   OH257606   3.382   1.487  10.831 -0.5474 -0.2258 -0.4380
12064TIP3    H157607   3.423   1.423  10.773  2.3294  2.2241 -1.3504
12064TIP3    H257608   3.414   1.465  10.918 -1.5991 -1.4657 -0.3399
12065TIP3   OH257609   0.770   6.449   2.920  0.2216  0.1773  0.1491
12065TIP3    H157610   0.848   6.488   2.960  0.9908 -0.2188 -0.9125
12065TIP3    H257611   0.795   6.358   2.903 -1.0352 -0.4043  1.2369
12066TIP3   OH257612   0.848   1.414  11.835  0.4138  0.5401  0.1186
12066TIP3    H157613   0.820   1.410  11.743 -3.4050 -2.0395  1.1159
12066TIP3    H257614   0.898   1.495  11.842 -1.8207  2.5116 -3.5845
12067TIP3   OH257615   6.518   1.094   5.348 -0.0155 -0.5147  0.1472
12067TIP3    H157616   6.496   1.018   5.294  1.0978 -0.8502  0.1396
12067TIP3    H257617   6.435   1.139   5.362 -0.8088 -2.0617  0.6502
12068TIP3   OH257618   1.239   1.929  15.905  0.3111 -0.1625 -0.3928
12068TIP3    H157619   1.269   1.916  15.815 -0.5591 -3.3721 -0.3119
12068TIP3    H257620   1.145   1.949  15.896 -0.2563 -2.5163 -0.1914
12069TIP3   OH257621   6.053   1.931  15.937 -0.4381 -0.1710 -0.5371
12069TIP3    H157622   6.055   2.010  15.991  0.9652  0.8174 -1.9320
12069TIP3    H257623   6.138   1.891  15.951  0.0720  0.2731 -2.2004
12070TIP3   OH257624   3.032   5.558  11.303 -0.3302 -0.1545  0.2767
12070TIP3    H157625   2.985   5.480  11.334 -1.3758 -0.9771 -2.9959
12070TIP3    H257626   3.117   5.525  11.275 -0.9063 -0.2519 -1.4508
12071TIP3   OH257627   5.620   0.866  13.360 -0.1954  0.3878  0.5414
12071TIP3    H157628   5.584   0.904  13.279  1.8674  0.3103 -0.4642
12071TIP3    H257629   5.647   0.942  13.411  1.0510  0.4016 -0.0988
12072TIP3   OH257630   0.456   4.323  13.812  0.2125 -0.0898 -0.4902
12072TIP3    H157631   0.402   4.391  13.771  0.0719 -0.2564 -0.5848
12072TIP3    H257632   0.393   4.254  13.836  0.3778 -0.2677 -0.5639
12073TIP3   OH257633   4.567   0.180   1.853  0.0967 -0.0697  0.8282
12073TIP3    H157634   4.567   0.111   1.920 -0.7931  0.8936  1.8540
12073TIP3    H257635   4.487   0.163   1.803 -1.6857  1.8229  2.8589
12074TIP3   OH257636   6.319   3.996  15.680 -0.1128 -0.6158 -0.3089
12074TIP3    H157637   6.374   4.070  15.704  1.4259 -2.5610  2.8877
12074TIP3    H257638   6.243   4.004  15.738 -0.4610 -0.9557 -0.7171
12075TIP3   OH257639   6.460   5.316   5.411  0.0529 -0.3456 -0.1809
12075TIP3    H157640   6.446   5.242   5.352  0.0904 -1.5278  1.2177
12075TIP3    H257641   6.401   5.384   5.380 -1.5526 -1.7209 -0.2809
12076TIP3   OH257642   4.099   0.746   2.006  0.3556  0.2241  0.5728
12076TIP3    H157643   4.052   0.703   2.077 -1.0992  1.3035  0.3094
12076TIP3    H257644   4.094   0.839   2.027 -2.0884  0.8177 -1.9676
12077TIP3   OH257645   6.089   3.782   1.918 -0.2293  0.8040  0.0682
12077TIP3    H157646   6.036   3.852   1.881  0.3490  0.1558 -2.0785
12077TIP3    H257647   6.179   3.812   1.910  0.1896 -0.8362 -2.5861
12078TIP3   OH257648   3.133   3.474  13.563  0.4479  0.4186  0.3558
12078TIP3    H157649   3.221   3.457  13.532 -0.2688 -1.0228 -1.0372
12078TIP3    H257650   3.123   3.418  13.641  0.3875 -0.3282 -0.1808
12079TIP3   OH257651   6.464   5.873  12.176  0.2712 -0.3991  0.0613
12079TIP3    H157652   6.497   5.811  12.111  0.2709  0.8271 -1.1568
12079TIP3    H257653   6.372   5.850  12.186  0.2840 -0.6340 -0.3313
12080TIP3   OH257654   1.398   6.499  16.882 -0.0766 -0.4827 -0.2974
12080TIP3    H157655   1.427   6.436  16.948  1.3162 -0.9529 -1.3290
12080TIP3    H257656   1.312   6.467  16.855 -0.8000 -0.1333  1.4465
12081TIP3   OH257657   0.855   4.652   1.938  0.1010 -0.0868  0.2242
12081TIP3    H157658   0.900   4.584   1.887 -0.9196  0.0471 -0.8997
12081TIP3    H257659   0.763   4.642   1.915 -0.2479  0.7136  1.2111
12082TIP3   OH257660   4.797   3.589   2.561  0.7631  0.4839 -0.1679
12082TIP3    H157661   4.746   3.615   2.484  0.0454 -0.9070 -0.2016
12082TIP3    H257662   4.750   3.513   2.596  2.0296  0.0461  0.6505
12083TIP3   OH257663   2.699   5.327   3.348  0.0507 -0.2486 -0.3729
12083TIP3    H157664   2.686   5.287   3.262  0.6596 -0.1744 -0.5032
12083TIP3    H257665   2.624   5.387   3.358  0.7935  0.9351 -1.5440
12084TIP3   OH257666   6.002   3.956  16.242 -0.0571  0.1609  0.2553
12084TIP3    H157667   6.057   3.991  16.313  1.0454 -1.3733  0.2266
12084TIP3    H257668   5.922   3.927  16.285  0.1707  0.2004  0.7096
12085TIP3   OH257669   6.146   0.559   2.599  0.6010 -0.0519 -0.1152
12085TIP3    H157670   6.154   0.502   2.522  0.7283 -1.4006  0.8602
12085TIP3    H257671   6.077   0.620   2.576 -0.7650 -1.6839 -0.5863
12086TIP3   OH257672   2.633   2.013   4.728  0.7079  0.0167  0.3078
12086TIP3    H157673   2.703   2.005   4.793  0.8952 -1.2304 -0.0159
12086TIP3    H257674   2.559   2.048   4.777  0.5138 -1.8988  1.4890
12087TIP3   OH257675   5.155   4.580   4.135 -0.0564 -0.8131 -0.0125
12087TIP3    H157676   5.120   4.492   4.120 -0.2645 -0.8433  0.6215
12087TIP3    H257677   5.102   4.615   4.207  0.5435 -0.4656  0.2653
12088TIP3   OH257678   5.431   3.499   2.537  0.1778 -0.1122  0.6424
12088TIP3    H157679   5.372   3.500   2.613 -0.1096  0.2431  0.4163
12088TIP3    H257680   5.429   3.408   2.508 -0.0586 -0.1573  0.7919
12089TIP3   OH257681   0.556   0.586   0.372 -0.2320  0.1872  0.0293
12089TIP3    H157682   0.583   0.644   0.301 -0.8735 -0.6921 -0.9660
12089TIP3    H257683   0.633   0.580   0.429 -0.1346  1.9355  0.1389
12090TIP3   OH257684   5.724   2.936   1.891  0.5585  0.5076  0.1913
12090TIP3    H157685   5.654   2.963   1.950  0.9065  2.3303 -0.1723
12090TIP3    H257686   5.781   2.881   1.944  0.0557  0.8773  1.1309
12091TIP3   OH257687   4.896   0.276  14.607 -0.6309  0.6291  0.0562
12091TIP3    H157688   4.808   0.284  14.644 -1.1770  1.3554 -1.3353
12091TIP3    H257689   4.954   0.279  14.684 -1.7204  1.9739  0.8933
12092TIP3   OH257690   2.977   2.258   2.157 -0.1581 -0.0989  0.6273
12092TIP3    H157691   2.904   2.252   2.218 -2.2794 -0.0607 -1.7370
12092TIP3    H257692   2.981   2.350   2.132 -0.5509 -0.4135 -0.6533
12093TIP3   OH257693   1.807   2.874  10.952 -0.2339  0.9637 -0.1331
12093TIP3    H157694   1.758   2.923  10.885 -1.0304  0.0773 -0.2193
12093TIP3    H257695   1.790   2.783  10.931  0.5350  0.6586  0.5464
12094TIP3   OH257696   6.261   0.299  14.586  0.1016 -0.1884  0.6833
12094TIP3    H157697   6.296   0.223  14.540  0.1763 -2.1149  3.6482
12094TIP3    H257698   6.171   0.275  14.608 -0.9359  1.8913 -0.8504
12095TIP3   OH257699   0.556   5.799   1.354 -1.1937 -0.3680  0.5525
12095TIP3    H157700   0.608   5.744   1.412 -0.4464 -0.3113 -0.0520
12095TIP3    H257701   0.569   5.761   1.267 -0.6645  0.7636  0.1254
12096TIP3   OH257702   2.591   4.200   5.325 -0.1170 -0.4304  0.1642
12096TIP3    H157703   2.646   4.227   5.398  0.1146  2.7710 -1.0423
12096TIP3    H257704   2.525   4.269   5.317 -0.5888 -1.0604 -2.1583
12097TIP3   OH257705   0.185   6.654   0.811  1.1568 -0.3313 -0.3168
12097TIP3    H157706   0.262   6.705   0.786  0.7867  0.1264 -0.5187
12097TIP3    H257707   0.131   6.715   0.861 -0.3383  0.1721 -2.4126
12098TIP3   OH257708   6.311   2.763   0.797  0.0109  0.2581  0.0053
12098TIP3    H157709   6.272   2.736   0.714 -1.8432  1.3285  0.4923
12098TIP3    H257710   6.333   2.680   0.841  1.0184 -0.3225 -1.5039
12099TIP3   OH257711   2.012   4.131   5.987 -0.5509 -0.2138 -0.3193
12099TIP3    H157712   1.975   4.045   5.967 -2.0348 -0.3385  2.4818
12099TIP3    H257713   1.950   4.171   6.047  0.9927  2.1142 -0.1316
12100TIP3   OH257714   2.776   2.618  13.590 -0.4364  0.3157 -0.2910
12100TIP3    H157715   2.828   2.545  13.557 -0.5956  1.1742 -2.6286
12100TIP3    H257716   2.832   2.661  13.654  2.0285  1.4737 -3.0092
12101TIP3   OH257717   3.459   3.740   0.586 -0.4492 -0.1722  0.0604
12101TIP3    H157718   3.462   3.763   0.679 -0.4245 -0.9363  0.2541
12101TIP3    H257719   3.367   3.716   0.570 -0.9649  1.9776 -0.6334
12102TIP3   OH257720   2.190   3.983  11.068 -0.4895 -0.4965 -0.3120
12102TIP3    H157721   2.181   3.945  11.156 -3.4509 -1.2875 -0.8283
12102TIP3    H257722   2.260   4.047  11.076 -0.5269 -0.6877  2.5766
12103TIP3   OH257723   5.922   1.532  16.844  1.0317 -0.2613 -0.4901
12103TIP3    H157724   5.952   1.571  16.762 -0.6989  0.7392 -0.6976
12103TIP3    H257725   5.954   1.591  16.912 -2.2366  2.2134 -0.8377
12104TIP3   OH257726   1.616   4.607   0.959 -0.3163 -0.4660 -0.1420
12104TIP3    H157727   1.631   4.697   0.985 -2.1258 -0.8128  2.5385
12104TIP3    H257728   1.695   4.560   0.984 -0.8115 -0.2156  2.0591
12105TIP3   OH257729   4.829   2.720  16.083  0.7958 -0.1052  0.1761
12105TIP3    H157730   4.834   2.677  16.168 -0.1603 -1.3887 -0.3961
12105TIP3    H257731   4.837   2.649  16.019 -0.4491  0.5926 -0.7920
12106TIP3   OH257732   4.778   5.260  11.382 -0.1530  0.0368 -0.9120
12106TIP3    H157733   4.834   5.196  11.426  2.0214  2.3392 -0.1155
12106TIP3    H257734   4.737   5.210  11.311  0.8641 -2.3762  0.0659
12107TIP3   OH257735   4.817   5.475   4.284  0.1236 -0.1433  0.0379
12107TIP3    H157736   4.879   5.506   4.350 -0.5441 -0.2474  0.7395
12107TIP3    H257737   4.761   5.551   4.267  0.9216  0.1953 -1.1916
12108TIP3   OH257738   3.898   1.058   4.203  0.4096 -0.2975 -0.1932
12108TIP3    H157739   3.877   1.098   4.118 -0.8450  0.4087  0.4357
12108TIP3    H257740   3.924   0.968   4.181 -0.0585 -0.1721 -1.3099
12109TIP3   OH257741   2.471   2.437  16.614 -0.2921  0.2134 -0.7103
12109TIP3    H157742   2.500   2.508  16.672  0.7611  0.4825 -1.5204
12109TIP3    H257743   2.403   2.392  16.663  1.1828 -0.1359  1.1444
12110TIP3   OH257744   1.548   2.763   5.968 -0.2295  0.1866  0.0966
12110TIP3    H157745   1.594   2.764   6.052 -0.4475  0.4422  0.2132
12110TIP3    H257746   1.531   2.670   5.952 -1.3018  0.2147  0.9568
12111TIP3   OH257747   3.696   1.585  15.058  0.0013  0.0372  0.3145
12111TIP3    H157748   3.742   1.662  15.025  0.0238 -0.2614 -0.3612
12111TIP3    H257749   3.608   1.618  15.079 -0.1481  0.1525 -0.4443
12112TIP3   OH257750   6.413   2.923  16.634  0.1519  0.0972  0.4524
12112TIP3    H157751   6.332   2.907  16.681 -1.2799  0.3757 -1.7692
12112TIP3    H257752   6.446   3.006  16.669 -0.9929  0.4306  0.7595
12113TIP3   OH257753   6.486   2.196   3.514  0.4860 -0.3430  0.2260
12113TIP3    H157754   6.406   2.213   3.464  0.5427  0.2924  0.3430
12113TIP3    H257755   6.536   2.136   3.459  0.8393  0.8556 -0.7882
12114TIP3   OH257756   1.259   0.336  11.824 -0.1318 -0.1413  0.3429
12114TIP3    H157757   1.172   0.354  11.860  0.2441  0.2874  1.0463
12114TIP3    H257758   1.286   0.418  11.783 -1.2995 -1.0916 -2.5784
12115TIP3   OH257759   5.907   5.024  14.894  0.6205  0.1277 -0.5267
12115TIP3    H157760   5.978   4.960  14.896  0.4729 -0.0286  0.2110
12115TIP3    H257761   5.908   5.063  14.982 -0.2552  0.0673 -0.4824
12116TIP3   OH257762   3.665   5.998   6.282 -0.3337 -0.1722 -0.0756
12116TIP3    H157763   3.673   5.905   6.262 -1.8838 -0.0014 -1.7178
12116TIP3    H257764   3.756   6.030   6.285  0.2468 -1.8006  1.0556
12117TIP3   OH257765   3.436   0.351  16.538 -0.2594 -0.2453 -0.4936
12117TIP3    H157766   3.435   0.261  16.504  0.6408 -0.4186 -0.0925
12117TIP3    H257767   3.351   0.361  16.581  0.4055 -1.6379  1.2724
12118TIP3   OH257768   1.365   6.122   0.346 -0.1127  0.4232  0.2622
12118TIP3    H157769   1.407   6.111   0.431  1.2589  2.2819 -0.1134
12118TIP3    H257770   1.293   6.182   0.362 -0.6274 -0.2026  0.3206
12119TIP3   OH257771   1.429   5.039   3.176 -0.3728 -0.5574  0.0556
12119TIP3    H157772   1.350   5.087   3.150  0.5187  0.8236 -0.1940
12119TIP3    H257773   1.399   4.980   3.245 -1.4027  0.8779  0.8902
12120TIP3   OH257774   2.727   0.876  15.400  0.5392 -0.5435 -0.3097
12120TIP3    H157775   2.726   0.922  15.484  0.4843 -3.0426  1.1394
12120TIP3    H257776   2.811   0.899  15.361 -0.7113  3.2721 -1.2525
12121TIP3   OH257777   0.262   4.072  16.767  0.0810  0.5829 -0.4713
12121TIP3    H157778   0.192   4.083  16.703 -0.9243 -0.9170  0.3096
12121TIP3    H257779   0.231   4.117  16.845  0.3665  0.6277 -0.3834
12122TIP3   OH257780   0.062   4.579   2.062 -0.1498  0.0023 -0.6879
12122TIP3    H157781   0.066   4.525   1.983  0.4933  2.1784 -2.2548
12122TIP3    H257782  -0.029   4.610   2.065 -1.4606 -3.3772  1.9640
12123TIP3   OH257783   3.564   0.513  16.941 -0.0768 -0.0517 -0.4196
12123TIP3    H157784   3.581   0.506  16.847 -0.8502  0.4074 -0.6029
12123TIP3    H257785   3.524   0.429  16.965  0.0205 -0.1275 -0.5248
12124TIP3   OH257786   1.838   4.022  13.298 -0.3891 -0.0064 -0.6868
12124TIP3    H157787   1.852   3.928  13.305 -1.0956 -0.0832 -0.1638
12124TIP3    H257788   1.858   4.055  13.386  0.8370  0.4719 -1.1337
12125TIP3   OH257789   0.652   1.415   5.993 -0.0049 -0.4670  0.0646
12125TIP3    H157790   0.646   1.502   6.032  2.5431 -0.8719  1.5676
12125TIP3    H257791   0.574   1.369   6.023 -0.8715  0.9747  0.0796
12126TIP3   OH257792   0.253   0.401  15.541  0.7455 -0.6830  0.1109
12126TIP3    H157793   0.217   0.365  15.622  0.5854 -2.9987 -0.9167
12126TIP3    H257794   0.183   0.390  15.476  0.4984  2.0464 -0.1930
12127TIP3   OH257795   6.444   1.950   6.328  0.3281  0.4381 -0.7424
12127TIP3    H157796   6.449   1.863   6.289  0.1710  0.0163  0.1512
12127TIP3    H257797   6.500   1.945   6.405  0.0387  1.0259 -0.4862
12128TIP3   OH257798   1.082   0.590   4.485  0.4095  0.2474  0.5133
12128TIP3    H157799   1.111   0.498   4.478 -2.0674 -0.5914  0.2680
12128TIP3    H257800   1.116   0.631   4.406  3.6295  0.2618  1.7471
12129TIP3   OH257801   3.477   3.482   2.123  0.0033 -0.1254  0.0700
12129TIP3    H157802   3.498   3.575   2.127 -1.3393  0.1843  0.3277
12129TIP3    H257803   3.429   3.465   2.204 -0.8863 -0.7450 -0.5750
12130TIP3   OH257804   5.076   0.461   4.958  0.2821 -0.3903 -0.0001
12130TIP3    H157805   5.128   0.399   5.009  1.7305 -0.3029 -1.2929
12130TIP3    H257806   5.107   0.450   4.868 -1.6484 -0.0014 -0.7653
12131TIP3   OH257807   0.688   5.987  12.115 -0.0398  0.2754 -0.0556
12131TIP3    H157808   0.659   5.897  12.125 -1.0722  0.5035 -0.7950
12131TIP3    H257809   0.779   5.987  12.146 -0.5730 -0.6219  1.6426
12132TIP3   OH257810   4.204   1.701  17.479 -0.1254  0.1862 -1.1407
12132TIP3    H157811   4.123   1.676  17.525 -0.1302 -0.1964 -1.3481
12132TIP3    H257812   4.212   1.795  17.494  0.4296 -0.1007  0.5163
12133TIP3   OH257813   1.828   1.067   3.285 -0.4765 -0.2638  0.3081
12133TIP3    H157814   1.739   1.098   3.270 -0.0996  0.6457 -0.1540
12133TIP3    H257815   1.862   1.048   3.198 -0.2263 -0.6139  0.4812
12134TIP3   OH257816   0.161   1.937   1.617  1.0342  0.2081  1.0342
12134TIP3    H157817   0.068   1.955   1.632  1.4064  1.7866  1.6922
12134TIP3    H257818   0.163   1.847   1.585 -0.8555  0.6435 -0.4975
12135TIP3   OH257819   3.469   3.667  14.821 -0.0401  0.3323  0.9340
12135TIP3    H157820   3.556   3.643  14.792 -0.6930 -0.2018 -0.6888
12135TIP3    H257821   3.462   3.631  14.910  1.7044  1.2444  1.4873
12136TIP3   OH257822   1.112   2.426   5.528 -0.3191 -0.0993 -0.7650
12136TIP3    H157823   1.115   2.522   5.532 -0.1538 -0.1171 -0.3365
12136TIP3    H257824   1.020   2.404   5.545 -0.4615  0.0012 -1.3981
12137TIP3   OH257825   4.203   4.163   5.816 -0.0332 -0.0397  0.3000
12137TIP3    H157826   4.162   4.083   5.782  0.3069 -0.2067  0.2769
12137TIP3    H257827   4.293   4.158   5.784 -0.0372  0.4030  0.2162
12138TIP3   OH257828   1.013   1.104  10.784  0.2517 -0.2395 -0.2420
12138TIP3    H157829   0.954   1.127  10.712  0.9675  1.0182 -0.4551
12138TIP3    H257830   1.064   1.031  10.751  0.7882  0.5248 -1.1634
12139TIP3   OH257831   4.230   5.660  12.928  0.6250  0.2155  0.0113
12139TIP3    H157832   4.215   5.746  12.891 -0.0245  0.2296  0.2914
12139TIP3    H257833   4.204   5.599  12.859 -0.7842  0.2393  0.4800
12140TIP3   OH257834   4.278   1.649  13.820  0.4969 -0.2752 -0.2168
12140TIP3    H157835   4.193   1.610  13.836  0.1786  0.1594 -0.8010
12140TIP3    H257836   4.306   1.685  13.904  0.5906 -1.3518  0.2204
12141TIP3   OH257837   0.301   1.165   4.605 -0.0183  0.2952  0.6480
12141TIP3    H157838   0.347   1.084   4.624 -0.3221 -0.0252  0.0499
12141TIP3    H257839   0.225   1.138   4.554  1.0549  1.1615 -1.5156
12142TIP3   OH257840   6.661   2.862   3.389  0.2685 -0.3016 -0.1326
12142TIP3    H157841   6.657   2.877   3.484 -0.4651  0.7794 -0.3193
12142TIP3    H257842   6.671   2.949   3.351 -1.1098 -0.5452 -1.1348
12143TIP3   OH257843   5.612   2.449   2.891  0.1650 -0.0783 -0.2132
12143TIP3    H157844   5.629   2.486   2.977 -1.3317  1.0369 -0.3659
12143TIP3    H257845   5.653   2.362   2.894  0.9087  0.2875  1.2876
12144TIP3   OH257846   2.526   3.093  12.167 -0.3874 -0.2034 -0.5331
12144TIP3    H157847   2.446   3.123  12.123 -0.6299 -1.0135 -0.6547
12144TIP3    H257848   2.575   3.174  12.182 -1.4684  0.3779  0.0448
12145TIP3   OH257849   4.393   4.828   5.134 -0.0126  0.0755 -0.0849
12145TIP3    H157850   4.354   4.855   5.051  0.7084 -2.0880 -1.2046
12145TIP3    H257851   4.448   4.902   5.161 -1.8126  1.6160 -0.4491
12146TIP3   OH257852   4.057   5.909  13.025  0.1445  0.0400  0.0639
12146TIP3    H157853   4.079   5.985  12.971  0.6102 -0.2937 -0.2297
12146TIP3    H257854   3.969   5.927  13.058  0.7245  1.2865  1.0218
12147TIP3   OH257855   3.271   1.196  16.157 -0.2294  0.4741 -0.0197
12147TIP3    H157856   3.208   1.131  16.188  0.8578 -0.3195  0.6074
12147TIP3    H257857   3.241   1.279  16.194 -0.7826  0.0729  0.4412
12148TIP3   OH257858   6.615   3.425  12.570  0.1033  0.1615  0.5427
12148TIP3    H157859   6.629   3.508  12.615  0.4498 -0.0409  0.8092
12148TIP3    H257860   6.699   3.405  12.530 -0.6140  1.1760 -1.6366
12149TIP3   OH257861   3.104   1.784  14.355 -0.6332  0.0321 -0.5747
12149TIP3    H157862   3.150   1.781  14.439 -1.0795  2.4362 -0.1565
12149TIP3    H257863   3.012   1.791  14.378 -0.8627 -0.4623 -1.3047
12150TIP3   OH257864   2.563   4.676   1.726 -0.5640  0.0925  0.5983
12150TIP3    H157865   2.640   4.733   1.728 -0.6326  0.3185 -1.1678
12150TIP3    H257866   2.597   4.590   1.699 -0.7242 -0.2234  1.3746
12151TIP3   OH257867   4.054   4.020   0.431  0.1808 -0.3070 -0.5664
12151TIP3    H157868   4.111   3.944   0.415  1.2747  0.3007  0.3421
12151TIP3    H257869   3.989   4.015   0.361 -0.1525 -2.4323 -0.1687
12152TIP3   OH257870   3.021   2.240   4.779 -1.0412  0.0904 -0.4024
12152TIP3    H157871   3.107   2.257   4.816  0.0404  0.6212 -2.9187
12152TIP3    H257872   3.031   2.159   4.730 -1.4163  1.0181 -2.1258
12153TIP3   OH257873   1.271   4.207  13.661 -0.3817  0.1591 -0.4277
12153TIP3    H157874   1.323   4.271  13.613 -0.1176 -1.0530 -1.8153
12153TIP3    H257875   1.225   4.157  13.593 -1.5452 -0.3160  0.6677
12154TIP3   OH257876   4.290   2.444  16.909  0.0240  0.1537  0.1252
12154TIP3    H157877   4.288   2.348  16.918 -0.3882 -0.1447 -2.5127
12154TIP3    H257878   4.202   2.472  16.935  0.6810  0.1156  2.7509
12155TIP3   OH257879   1.666   6.036   2.066 -0.2277 -0.6120 -0.5651
12155TIP3    H157880   1.675   5.989   1.983  0.8103 -0.2522 -0.6729
12155TIP3    H257881   1.664   6.129   2.040  0.7396 -0.4665 -0.1569
12156TIP3   OH257882   5.489   3.167   5.220 -1.1474  0.2308 -0.3437
12156TIP3    H157883   5.573   3.200   5.188 -2.0755  2.4083 -0.7108
12156TIP3    H257884   5.465   3.099   5.156  0.5700 -0.9222  0.1331
12157TIP3   OH257885   6.202   3.739   3.551  0.6227 -0.3598  0.3435
12157TIP3    H157886   6.273   3.787   3.508 -0.8845 -1.3245 -3.6767
12157TIP3    H257887   6.241   3.655   3.575  0.6952 -1.3889 -2.9874
12158TIP3   OH257888   5.565   2.328   2.144 -0.0093  0.1990  0.0677
12158TIP3    H157889   5.570   2.405   2.200 -0.0598  0.7876 -0.7226
12158TIP3    H257890   5.473   2.302   2.147 -0.3711  1.2690 -1.0964
12159TIP3   OH257891   2.119   5.365   0.748  0.4062  0.0658 -0.5016
12159TIP3    H157892   2.076   5.289   0.709 -0.9180  0.5064  0.0763
12159TIP3    H257893   2.093   5.438   0.692 -0.7056  0.5464  0.6224
12160TIP3   OH257894   5.969   5.135  15.274  0.4295  0.1939 -0.2695
12160TIP3    H157895   6.005   5.056  15.233  1.5479  0.3241  0.4143
12160TIP3    H257896   5.884   5.107  15.308  0.6820 -0.6501 -0.2977
12161TIP3   OH257897   0.409   3.544   5.922 -0.4675 -0.7390 -0.2802
12161TIP3    H157898   0.327   3.537   5.874 -0.1307 -2.4850 -0.6865
12161TIP3    H257899   0.477   3.537   5.856  0.0145  0.0332  0.1231
12162TIP3   OH257900   2.168   3.537  15.735  0.4178 -0.5830  0.8398
12162TIP3    H157901   2.164   3.556  15.828 -0.3963 -0.9034  0.8815
12162TIP3    H257902   2.076   3.524  15.709  0.5483  0.3712 -0.1870
12163TIP3   OH257903   4.662   3.461  14.834 -0.0192  0.0665  0.3020
12163TIP3    H157904   4.602   3.388  14.824 -1.6263  1.4551 -0.8753
12163TIP3    H257905   4.704   3.470  14.749  0.5959  0.1659  0.6079
12164TIP3   OH257906   5.008   0.633  11.153 -0.0156  0.0182  0.3311
12164TIP3    H157907   5.029   0.698  11.086 -0.3174  0.9012  1.0788
12164TIP3    H257908   4.982   0.555  11.103  3.8229 -0.8240 -0.6499
12165TIP3   OH257909   3.637   5.963   1.410 -0.0456  0.1223 -0.1560
12165TIP3    H157910   3.604   6.030   1.350  1.9254  0.2913 -1.1463
12165TIP3    H257911   3.633   5.882   1.360 -0.6447 -0.1714  0.3600
12166TIP3   OH257912   2.990   6.249   5.145 -0.3792 -0.5863  0.0472
12166TIP3    H157913   3.040   6.196   5.206  1.2849 -1.1888 -1.7361
12166TIP3    H257914   2.958   6.323   5.197  1.2378 -0.9008  1.5526
12167TIP3   OH257915   4.147   3.219  11.404  0.1296  0.3343  0.3337
12167TIP3    H157916   4.127   3.148  11.344  0.5978  0.0391  0.5155
12167TIP3    H257917   4.125   3.299  11.356 -1.2443  0.0504  0.4539
12168TIP3   OH257918   6.142   0.121  14.297 -0.0989 -0.5056  0.2833
12168TIP3    H157919   6.049   0.099  14.296 -0.5818  1.3804  0.4648
12168TIP3    H257920   6.175   0.082  14.378 -0.7145 -1.1842  0.2246
12169TIP3   OH257921   4.669   2.121  11.176 -0.1085  0.1536 -0.1612
12169TIP3    H157922   4.659   2.075  11.259 -0.1936  1.0364  0.3367
12169TIP3    H257923   4.763   2.141  11.171 -0.1512  0.3617 -0.1334
12170TIP3   OH257924   4.714   4.254   3.138 -0.4181  0.1406  0.6505
12170TIP3    H157925   4.718   4.209   3.223  0.4602  1.1014  1.1355
12170TIP3    H257926   4.683   4.342   3.159  0.0850  0.4779  0.0084
12171TIP3   OH257927   3.362   3.853   6.140 -0.2314  0.1418  0.2327
12171TIP3    H157928   3.339   3.929   6.194  0.1439  0.5564 -0.1777
12171TIP3    H257929   3.457   3.853   6.136 -0.1209 -1.4866  1.7978
12172TIP3   OH257930   6.619   0.602   1.885 -0.4272 -0.1692 -0.2435
12172TIP3    H157931   6.616   0.621   1.792 -0.4803 -0.5363 -0.3189
12172TIP3    H257932   6.619   0.688   1.928 -0.3937 -0.0020 -0.5797
12173TIP3   OH257933   0.480   4.434   0.262 -0.5563 -0.4027  0.6012
12173TIP3    H157934   0.443   4.398   0.342  0.8512  1.8354  2.3757
12173TIP3    H257935   0.574   4.433   0.276 -0.3757  4.5613  1.2451
12174TIP3   OH257936   0.127   3.240   4.203  0.0394 -0.5247  0.2507
12174TIP3    H157937   0.185   3.316   4.209  0.0118 -0.5590  1.2204
12174TIP3    H257938   0.068   3.250   4.278 -1.3184 -0.4073 -0.8060
12175TIP3   OH257939   3.947   0.074   2.089 -0.0760  0.6119 -0.3316
12175TIP3    H157940   3.895   0.004   2.049  1.5490  0.5189 -2.4787
12175TIP3    H257941   3.974   0.038   2.174  0.2547 -1.1803 -1.1432
12176TIP3   OH257942   5.313   4.594  11.347 -0.2800 -0.2153 -0.1942
12176TIP3    H157943   5.339   4.566  11.435 -1.5956  0.6402  0.5124
12176TIP3    H257944   5.393   4.590  11.296  0.3650 -1.4610  0.8496
12177TIP3   OH257945   1.195   0.792   1.866 -0.0461  0.5865 -0.0712
12177TIP3    H157946   1.238   0.741   1.797 -1.9202  0.1165 -0.9555
12177TIP3    H257947   1.172   0.728   1.933  0.4146  0.8018  0.3004
12178TIP3   OH257948   6.203   1.376  14.968  0.3262 -0.5785 -0.0191
12178TIP3    H157949   6.207   1.281  14.982 -1.0795 -0.6095  0.3642
12178TIP3    H257950   6.290   1.400  14.938  0.9817 -1.8559  0.7641
12179TIP3   OH257951   1.382   3.308   6.332 -0.0002  0.2841 -0.4901
12179TIP3    H157952   1.319   3.305   6.404  0.4204  3.2891  0.1438
12179TIP3    H257953   1.464   3.277   6.370 -0.4266 -0.9298 -0.5300
12180TIP3   OH257954   4.303   0.038  14.656 -0.1258 -0.7185  0.9087
12180TIP3    H157955   4.321  -0.015  14.579  1.0015  1.8905 -0.7436
12180TIP3    H257956   4.235   0.099  14.627  0.6023  0.5698  1.8326
12181TIP3   OH257957   4.932   1.366   4.794  0.0130  0.2893 -0.5520
12181TIP3    H157958   4.845   1.384   4.759  0.1224 -0.1459 -1.0731
12181TIP3    H257959   4.917   1.305   4.866 -0.1075  0.1328 -0.7091
12182TIP3   OH257960   6.313   1.588  16.693  0.5889  0.1632  0.0653
12182TIP3    H157961   6.361   1.528  16.636  0.0602 -0.8414  0.6387
12182TIP3    H257962   6.261   1.530  16.750 -2.9836  1.1702 -1.8923
12183TIP3   OH257963   4.907   2.433   4.732  0.2517  0.1053  0.3350
12183TIP3    H157964   4.883   2.412   4.822  0.6116  1.3680  0.7494
12183TIP3    H257965   4.876   2.522   4.719  1.5675  0.5086 -0.2697
12184TIP3   OH257966   0.023   2.125   5.944  0.2947  0.0731  0.1133
12184TIP3    H157967   0.005   2.189   6.012 -1.2279  0.7080 -0.8525
12184TIP3    H257968   0.119   2.121   5.940  0.4068  0.9962  1.3653
12185TIP3   OH257969   1.479   3.678  14.189  0.6216 -0.1132 -0.4651
12185TIP3    H157970   1.511   3.768  14.185  1.3010 -0.3933 -1.5531
12185TIP3    H257971   1.452   3.658  14.099  1.5939 -1.3877 -0.5025
12186TIP3   OH257972   3.806   3.522  16.907 -0.2620  0.2695 -0.4441
12186TIP3    H157973   3.805   3.453  16.841 -0.1556 -1.1786  1.0084
12186TIP3    H257974   3.717   3.524  16.941 -0.0710  0.3017  0.0647
12187TIP3   OH257975   6.605   0.314  12.795  0.3352  0.0577 -0.3835
12187TIP3    H157976   6.539   0.266  12.845 -0.7729  0.7240 -1.1263
12187TIP3    H257977   6.644   0.374  12.858 -1.3574  1.2108 -0.3556
12188TIP3   OH257978   3.067   5.336  14.472  0.4595 -0.6017  0.5053
12188TIP3    H157979   3.050   5.258  14.419  1.6350 -0.1757 -0.5510
12188TIP3    H257980   3.163   5.343  14.475  0.3807  0.8716  0.4735
12189TIP3   OH257981   5.850   0.692   4.909  0.5616 -0.5358  0.1039
12189TIP3    H157982   5.817   0.611   4.871 -1.8357  1.0584 -1.4813
12189TIP3    H257983   5.792   0.708   4.983  1.7754 -0.8170  1.1474
12190TIP3   OH257984   3.891   4.804   4.125 -0.4879 -0.2580  0.1924
12190TIP3    H157985   3.983   4.819   4.147 -0.9423  0.1650  1.9660
12190TIP3    H257986   3.882   4.709   4.119  0.3080 -0.2715 -1.3061
12191TIP3   OH257987   4.884   1.026   2.187 -0.0857 -0.1338  0.5105
12191TIP3    H157988   4.950   0.982   2.240 -0.5186 -0.2830  0.9401
12191TIP3    H257989   4.910   1.009   2.097 -1.2182 -2.8837  0.5884
12192TIP3   OH257990   0.001   4.778  16.550 -0.2326 -0.0196  0.2224
12192TIP3    H157991  -0.043   4.863  16.546 -0.4763 -0.2063 -2.1729
12192TIP3    H257992  -0.060   4.721  16.597 -1.2243  0.4809 -0.4378
12193TIP3   OH257993   1.391   3.789   0.085 -0.1641  0.2109 -0.1082
12193TIP3    H157994   1.450   3.752   0.150  0.4155  0.2732 -0.5777
12193TIP3    H257995   1.343   3.857   0.131 -1.9571 -1.7204  1.0256
12194TIP3   OH257996   6.572   6.214   5.014 -0.2654  0.2852 -0.2853
12194TIP3    H157997   6.501   6.264   4.975 -1.2057 -1.3766 -0.8091
12194TIP3    H257998   6.590   6.144   4.951  2.4095  1.1067 -0.5595
12195TIP3   OH257999   5.882   5.526  16.998  0.1046 -0.6857  0.4093
12195TIP3    H158000   5.847   5.473  17.069  0.6402  0.4988  1.5934
12195TIP3    H258001   5.939   5.589  17.041 -0.6548  0.9853 -0.9346
12196TIP3   OH258002   6.197   0.775  11.603 -0.0336  0.0542 -0.1373
12196TIP3    H158003   6.153   0.699  11.642 -0.7344  0.0273 -0.9639
12196TIP3    H258004   6.227   0.744  11.517  0.9133  0.3132  0.0848
12197TIP3   OH258005   4.961   4.772  16.460  0.3553  0.3127 -0.1355
12197TIP3    H158006   5.041   4.814  16.492  1.3238  0.0828 -2.1011
12197TIP3    H258007   4.973   4.679  16.480  1.9850 -0.1878 -2.9054
12198TIP3   OH258008   5.667   0.211  16.293 -0.1869  0.2771 -0.6509
12198TIP3    H158009   5.613   0.137  16.268 -0.1080  0.2509 -0.7417
12198TIP3    H258010   5.708   0.240  16.212  0.2730  0.0272 -0.5088
12199TIP3   OH258011   4.820   1.096  11.468  0.1859  0.1333 -0.1547
12199TIP3    H158012   4.815   1.015  11.418 -0.6268  0.1025 -0.0404
12199TIP3    H258013   4.810   1.165  11.403  0.1416  0.1176 -0.1644
12200TIP3   OH258014   0.521   1.110  10.117 -0.2608 -0.2491 -0.1595
12200TIP3    H158015   0.494   1.019  10.129  1.7678 -0.8045  0.4333
12200TIP3    H258016   0.440   1.155  10.094 -0.8723 -2.6964 -3.4812
12201TIP3   OH258017   4.633   6.095   0.121  0.2898  0.2483  0.1166
12201TIP3    H158018   4.570   6.033   0.157  0.5084 -0.2133 -0.2834
12201TIP3    H258019   4.715   6.076   0.168  0.4229  0.0542 -0.1927
12202TIP3   OH258020   5.043   3.495   2.731  0.0313  0.7243  0.4990
12202TIP3    H158021   5.099   3.557   2.683  1.8183 -2.3649 -1.8270
12202TIP3    H258022   4.959   3.498   2.684  0.4375  0.6813 -0.2560
12203TIP3   OH258023   1.898   4.916  17.153  0.3932  0.1215  0.4454
12203TIP3    H158024   1.979   4.910  17.103  0.2716 -0.2333  0.2895
12203TIP3    H258025   1.874   4.825  17.171  0.6709  0.2468  1.5286
12204TIP3   OH258026   0.356   3.628  16.620 -0.2140 -0.1021  0.2334
12204TIP3    H158027   0.365   3.535  16.642  0.4874  0.1683  1.1645
12204TIP3    H258028   0.429   3.646  16.562 -0.3507 -0.1297  0.0513
12205TIP3   OH258029   4.665   6.485   0.462  0.0250 -0.0904 -0.0538
12205TIP3    H158030   4.718   6.409   0.482  0.4476  0.3920  0.7057
12205TIP3    H258031   4.654   6.530   0.546  0.8520  1.3629 -0.6767
12206TIP3   OH258032   6.518   3.398   2.471  0.1653  0.0652 -0.6496
12206TIP3    H158033   6.452   3.454   2.430 -1.8983  0.3264  2.6092
12206TIP3    H258034   6.589   3.458   2.494  0.7972  0.1209 -2.5785
12207TIP3   OH258035   3.080   4.661  16.040  0.2770  0.0958  0.1005
12207TIP3    H158036   3.123   4.648  15.956  0.8843 -0.0340  0.4296
12207TIP3    H258037   2.986   4.656  16.019  0.3991 -3.0357 -0.1096
12208TIP3   OH258038   3.205   1.012  15.624  0.0778  0.5118 -0.1117
12208TIP3    H158039   3.219   0.954  15.699  1.2538 -0.3428 -0.9398
12208TIP3    H258040   3.131   0.974  15.577  0.6688 -0.2034 -0.4978
12209TIP3   OH258041   2.551   1.498  14.560  0.3096  0.0805  0.4008
12209TIP3    H158042   2.548   1.421  14.616  0.2508  0.0063  0.2964
12209TIP3    H258043   2.461   1.511  14.531  0.3507  0.0750  0.2675
12210TIP3   OH258044   1.980   5.211   4.689 -0.4556  0.0253 -0.6834
12210TIP3    H158045   1.985   5.271   4.763 -0.0847 -0.0759 -0.6247
12210TIP3    H258046   1.895   5.168   4.698  0.8196 -2.2723  1.4555
12211TIP3   OH258047   1.057   1.242  11.967 -0.0099 -0.2036 -0.4060
12211TIP3    H158048   0.972   1.285  11.959  0.9381  1.5214 -2.8936
12211TIP3    H258049   1.065   1.190  11.887  0.8925 -1.1118  0.2480
12212TIP3   OH258050   0.849   0.305  16.405  0.4650  0.1744 -0.8649
12212TIP3    H158051   0.865   0.253  16.484  2.3548  1.5786 -0.2525
12212TIP3    H258052   0.827   0.241  16.338  1.1406 -1.2647  0.2442
12213TIP3   OH258053   2.135   3.075   3.688 -0.9739 -0.7846  0.1252
12213TIP3    H158054   2.182   3.108   3.611  0.7453 -1.3935  0.8656
12213TIP3    H258055   2.051   3.122   3.687 -0.3506  0.3647 -1.2446
12214TIP3   OH258056   5.040   0.950   2.405 -0.3471  0.3594  0.6923
12214TIP3    H158057   5.069   0.861   2.426  1.4291  0.4967 -0.9133
12214TIP3    H258058   5.095   1.007   2.458 -1.4677  0.5481  1.7037
12215TIP3   OH258059   4.960   3.794  14.563  0.0636  0.5069  0.8258
12215TIP3    H158060   4.972   3.865  14.501 -1.8177 -0.4907 -0.7534
12215TIP3    H258061   5.043   3.746  14.561  0.8551  1.8208  0.9054
12216TIP3   OH258062   3.973   3.061   4.487  0.7955 -0.0337 -0.1373
12216TIP3    H158063   3.923   3.051   4.405  1.0724  0.1036 -0.3225
12216TIP3    H258064   4.053   3.012   4.472  0.7475 -0.1963  0.1384
12217TIP3   OH258065   2.409   6.698   0.362 -0.2768 -0.1848 -0.0989
12217TIP3    H158066   2.423   6.640   0.437 -1.4459  0.2152  0.4532
12217TIP3    H258067   2.411   6.786   0.399  3.5940  0.4221 -1.2108
12218TIP3   OH258068   1.130   3.230  13.975 -0.1142  0.7878 -0.1791
12218TIP3    H158069   1.187   3.229  13.899  0.5032  1.5510  0.2616
12218TIP3    H258070   1.168   3.295  14.034 -1.9559  2.0374 -0.2694
12219TIP3   OH258071   5.529   1.184  15.449 -0.2170  0.0450  0.2666
12219TIP3    H158072   5.572   1.098  15.448 -2.4256 -1.2028 -1.9548
12219TIP3    H258073   5.469   1.180  15.374 -0.4379  3.5609  0.1224
12220TIP3   OH258074   4.053   5.763  16.086  0.5605  0.4258  0.2666
12220TIP3    H158075   4.117   5.776  16.155  0.7025  0.6258  0.0943
12220TIP3    H258076   4.068   5.834  16.024  1.4926 -0.6466 -0.7785
12221TIP3   OH258077   5.854   1.704  13.874 -0.0782  0.1489 -0.3927
12221TIP3    H158078   5.860   1.797  13.852 -2.1121  0.2152 -0.8693
12221TIP3    H258079   5.841   1.702  13.969  1.8379  0.2213 -0.1012
12222TIP3   OH258080   1.371   3.489   2.582 -0.0601 -0.3869 -0.0665
12222TIP3    H158081   1.331   3.570   2.549  1.0316  0.6555  1.0962
12222TIP3    H258082   1.404   3.511   2.668  0.5860 -1.9956  0.1410
12223TIP3   OH258083   3.328   4.892  12.267  0.0957  0.0059 -0.6598
12223TIP3    H158084   3.377   4.910  12.187  0.0720  0.9467 -0.4716
12223TIP3    H258085   3.366   4.950  12.333 -0.1625 -0.4560 -0.0931
12224TIP3   OH258086   5.030   5.939  13.635 -0.0997 -0.0746  0.1602
12224TIP3    H158087   5.054   5.866  13.578  1.6453 -0.1359  0.9379
12224TIP3    H258088   5.113   5.979  13.659 -0.8951  0.7706  1.6029
12225TIP3   OH258089   4.859   3.039   3.162 -0.2992  0.9460 -0.2166
12225TIP3    H158090   4.809   2.957   3.159 -0.0231  0.7692  0.0531
12225TIP3    H258091   4.916   3.035   3.085  2.3689 -0.8099  1.6896
12226TIP3   OH258092   4.202   0.136   3.972  0.0430 -0.4452 -0.2977
12226TIP3    H158093   4.210   0.159   3.880  2.5045 -1.1401 -0.3240
12226TIP3    H258094   4.267   0.189   4.016 -2.0569  0.9502  1.3306
12227TIP3   OH258095   1.876   3.614   4.586  0.1242 -0.4306 -0.5272
12227TIP3    H158096   1.851   3.574   4.669 -1.7894 -0.7818 -1.2252
12227TIP3    H258097   1.814   3.685   4.574  2.5998  1.9828  0.0026
12228TIP3   OH258098   3.701   0.161   6.005  0.1512  0.7082  0.4345
12228TIP3    H158099   3.776   0.162   6.064 -0.2976  0.3070  1.0200
12228TIP3    H258100   3.686   0.068   5.988 -0.0799  0.7986  0.1477
12229TIP3   OH258101   3.964   4.114  12.379  0.3136  0.2344  0.2010
12229TIP3    H158102   3.974   4.153  12.466 -1.5718  0.5467  0.3342
12229TIP3    H258103   3.976   4.187  12.319 -0.7509  0.5462  0.3385
12230TIP3   OH258104   5.640   6.069   1.023  0.4096 -0.0689  0.3681
12230TIP3    H158105   5.618   6.060   1.116  3.0081 -1.3298  0.9646
12230TIP3    H258106   5.691   5.990   1.003  1.5162  1.0860 -1.6487
12231TIP3   OH258107   2.954   2.452   4.612 -0.0853  0.1161  0.2625
12231TIP3    H158108   2.914   2.441   4.525 -0.7275  0.5682  0.4919
12231TIP3    H258109   2.996   2.368   4.629  0.5748  0.2231 -0.7451
12232TIP3   OH258110   6.645   4.468  14.608 -0.1035 -0.4239 -0.2716
12232TIP3    H158111   6.584   4.475  14.682 -0.3170  1.9286 -0.6006
12232TIP3    H258112   6.667   4.375  14.604 -1.6465 -0.9237  1.4847
12233TIP3   OH258113   6.041   3.816   4.473 -0.2992  0.0828 -0.5754
12233TIP3    H158114   6.101   3.744   4.453  0.1102 -0.4713  2.2272
12233TIP3    H258115   6.053   3.878   4.402 -0.0066 -2.1958 -2.6334
12234TIP3   OH258116   0.800   5.134  15.430 -0.1185  0.2448  0.3708
12234TIP3    H158117   0.808   5.181  15.347  0.0108  0.4566  0.5026
12234TIP3    H258118   0.718   5.086  15.423 -0.3321  0.6182  0.2971
12235TIP3   OH258119   6.533   4.881   3.692  0.0944  0.1133 -0.2979
12235TIP3    H158120   6.499   4.794   3.714  1.1139 -0.4022 -0.6643
12235TIP3    H258121   6.567   4.916   3.774 -0.5307  0.2636 -0.1039
12236TIP3   OH258122   4.177   1.844   4.662 -1.0473  0.2167  0.3955
12236TIP3    H158123   4.181   1.810   4.751 -0.7184  1.5291  0.9019
12236TIP3    H258124   4.199   1.937   4.670  0.0591  0.1395 -1.1832
12237TIP3   OH258125   2.316   0.621   1.353 -0.0350 -0.8703  0.3534
12237TIP3    H158126   2.257   0.634   1.427 -1.8834  1.9537 -1.4380
12237TIP3    H258127   2.301   0.530   1.325 -0.5934 -1.4156  2.2798
12238TIP3   OH258128   5.804   0.349   4.539  0.3887 -0.2953  0.1516
12238TIP3    H158129   5.755   0.271   4.562  2.7413 -1.6074  1.0035
12238TIP3    H258130   5.739   0.406   4.496 -1.3071 -2.8441 -0.9046
12239TIP3   OH258131   6.144   2.507  13.320  0.4429 -0.1309  0.4004
12239TIP3    H158132   6.124   2.452  13.395  0.5720  0.6945  1.0567
12239TIP3    H258133   6.240   2.515  13.321  0.3571  1.2044  1.1471
12240TIP3   OH258134   5.013   0.580  17.345  0.1247 -0.6677  0.4551
12240TIP3    H158135   4.924   0.546  17.338  0.5100 -1.5283 -0.4591
12240TIP3    H258136   5.068   0.503  17.356  1.1303 -0.5357 -2.7411
12241TIP3   OH258137   4.372   0.608   5.606  0.0602  0.2268 -0.1272
12241TIP3    H158138   4.365   0.524   5.652  0.5979  0.7222  0.8779
12241TIP3    H258139   4.404   0.669   5.672 -0.4188  1.2563 -0.8218
12242TIP3   OH258140   0.250   2.504  14.328  0.1590  0.0019  0.3078
12242TIP3    H158141   0.172   2.560  14.331  0.2361  0.3768 -2.1753
12242TIP3    H258142   0.313   2.549  14.384 -1.0724  0.1964  1.6039
12243TIP3   OH258143   0.999   2.610  17.070 -0.3738  0.0225 -0.1626
12243TIP3    H158144   0.917   2.630  17.116 -0.3283 -0.9261  0.3478
12243TIP3    H258145   0.977   2.619  16.977 -0.3894  2.2679 -0.0128
12244TIP3   OH258146   0.363   0.120   3.528 -0.3501  0.0483 -0.2247
12244TIP3    H158147   0.419   0.081   3.461 -0.2884 -0.4011  0.0876
12244TIP3    H258148   0.295   0.054   3.544 -0.0418 -0.0832  0.5669
12245TIP3   OH258149   1.161   5.078  14.902  0.6457 -0.3380  0.0155
12245TIP3    H158150   1.085   5.080  14.960 -0.6463 -1.3404 -1.5690
12245TIP3    H258151   1.218   5.011  14.939 -0.0574 -0.8067  0.2554
12246TIP3   OH258152   5.251   6.044  15.702 -0.1116 -0.5537  0.2162
12246TIP3    H158153   5.218   5.980  15.765 -1.0320 -0.3927 -0.0801
12246TIP3    H258154   5.173   6.093  15.676  0.4612  0.1766 -0.1367
12247TIP3   OH258155   5.569   2.570   1.474  0.3034 -0.0584 -0.1501
12247TIP3    H158156   5.491   2.570   1.529 -0.2625 -0.8246 -0.9365
12247TIP3    H258157   5.641   2.591   1.535 -0.5312  0.9948  0.5191
12248TIP3   OH258158   4.615   1.474   2.558  0.5997  0.2242  0.3242
12248TIP3    H158159   4.544   1.536   2.539  0.6385  1.1492  2.7883
12248TIP3    H258160   4.570   1.393   2.580  0.4971 -0.2806 -1.5921
12249TIP3   OH258161   5.318   0.897  13.114 -0.0722  0.5134  0.0581
12249TIP3    H158162   5.241   0.871  13.062 -0.8056  1.9310  0.3878
12249TIP3    H258163   5.282   0.925  13.198  1.0132 -0.7286  0.9770
12250TIP3   OH258164   3.967   3.888   1.505  0.1337 -0.0201 -0.0147
12250TIP3    H158165   4.042   3.891   1.446  0.7356  1.1252  0.7656
12250TIP3    H258166   3.954   3.979   1.532 -0.2808 -0.4655  1.4005
12251TIP3   OH258167   3.790   0.684  15.088 -0.8810  0.3722  0.3220
12251TIP3    H158168   3.728   0.614  15.067 -1.6509  0.3188  2.5308
12251TIP3    H258169   3.870   0.637  15.113 -0.8746  0.3419  0.2454
12252TIP3   OH258170   3.618   3.219  10.922 -0.2075  0.8664  0.6043
12252TIP3    H158171   3.614   3.130  10.959 -0.2670  1.0430  1.0277
12252TIP3    H258172   3.550   3.219  10.855  1.9058 -0.4384 -1.7281
12253TIP3   OH258173   3.013   2.709  13.311 -0.1408 -0.1015 -0.0380
12253TIP3    H158174   2.988   2.616  13.308 -0.2349 -0.1202  1.0853
12253TIP3    H258175   3.025   2.733  13.219  1.1592 -1.5714 -0.2986
12254TIP3   OH258176   0.960   3.024  11.339 -0.2632 -0.2297 -0.0393
12254TIP3    H158177   1.043   2.984  11.364 -0.8110 -1.2859  0.1450
12254TIP3    H258178   0.974   3.057  11.250 -0.0242 -1.5148 -0.4881
12255TIP3   OH258179   5.244   4.588  17.065 -0.2223 -0.7896  0.4742
12255TIP3    H158180   5.192   4.519  17.107 -1.3647 -0.3529 -0.1852
12255TIP3    H258181   5.180   4.645  17.023  0.7964 -0.3014 -0.4828
12256TIP3   OH258182   1.696   3.341   1.566  0.3499  0.1072 -0.2643
12256TIP3    H158183   1.619   3.367   1.516  0.7274  2.0469  0.0947
12256TIP3    H258184   1.668   3.263   1.615 -0.8005 -0.2823 -1.4951
12257TIP3   OH258185   4.808   6.089   0.776  0.9395  0.5344 -0.0966
12257TIP3    H158186   4.839   6.042   0.699  0.8217  3.6370 -2.1812
12257TIP3    H258187   4.719   6.117   0.753  1.0230  1.8173  1.0417
12258TIP3   OH258188   5.215   4.613  14.444  0.0006 -0.7807  0.3340
12258TIP3    H158189   5.197   4.527  14.483  0.6765 -1.3465 -0.5645
12258TIP3    H258190   5.310   4.614  14.430 -0.0155  0.0760  0.2503
12259TIP3   OH258191   1.027   3.577   6.411 -0.4822  0.2404 -0.6451
12259TIP3    H158192   1.034   3.664   6.451 -1.1662 -0.1582  0.4016
12259TIP3    H258193   0.954   3.535   6.457  0.1614 -1.0778 -0.7500
12260TIP3   OH258194   1.325   2.751  16.820 -0.0924  0.2475  0.0923
12260TIP3    H158195   1.410   2.795  16.808  0.4495 -0.9071 -0.4713
12260TIP3    H258196   1.261   2.822  16.818  0.7506  1.0172 -0.8176
12261TIP3   OH258197   0.539   6.656   1.374  0.0187 -0.3746  0.2348
12261TIP3    H158198   0.516   6.710   1.450  2.3819  0.3473  0.5087
12261TIP3    H258199   0.584   6.716   1.315  1.3561 -1.6990 -0.1397
12262TIP3   OH258200   1.378   3.983  14.626  0.6683  0.4712  0.5573
12262TIP3    H158201   1.347   3.898  14.596  2.1901  0.0923  0.0085
12262TIP3    H258202   1.327   4.046  14.575  0.9556 -0.1374 -0.5013
12263TIP3   OH258203   4.455   0.336  11.585  0.1633  0.0462  0.1575
12263TIP3    H158204   4.425   0.287  11.509 -0.0057 -1.0024  0.8839
12263TIP3    H258205   4.375   0.367  11.628  0.1343 -1.3332  1.1665
12264TIP3   OH258206   2.177   5.722   6.274  0.5735 -0.0455  0.3028
12264TIP3    H158207   2.135   5.652   6.223  1.4848 -0.5118  0.1649
12264TIP3    H258208   2.267   5.692   6.285  0.8868  0.9556  0.5452
12265TIP3   OH258209   6.614   6.440   5.312  0.1552  0.4762  0.0198
12265TIP3    H158210   6.694   6.451   5.259  0.0371  0.9708 -0.0638
12265TIP3    H258211   6.635   6.482   5.395  0.6080 -0.9567  0.6650
12266TIP3   OH258212   0.271   6.427   2.380  0.2788 -0.1543 -0.1461
12266TIP3    H158213   0.308   6.515   2.369 -0.2145  0.1015  0.1898
12266TIP3    H258214   0.341   6.376   2.419  0.5119  0.1358 -0.1757
12267TIP3   OH258215   4.058   3.435  15.216  0.2873 -0.1788 -0.4412
12267TIP3    H158216   4.040   3.361  15.158  0.0486  0.6526 -1.4473
12267TIP3    H258217   4.008   3.415  15.296 -0.8764 -0.4554 -1.2085
12268TIP3   OH258218   4.973   4.597  12.298  0.2354  0.1453  0.3980
12268TIP3    H158219   4.987   4.505  12.277  1.0735  0.2809  0.3097
12268TIP3    H258220   5.023   4.611  12.379  0.9282  0.7416 -0.1172
12269TIP3   OH258221   3.297   4.559  15.318 -0.3521  0.3093  0.1706
12269TIP3    H158222   3.350   4.503  15.375 -0.1491 -0.1653 -0.4645
12269TIP3    H258223   3.259   4.625  15.376  0.6695  0.4522  0.6842
12270TIP3   OH258224   6.517   1.269   4.022 -0.5410  0.0344 -0.2144
12270TIP3    H158225   6.541   1.185   3.983  0.4733 -0.0125  0.4634
12270TIP3    H258226   6.583   1.283   4.090 -0.1517  1.8077 -0.8980
12271TIP3   OH258227   0.727   0.945   3.257 -0.2299  0.2518  0.3867
12271TIP3    H158228   0.821   0.928   3.247 -0.7175 -2.0057 -1.0760
12271TIP3    H258229   0.698   0.879   3.320 -0.7557  1.3516  1.3217
12272TIP3   OH258230   2.395   5.406  14.593 -0.3848 -0.0581 -0.3566
12272TIP3    H158231   2.368   5.320  14.627  0.6447  0.2083  1.2822
12272TIP3    H258232   2.372   5.404  14.500 -3.1720 -0.9495  0.2526
12273TIP3   OH258233   6.062   4.542  12.649 -0.1118 -0.6703 -0.3752
12273TIP3    H158234   6.132   4.526  12.586  0.1995  0.7422 -0.4184
12273TIP3    H258235   6.097   4.511  12.733  0.9993  0.9388 -0.2033
12274TIP3   OH258236   5.985   5.151   6.213  0.2388  0.4801  0.2125
12274TIP3    H158237   6.005   5.236   6.251  1.6591  0.3752 -0.2604
12274TIP3    H258238   6.040   5.145   6.135  0.9950 -1.3067  0.8268
12275TIP3   OH258239   3.432   2.671  16.921 -0.5589  0.0949 -0.5698
12275TIP3    H158240   3.469   2.663  16.833  0.1025  1.6570 -0.4676
12275TIP3    H258241   3.338   2.665  16.908 -0.4030 -1.5053 -1.1373
12276TIP3   OH258242   0.568   3.988  14.314  0.4181  0.0091  0.2131
12276TIP3    H158243   0.551   4.064  14.369  1.0455 -1.1467  2.0935
12276TIP3    H258244   0.517   3.918  14.354 -1.1583 -0.3572 -2.2046
12277TIP3   OH258245   0.878   4.901   1.812 -0.0537 -0.2651  0.4623
12277TIP3    H158246   0.840   4.834   1.869  0.6098 -0.5759  0.5459
12277TIP3    H258247   0.811   4.917   1.746 -0.4439 -0.5983  0.7747
12278TIP3   OH258248   5.689   2.308  13.638  0.5417  0.1458 -0.4548
12278TIP3    H158249   5.712   2.353  13.557  0.1307  2.0430  0.4318
12278TIP3    H258250   5.751   2.342  13.703  0.7977 -1.2650  0.0891
12279TIP3   OH258251   6.336   4.995  17.288 -0.0886  0.0278 -1.2474
12279TIP3    H158252   6.392   4.920  17.308  0.1909  0.0823 -1.8303
12279TIP3    H258253   6.272   4.961  17.225 -2.0060 -0.5959  0.8545
12280TIP3   OH258254   6.260   4.480   0.843 -0.4653  0.0046 -0.1245
12280TIP3    H158255   6.265   4.574   0.857 -0.0335  0.1112 -0.9173
12280TIP3    H258256   6.301   4.441   0.920  0.6418  0.5103 -0.4443
12281TIP3   OH258257   4.260   0.207  14.307  0.0548 -0.3958  0.3172
12281TIP3    H158258   4.329   0.195  14.242  0.4017  0.2569  0.5548
12281TIP3    H258259   4.259   0.126  14.357 -1.1513 -1.4679 -1.3587
12282TIP3   OH258260   6.013   4.982  17.249  0.4708  0.3116  0.0257
12282TIP3    H158261   5.939   4.923  17.265 -0.2697  1.1863 -0.1332
12282TIP3    H258262   6.050   4.951  17.166 -1.8957  1.9850 -1.8161
12283TIP3   OH258263   6.333   2.619  11.286  0.1838 -0.1076 -0.5065
12283TIP3    H158264   6.366   2.544  11.237 -0.0056  0.5148 -1.6219
12283TIP3    H258265   6.325   2.689  11.221 -1.2907  0.3840  0.1619
12284TIP3   OH258266   4.257   5.313  14.191  0.6558  0.1852 -0.3549
12284TIP3    H158267   4.287   5.325  14.101  0.3847 -0.8786 -0.5959
12284TIP3    H258268   4.172   5.358  14.194  2.2547  3.4494  0.4068
12285TIP3   OH258269   2.243   1.261   5.518  0.3147  0.3335  0.6706
12285TIP3    H158270   2.149   1.265   5.537 -0.1978 -0.6787 -1.3348
12285TIP3    H258271   2.253   1.181   5.466  2.1402  0.8934  0.1093
12286TIP3   OH258272   3.832   1.648  12.825 -0.2088 -0.2222 -0.4213
12286TIP3    H158273   3.870   1.689  12.748 -1.8245  1.7448 -0.2591
12286TIP3    H258274   3.849   1.710  12.896 -2.4083  0.0943 -0.0902
12287TIP3   OH258275   0.046   2.803  16.894  0.0942  0.4300  0.6325
12287TIP3    H158276   0.065   2.881  16.946 -1.0725  0.8085  0.5211
12287TIP3    H258277   0.003   2.836  16.815 -0.5818 -0.3300  0.6653
12288TIP3   OH258278   5.542   0.846  16.414 -1.2354 -0.7674  0.1302
12288TIP3    H158279   5.478   0.883  16.474 -0.4417 -0.3007  0.7154
12288TIP3    H258280   5.559   0.916  16.350 -0.9988 -0.7366  0.2270
12289TIP3   OH258281   3.029   3.772  17.088 -0.2550 -0.8559  0.1918
12289TIP3    H158282   3.011   3.790  16.996 -2.0297 -0.6189  0.5374
12289TIP3    H258283   3.006   3.854  17.133  0.5836 -0.9681  0.8539
12290TIP3   OH258284   5.933   6.225  15.451 -0.2094 -0.0094  0.4354
12290TIP3    H158285   5.905   6.295  15.392 -1.3254  0.2365  1.2249
12290TIP3    H258286   5.982   6.270  15.520  0.2425 -0.1749  0.2231
12291TIP3   OH258287   5.000   2.968  16.614 -0.5953 -0.2572 -0.2537
12291TIP3    H158288   4.932   3.026  16.578 -0.0213 -0.0530 -1.0407
12291TIP3    H258289   4.952   2.907  16.669 -1.3498  0.2624 -0.3126
12292TIP3   OH258290   1.179   5.634   2.326  0.1427 -0.5315 -0.0253
12292TIP3    H158291   1.236   5.576   2.276 -0.0758 -0.2142 -0.6510
12292TIP3    H258292   1.226   5.650   2.408  1.1171  0.0124 -0.6735
12293TIP3   OH258293   0.312   4.119   3.943 -0.0988  0.5700  0.7179
12293TIP3    H158294   0.228   4.163   3.928 -0.0094  0.6578  0.4775
12293TIP3    H258295   0.348   4.164   4.020 -0.4116  0.3254  1.0128
12294TIP3   OH258296   4.692   3.902   2.905  0.0332  0.1273  0.1663
12294TIP3    H158297   4.725   3.871   2.821  1.4173  1.1915  0.2791
12294TIP3    H258298   4.766   3.893   2.965 -0.9737 -0.7417  1.3255
12295TIP3   OH258299   2.050   6.230   2.340 -0.1648 -0.3720 -0.9315
12295TIP3    H158300   2.139   6.207   2.369  0.6249  2.6448 -0.6013
12295TIP3    H258301   2.009   6.146   2.321  2.1435 -2.0098  0.6728
12296TIP3   OH258302   1.518   6.029  13.312  0.7476 -0.3534 -0.0622
12296TIP3    H158303   1.600   6.070  13.286  1.2152 -0.9593  0.3958
12296TIP3    H258304   1.469   6.098  13.358  1.3336 -0.1870  0.3237
12297TIP3   OH258305   4.167   6.105   5.611  0.4435  0.0339  0.1724
12297TIP3    H158306   4.077   6.129   5.637 -0.0789 -2.1584  0.5387
12297TIP3    H258307   4.211   6.085   5.693  1.0684  0.4059 -0.0703
12298TIP3   OH258308   4.154   5.104   1.515  0.6083 -0.3407 -0.0457
12298TIP3    H158309   4.245   5.078   1.510  1.2712  1.2867  2.0137
12298TIP3    H258310   4.143   5.137   1.604 -1.3314  1.8081 -0.9674
12299TIP3   OH258311   4.381   6.180   3.119 -0.1364 -0.2032 -0.1424
12299TIP3    H158312   4.350   6.267   3.144  2.2666  0.3754  1.1438
12299TIP3    H258313   4.328   6.120   3.171 -1.7708  0.4426 -0.9903
12300TIP3   OH258314   5.430   4.261   0.211  0.3656 -0.1722 -0.6601
12300TIP3    H158315   5.486   4.204   0.158  1.0579 -0.3503  0.2324
12300TIP3    H258316   5.491   4.308   0.268 -0.3941 -0.5770  0.5392
12301TIP3   OH258317   2.489   3.473   2.698  0.2090 -0.4557 -0.6341
12301TIP3    H158318   2.509   3.550   2.751 -1.3785 -1.2082  1.1732
12301TIP3    H258319   2.509   3.500   2.608  0.3054  1.8377  0.0102
12302TIP3   OH258320   4.608   2.264  16.577  0.1979  0.1802  0.4684
12302TIP3    H158321   4.549   2.212  16.632 -0.9399 -1.8829 -2.4728
12302TIP3    H258322   4.673   2.298  16.638 -0.8552 -2.0540  3.0484
12303TIP3   OH258323   3.340   5.973   0.953  0.3841 -0.4046  0.2516
12303TIP3    H158324   3.253   5.966   0.993  0.0399 -1.9370 -0.6552
12303TIP3    H258325   3.346   5.895   0.897  0.5760  1.9000 -3.1931
12304TIP3   OH258326   2.819   2.959   3.236  0.1979  0.3106 -0.1661
12304TIP3    H158327   2.793   2.895   3.170 -0.5050 -0.0211  0.4217
12304TIP3    H258328   2.898   2.923   3.275  1.1510  0.9445 -1.4224
12305TIP3   OH258329   2.506   4.407  16.193  1.2008 -0.7839  0.8357
12305TIP3    H158330   2.542   4.459  16.121  0.3044  0.8904  1.5373
12305TIP3    H258331   2.427   4.367  16.156 -0.7157  2.1065  1.4493
12306TIP3   OH258332   5.440   2.286  14.707  0.1071 -0.4491 -0.1426
12306TIP3    H158333   5.414   2.377  14.719 -0.7472 -0.5283 -1.2469
12306TIP3    H258334   5.438   2.249  14.795 -0.4839  0.3623  0.1976
12307TIP3   OH258335   2.411   6.257  15.945 -0.4571  0.0132 -0.2312
12307TIP3    H158336   2.442   6.200  16.016  0.7564  0.3394 -0.4857
12307TIP3    H258337   2.323   6.283  15.973 -0.8512 -1.5729  0.1324
12308TIP3   OH258338   3.233   4.318  11.493 -0.1398  0.6001 -0.2249
12308TIP3    H158339   3.203   4.267  11.418 -0.3905 -0.0518  0.3071
12308TIP3    H258340   3.314   4.359  11.463  1.4428 -2.1018  0.1051
12309TIP3   OH258341   6.465   2.367  13.866 -0.4296  0.0115 -0.2524
12309TIP3    H158342   6.527   2.298  13.890 -2.4289 -1.3712  1.3914
12309TIP3    H258343   6.406   2.325  13.803 -1.1022  0.4969  0.0357
12310TIP3   OH258344   1.577   3.480  14.351  0.8113  0.8091  0.0774
12310TIP3    H158345   1.554   3.542  14.281 -1.2853 -1.7406 -1.7017
12310TIP3    H258346   1.643   3.423  14.311 -1.2651 -1.4214 -0.4276
12311TIP3   OH258347   1.210   0.531   2.583 -0.4754 -0.5640  0.2047
12311TIP3    H158348   1.281   0.540   2.518 -0.4581  0.8370  0.3963
12311TIP3    H258349   1.197   0.619   2.616 -1.7136 -0.9721  0.8352
12312TIP3   OH258350   5.664   5.656   4.354 -0.3280 -0.1504 -0.1877
12312TIP3    H158351   5.609   5.734   4.354 -0.3993 -0.1947 -0.7466
12312TIP3    H258352   5.739   5.680   4.298  0.5807  0.1566  1.1237
12313TIP3   OH258353   3.581   1.279  17.058  0.3062 -0.3367 -0.7782
12313TIP3    H158354   3.551   1.261  17.147 -1.3589  1.0563 -1.0195
12313TIP3    H258355   3.591   1.192  17.019  0.3241 -0.9497  0.5090
12314TIP3   OH258356   1.429   0.188  16.743  0.1736  0.0072 -0.3705
12314TIP3    H158357   1.497   0.146  16.690  2.4271  1.5435  1.1355
12314TIP3    H258358   1.427   0.137  16.824 -0.1704  0.2390 -0.2289
12315TIP3   OH258359   0.207   5.288   2.968 -0.3408  0.5521  0.7780
12315TIP3    H158360   0.239   5.236   3.042  0.4687  0.2641  0.2299
12315TIP3    H258361   0.171   5.224   2.907 -3.9780  0.9311  2.2310
12316TIP3   OH258362   4.345   6.330  15.575  0.0948 -0.0111 -0.2063
12316TIP3    H158363   4.433   6.331  15.536  0.4725 -0.1772  0.6303
12316TIP3    H258364   4.343   6.405  15.633  0.2043 -0.8155  0.8752
12317TIP3   OH258365   0.971   2.894  13.221 -0.0880  0.5068  0.2724
12317TIP3    H158366   0.953   2.847  13.140 -1.1824 -2.3070  2.0358
12317TIP3    H258367   1.060   2.930  13.208 -0.6989  1.2957 -2.5795
12318TIP3   OH258368   5.143   1.233  13.557  0.1117  0.3141  0.9262
12318TIP3    H158369   5.111   1.277  13.478 -0.4653 -1.8648 -0.1103
12318TIP3    H258370   5.230   1.269  13.571 -0.4081  1.9226  0.2684
12319TIP3   OH258371   1.918   1.049   5.846  0.8578  0.1240 -0.0865
12319TIP3    H158372   1.840   1.089   5.808  1.8735  0.3817 -1.9993
12319TIP3    H258373   1.925   0.964   5.803  1.1306 -0.3066  0.7690
12320TIP3   OH258374   2.449   1.230  13.954  0.5101 -0.4237  0.1428
12320TIP3    H158375   2.514   1.191  13.896  0.9468  0.3955  0.0652
12320TIP3    H258376   2.365   1.212  13.913  0.8374  0.5469 -1.0020
12321TIP3   OH258377   4.109   5.163   0.629 -0.2699  0.0098 -0.5601
12321TIP3    H158378   4.081   5.154   0.538 -1.6799 -1.6344 -0.0153
12321TIP3    H258379   4.172   5.234   0.628  0.0791 -0.2741 -2.8966
12322TIP3   OH258380   1.495   0.591  15.194 -0.0105  0.3061  0.0178
12322TIP3    H158381   1.551   0.556  15.125 -1.2815 -0.6790 -0.5616
12322TIP3    H258382   1.445   0.662  15.152 -0.1241  0.3263  0.1824
12323TIP3   OH258383   5.948   0.263  16.676 -0.4645 -0.2232  0.0265
12323TIP3    H158384   5.968   0.356  16.665 -1.1463  0.0272  0.7989
12323TIP3    H258385   5.859   0.254  16.640 -0.6793 -0.4249  0.5999
12324TIP3   OH258386   5.420   5.438   4.203 -0.1525  0.0293 -0.1079
12324TIP3    H158387   5.481   5.418   4.274 -1.3594 -1.9634  0.4404
12324TIP3    H258388   5.460   5.398   4.125  0.6068  1.2259 -0.3599
12325TIP3   OH258389   1.357   0.908   3.822 -0.0215  0.5051 -0.3751
12325TIP3    H158390   1.353   0.884   3.915  0.8349  1.5029 -0.0579
12325TIP3    H258391   1.298   0.983   3.814 -0.3505  0.2131 -0.7125
12326TIP3   OH258392   2.179   1.459  16.963  0.0986 -0.2455 -0.3154
12326TIP3    H158393   2.100   1.426  17.006 -1.1403  1.1914 -1.3839
12326TIP3    H258394   2.167   1.553  16.960  2.3364  0.1197  0.3460
12327TIP3   OH258395   3.912   6.421   4.137  0.4341 -0.2637 -0.6759
12327TIP3    H158396   3.835   6.475   4.118 -0.1757 -1.7180 -2.6661
12327TIP3    H258397   3.985   6.470   4.097  0.9580  1.9401  2.6018
12328TIP3   OH258398   1.409   5.333  13.410  0.4595  0.0699 -0.1788
12328TIP3    H158399   1.387   5.254  13.360  0.9916  0.2159 -0.6489
12328TIP3    H258400   1.404   5.305  13.502  1.0462 -0.6133 -0.3515
12329TIP3   OH258401   1.805   1.344  12.506 -0.2376  0.1434 -0.2325
12329TIP3    H158402   1.792   1.436  12.526  0.4434  0.4547 -1.1330
12329TIP3    H258403   1.818   1.342  12.411  0.4533 -0.7885 -0.1330
12330TIP3   OH258404   0.700   2.898  13.622 -0.0131 -0.5923  0.3405
12330TIP3    H158405   0.742   2.968  13.572 -0.2100 -1.3956 -1.0189
12330TIP3    H258406   0.634   2.942  13.675 -2.1648  0.0603 -2.6325
12331TIP3   OH258407   2.487   4.501  17.295 -0.0054  0.1941  0.0191
12331TIP3    H158408   2.503   4.416  17.254  0.4723  0.3434 -0.1086
12331TIP3    H258409   2.409   4.487  17.350 -1.0473  0.1637 -1.4257
12332TIP3   OH258410   5.378   4.892  17.047 -0.3782 -0.1240 -0.4655
12332TIP3    H158411   5.356   4.969  17.099 -0.1137 -0.4241  0.1001
12332TIP3    H258412   5.293   4.853  17.025 -0.5412  0.6538 -1.2747
12333TIP3   OH258413   4.269   3.754   2.471 -0.8413  0.4531  0.1370
12333TIP3    H158414   4.196   3.726   2.527 -0.4277  0.3981  0.6512
12333TIP3    H258415   4.333   3.792   2.531 -0.9756  1.6585 -0.4443
12334TIP3   OH258416   3.282   1.062   2.693  0.0981  0.2953  0.0634
12334TIP3    H158417   3.350   1.084   2.756 -0.0801  1.0519  0.0002
12334TIP3    H258418   3.233   1.143   2.681  0.3141  0.2551 -1.2873
12335TIP3   OH258419   0.046   1.167   6.386  0.0380 -0.2222 -0.5137
12335TIP3    H158420  -0.016   1.228   6.346 -0.6229 -0.4453  0.1398
12335TIP3    H258421   0.129   1.215   6.388 -0.4624  0.6511 -0.0501
12336TIP3   OH258422   1.414   2.167  12.130  0.3178 -0.0837  0.5062
12336TIP3    H158423   1.426   2.074  12.113 -0.1209  0.2015 -1.7171
12336TIP3    H258424   1.491   2.192  12.181  0.7090 -1.5556  0.6788
12337TIP3   OH258425   4.921   1.913   1.253  0.2194  0.3818  0.1220
12337TIP3    H158426   4.992   1.851   1.270  0.3529  0.4811 -0.0688
12337TIP3    H258427   4.938   1.944   1.164  0.8297  1.5845  0.6334
12338TIP3   OH258428   0.641   0.074   0.526 -0.1989 -0.3226 -0.4228
12338TIP3    H158429   0.653   0.115   0.612  1.5698 -0.7045 -0.4519
12338TIP3    H258430   0.623   0.147   0.467  0.4294  0.1455 -0.0454
12339TIP3   OH258431   1.782   2.588   3.080  1.3966  0.3142  0.5437
12339TIP3    H158432   1.808   2.674   3.112  0.1075  0.6367  0.7887
12339TIP3    H258433   1.729   2.606   3.003  4.0291 -0.4340 -1.5798
12340TIP3   OH258434   1.124   1.589  12.106 -0.3520  0.5559  0.2583
12340TIP3    H158435   1.198   1.547  12.062 -0.0094 -0.2881  1.5790
12340TIP3    H258436   1.054   1.590  12.040  0.4233  0.1697 -0.5850
12341TIP3   OH258437   3.247   0.448   5.293 -0.4689  0.7636  0.1756
12341TIP3    H158438   3.305   0.488   5.228 -0.0324  0.2067  0.2129
12341TIP3    H258439   3.304   0.431   5.368 -0.8940  1.0809  0.5791
12342TIP3   OH258440   4.713   5.007  12.406  0.2919  0.3419  0.0564
12342TIP3    H158441   4.702   4.941  12.337  0.2410 -0.3347  0.6977
12342TIP3    H258442   4.796   5.049  12.385 -0.3335  1.0322 -1.1392
12343TIP3   OH258443   6.328   3.311   0.676 -0.4026 -0.2345 -0.1913
12343TIP3    H158444   6.419   3.324   0.704  0.1094  0.0353 -1.8565
12343TIP3    H258445   6.333   3.303   0.581 -2.1012 -0.5716 -0.2911
12344TIP3   OH258446   1.584   2.429  12.946  0.4108 -0.0340 -0.2083
12344TIP3    H158447   1.572   2.365  13.016 -1.2371  0.3342 -0.1339
12344TIP3    H258448   1.593   2.376  12.866  0.6623 -0.3937  0.0534
12345TIP3   OH258449   5.130   1.828  12.394 -0.1229  0.2158  0.0356
12345TIP3    H158450   5.036   1.833  12.377 -0.2378  0.7721  0.7718
12345TIP3    H258451   5.141   1.750  12.447  0.0508 -0.7359 -1.3661
12346TIP3   OH258452   3.934   3.086   4.960  0.4724 -0.2248  0.0395
12346TIP3    H158453   3.869   3.058   4.896 -1.5723  0.3692  1.7351
12346TIP3    H258454   3.980   3.158   4.916 -1.5364  0.8354 -0.4763
12347TIP3   OH258455   6.023   4.416  15.846 -0.5955 -0.4138  0.2004
12347TIP3    H158456   6.030   4.373  15.761  0.3528 -1.4376  0.7577
12347TIP3    H258457   5.940   4.385  15.882  0.2257 -2.1061  0.7313
12348TIP3   OH258458   1.813   2.498  14.553 -0.6923  0.4508  0.4749
12348TIP3    H158459   1.848   2.472  14.638  0.7784  2.0383  0.4103
12348TIP3    H258460   1.841   2.427  14.494 -0.2274  0.1876  0.9977
12349TIP3   OH258461   3.378   0.985  12.635  0.1003 -0.2324  0.9899
12349TIP3    H158462   3.294   0.998  12.680  0.1682 -0.4051  1.1677
12349TIP3    H258463   3.354   0.939  12.555  0.0387 -0.3919  1.0990
12350TIP3   OH258464   3.293   1.374   6.488  0.5128  0.3342 -0.6071
12350TIP3    H158465   3.239   1.299   6.462  0.7828 -0.2000  0.3540
12350TIP3    H258466   3.382   1.349   6.464  0.7009  0.0349  0.3812
12351TIP3   OH258467   0.111   5.162   3.218  0.2392  0.5549  0.0235
12351TIP3    H158468   0.123   5.068   3.235  0.8102  0.5281 -0.4878
12351TIP3    H258469   0.138   5.204   3.300  0.2796  0.2865  0.1507
12352TIP3   OH258470   3.577   6.446   2.708 -0.0334  0.9613  0.0553
12352TIP3    H158471   3.609   6.366   2.666  0.7994  1.5814 -0.5331
12352TIP3    H258472   3.498   6.468   2.660 -0.5665  0.2171  0.5628
12353TIP3   OH258473   4.684   2.918   5.174 -0.5139  0.1630 -0.1010
12353TIP3    H158474   4.688   2.832   5.130 -0.2438 -0.7752  1.6866
12353TIP3    H258475   4.775   2.946   5.180 -0.4779 -0.0963  0.5839
12354TIP3   OH258476   1.642   1.824   4.062  0.4439  0.6733 -0.2434
12354TIP3    H158477   1.559   1.783   4.084  1.0885 -0.2888  0.4735
12354TIP3    H258478   1.696   1.813   4.141  1.2472  1.2911 -0.6897
12355TIP3   OH258479   4.099   2.146  17.585 -0.4176 -0.1042  0.1624
12355TIP3    H158480   4.071   2.092  17.511  1.3157 -1.3331  0.3534
12355TIP3    H258481   4.025   2.143  17.646 -0.6706 -1.6809 -0.1640
12356TIP3   OH258482   5.767   5.838   0.751  0.0944 -0.0347 -0.1919
12356TIP3    H158483   5.802   5.792   0.828 -1.4484 -1.0092 -0.0239
12356TIP3    H258484   5.843   5.853   0.695  0.6874 -2.8316 -0.2573
12357TIP3   OH258485   5.227   6.686   6.061  0.2147  0.8491  0.2461
12357TIP3    H158486   5.224   6.716   6.152  1.3343  0.6437  0.3641
12357TIP3    H258487   5.283   6.750   6.016  2.2997 -0.7516  0.4083
12358TIP3   OH258488   2.940   1.609   3.188 -0.4698 -0.1543  0.7365
12358TIP3    H158489   2.877   1.561   3.135  1.4138 -1.7457 -0.2147
12358TIP3    H258490   2.907   1.602   3.278 -2.3974  0.3911  0.1027
12359TIP3   OH258491   4.797   0.486  14.037  0.0411  0.3311 -0.2441
12359TIP3    H158492   4.784   0.394  14.061 -2.0939  0.6407 -0.0083
12359TIP3    H258493   4.823   0.483  13.945 -1.4475 -0.4972 -0.6754
12360TIP3   OH258494   1.172   2.774  12.026 -0.1201  0.0189  0.3349
12360TIP3    H158495   1.114   2.808  11.958 -1.0293 -0.9352  0.6036
12360TIP3    H258496   1.198   2.851  12.076  0.4728  0.7250 -0.9981
12361TIP3   OH258497   1.955   4.042   5.669 -0.5964 -0.0877  0.4962
12361TIP3    H158498   1.925   4.001   5.750 -3.0956 -0.9945 -0.7703
12361TIP3    H258499   2.006   3.975   5.625  0.9276  0.4697  1.3490
12362TIP3   OH258500   5.776   4.284  13.853 -0.3523 -0.2748 -0.2344
12362TIP3    H158501   5.867   4.310  13.846 -0.9036  2.2909  1.0358
12362TIP3    H258502   5.736   4.315  13.772 -0.2182 -0.9751 -0.5781
12363TIP3   OH258503   5.140   4.376  13.402  0.3916 -0.2014  0.2723
12363TIP3    H158504   5.210   4.441  13.410  0.2069 -0.0806  1.0203
12363TIP3    H258505   5.186   4.292  13.401  0.5382 -0.1545  1.3076
12364TIP3   OH258506   0.927   1.435  16.863  0.2901  0.5976  0.4226
12364TIP3    H158507   0.931   1.525  16.895  1.8278  1.9206 -2.9513
12364TIP3    H258508   0.932   1.444  16.768  0.6359 -3.0903 -0.0462
12365TIP3   OH258509   6.544   6.380   0.187 -0.0325  0.0784  0.3797
12365TIP3    H158510   6.503   6.365   0.272 -0.2441  0.3175  0.3213
12365TIP3    H258511   6.577   6.470   0.192  1.7701 -0.5638  0.9549
12366TIP3   OH258512   0.005   6.048  12.746 -0.0613  0.0282 -0.4270
12366TIP3    H158513  -0.067   6.043  12.684 -0.5281  1.6685 -0.0668
12366TIP3    H258514   0.022   5.957  12.771 -1.4759 -0.4459 -1.1053
12367TIP3   OH258515   2.613   1.575   5.884  0.0262  0.0818 -0.4824
12367TIP3    H158516   2.577   1.643   5.941  0.8489 -0.3170  0.5581
12367TIP3    H258517   2.671   1.524   5.941  1.8083  0.3794 -1.9425
12368TIP3   OH258518   6.005   2.994   1.714  0.2583 -0.4968  0.3506
12368TIP3    H158519   6.030   3.009   1.805 -1.2531 -2.6919  1.2069
12368TIP3    H258520   6.081   2.949   1.676  0.3816 -0.7665  0.9038
12369TIP3   OH258521   5.691   4.307  11.600 -0.1412 -0.2062  0.0468
12369TIP3    H158522   5.738   4.380  11.561  1.3951 -0.5520  1.1329
12369TIP3    H258523   5.647   4.264  11.527  0.7407  0.5083 -0.9272
12370TIP3   OH258524   6.113   3.223  15.288  0.0356 -0.3296  0.5312
12370TIP3    H158525   6.025   3.203  15.259  0.1025  1.5269 -1.1868
12370TIP3    H258526   6.169   3.203  15.213  0.9920 -0.7493  1.3290
12371TIP3   OH258527   4.252   0.745  15.574 -0.7866  0.5438  0.1871
12371TIP3    H158528   4.340   0.764  15.608  0.2312  1.0512 -2.4699
12371TIP3    H258529   4.199   0.820  15.601 -0.3036  0.4836  1.3806
12372TIP3   OH258530   0.366   5.913   5.715 -0.0166  0.2135  0.1931
12372TIP3    H158531   0.457   5.935   5.696  0.1848 -0.9592 -0.2939
12372TIP3    H258532   0.365   5.892   5.809  0.3629 -0.4110  0.0634
12373TIP3   OH258533   5.032   0.834   5.709 -0.0598  0.0064  0.3773
12373TIP3    H158534   4.981   0.880   5.775 -2.6468  0.2942 -1.6631
12373TIP3    H258535   5.112   0.887   5.698 -0.7917  1.3731  1.4025
12374TIP3   OH258536   0.318   2.559   2.804 -0.1230 -0.1594  0.4544
12374TIP3    H158537   0.249   2.583   2.866  0.1903  1.8659  0.0960
12374TIP3    H258538   0.398   2.560   2.857 -0.2972 -2.4728  0.8620
12375TIP3   OH258539   6.268   4.991  15.128 -0.2589 -0.6973 -0.3960
12375TIP3    H158540   6.338   4.973  15.066 -0.7295  0.8947 -1.4458
12375TIP3    H258541   6.189   4.960  15.083 -0.5499  0.0628 -0.4165
12376TIP3   OH258542   3.356   2.746  13.250 -0.2754 -0.2693 -0.0459
12376TIP3    H158543   3.330   2.705  13.332 -3.0401  0.7031 -0.3390
12376TIP3    H258544   3.332   2.682  13.183 -0.2989 -0.0746 -0.2241
12377TIP3   OH258545   1.862   6.417  10.380  0.0904 -0.6635 -0.1134
12377TIP3    H158546   1.795   6.478  10.348 -0.0370 -0.4503  0.5330
12377TIP3    H258547   1.816   6.333  10.387 -0.5945 -0.2018  1.8206
12378TIP3   OH258548   4.654   1.491   2.890  0.1185 -0.3219 -0.6128
12378TIP3    H158549   4.675   1.401   2.917 -1.3071 -1.1999 -2.2200
12378TIP3    H258550   4.562   1.486   2.864  0.3163  1.3725 -1.7264
12379TIP3   OH258551   0.582   5.738  12.209  0.1195 -0.1689  0.9585
12379TIP3    H158552   0.663   5.701  12.173 -0.9145 -0.6188 -1.0072
12379TIP3    H258553   0.571   5.694  12.293  1.0210 -1.3528  0.4837
12380TIP3   OH258554   5.029   3.534  12.456  0.3124 -0.4519 -0.5699
12380TIP3    H158555   5.121   3.538  12.430  0.3437 -0.3327 -0.4413
12380TIP3    H258556   4.981   3.555  12.377  0.3927 -0.6329 -0.6680
12381TIP3   OH258557   1.744   5.557   5.098  0.2490 -0.1004  0.4555
12381TIP3    H158558   1.794   5.634   5.126  0.2737 -0.6843  2.0819
12381TIP3    H258559   1.748   5.560   5.002 -1.3691  3.0062  0.3259
12382TIP3   OH258560   4.519   3.407   5.163 -0.3542  0.0700 -0.2842
12382TIP3    H158561   4.447   3.425   5.102 -1.4065 -0.8938  0.6168
12382TIP3    H258562   4.509   3.314   5.183  1.4049 -0.1767 -0.4280
12383TIP3   OH258563   1.473   3.277   4.749  0.0058  0.4632  0.2460
12383TIP3    H158564   1.414   3.311   4.682 -1.7504 -0.8895  0.9973
12383TIP3    H258565   1.561   3.289   4.713 -0.7327  2.1346 -1.1305
12384TIP3   OH258566   2.058   2.233   3.084 -0.1047  0.0149 -0.7156
12384TIP3    H158567   2.131   2.172   3.091  0.4599  0.8183  1.5034
12384TIP3    H258568   2.092   2.305   3.031 -0.0110 -0.5418 -1.4293
12385TIP3   OH258569   0.334   0.534   0.159 -0.2439 -0.3263  0.3202
12385TIP3    H158570   0.301   0.617   0.125  0.3039 -0.7835 -1.4264
12385TIP3    H258571   0.406   0.558   0.218 -1.7114  0.5236  1.8657
12386TIP3   OH258572   3.720   5.901  12.569  0.1705 -0.1115 -0.7100
12386TIP3    H158573   3.685   5.833  12.628 -0.3126  0.0965 -0.7479
12386TIP3    H258574   3.762   5.964  12.628  0.9300 -0.6186 -0.7031
12387TIP3   OH258575   0.899   4.849  11.889  0.3360 -0.1937 -0.3086
12387TIP3    H158576   0.920   4.775  11.832  0.9509  0.0637 -0.4214
12387TIP3    H258577   0.979   4.863  11.940  0.1936  0.3356 -0.2255
12388TIP3   OH258578   6.307   4.724  13.860 -0.4168  0.3432  0.4081
12388TIP3    H158579   6.255   4.677  13.795 -0.1247  2.0092 -1.0951
12388TIP3    H258580   6.281   4.684  13.944 -3.1975  0.2602 -0.3910
12389TIP3   OH258581   4.347   4.284   1.271 -0.0105  0.0886 -0.1362
12389TIP3    H158582   4.352   4.363   1.217 -1.2742 -0.2432 -0.7919
12389TIP3    H258583   4.438   4.259   1.288  0.4164  0.3310 -1.9459
12390TIP3   OH258584   2.450   2.433  16.307 -0.3490 -0.0211  0.3058
12390TIP3    H158585   2.441   2.409  16.399 -0.1906  1.2682  0.6720
12390TIP3    H258586   2.536   2.398  16.282  0.2732  0.8904  1.0818
12391TIP3   OH258587   6.569   4.648   4.481 -0.5257  0.1346 -0.3417
12391TIP3    H158588   6.535   4.584   4.544  1.3900 -1.7565 -1.0946
12391TIP3    H258589   6.661   4.657   4.505 -0.5673  2.0283 -0.7924
12392TIP3   OH258590   1.082   6.389  15.565  0.5004 -0.1105  0.5956
12392TIP3    H158591   1.134   6.338  15.627 -0.7913 -2.2963 -0.0078
12392TIP3    H258592   0.995   6.349  15.570  0.1439  0.2360 -1.9756
12393TIP3   OH258593   2.143   2.525   1.090 -0.6686 -0.4331  0.1404
12393TIP3    H158594   2.142   2.477   1.172  2.3610  0.8564  1.0991
12393TIP3    H258595   2.226   2.499   1.048 -0.8773  0.8955 -1.2160
12394TIP3   OH258596   6.208   5.618  13.445  0.2555 -0.0422 -0.1408
12394TIP3    H158597   6.178   5.544  13.499 -0.4975  0.7061  0.4994
12394TIP3    H258598   6.169   5.601  13.359  0.4701 -0.6289 -0.1285
12395TIP3   OH258599   0.612   5.151   2.123  0.4148 -0.5040  0.5706
12395TIP3    H158600   0.527   5.154   2.167  1.1480 -3.5915  2.5039
12395TIP3    H258601   0.673   5.121   2.190  2.2507 -2.3723 -1.7276
12396TIP3   OH258602   2.765   5.165  13.642  0.0742 -0.2786 -0.0582
12396TIP3    H158603   2.730   5.078  13.621 -0.5058  0.3525 -1.8581
12396TIP3    H258604   2.854   5.148  13.673  0.0512 -1.5061 -0.6161
12397TIP3   OH258605   3.695   6.062  14.993 -0.3675  0.2532  0.1529
12397TIP3    H158606   3.651   6.139  15.029 -2.3045 -0.2683 -0.9925
12397TIP3    H258607   3.624   6.004  14.965  1.0305 -1.9158  0.8371
12398TIP3   OH258608   5.861   2.903  15.682  0.8615  0.0986  0.0583
12398TIP3    H158609   5.902   2.914  15.596 -0.9360  0.7853 -0.7716
12398TIP3    H258610   5.832   2.991  15.705  1.5925 -0.0295  1.5438
12399TIP3   OH258611   5.141   2.537  16.789  0.6787 -0.3482 -0.4473
12399TIP3    H158612   5.183   2.623  16.786 -0.6141  0.3189 -0.3582
12399TIP3    H258613   5.099   2.528  16.703 -0.7310 -0.0665  0.1952
12400TIP3   OH258614   5.799   2.772   0.997  0.8510  0.4983 -0.5476
12400TIP3    H158615   5.707   2.751   0.981  1.0823  1.2609 -3.2718
12400TIP3    H258616   5.813   2.748   1.089 -2.3298  1.4107  0.3014
12401TIP3   OH258617   2.687   4.007  14.675 -0.2582  0.4032  0.6205
12401TIP3    H158618   2.782   4.003  14.679 -0.2231 -1.1233 -0.7339
12401TIP3    H258619   2.668   4.053  14.593 -0.6429 -0.5637  0.1424
12402TIP3   OH258620   4.434   2.227  13.769  0.3225 -0.1723  0.1807
12402TIP3    H158621   4.345   2.206  13.741 -0.1803  1.6772  0.2710
12402TIP3    H258622   4.488   2.215  13.691 -0.2579  0.1759 -0.2797
12403TIP3   OH258623   3.169   1.126  13.130  0.1061 -0.0519  0.1228
12403TIP3    H158624   3.079   1.103  13.108  0.4871 -3.3584  1.4476
12403TIP3    H258625   3.160   1.196  13.195 -1.5276 -0.2294  0.1316
12404TIP3   OH258626   6.377   6.418   1.958  0.9997  0.5320 -0.3154
12404TIP3    H158627   6.464   6.446   1.985  1.5143  1.9849 -3.0553
12404TIP3    H258628   6.385   6.405   1.863 -1.3404 -1.0762 -0.3805
12405TIP3   OH258629   5.691   4.996   5.800  0.4451 -0.3687 -0.0217
12405TIP3    H158630   5.671   5.035   5.885  0.1714 -1.5680  0.4878
12405TIP3    H258631   5.700   4.903   5.818  0.8326 -0.5897 -1.2421
12406TIP3   OH258632   5.890   1.172   5.903 -0.4658  0.2701 -0.1107
12406TIP3    H158633   5.863   1.262   5.886  0.7854  1.0693  1.8333
12406TIP3    H258634   5.968   1.160   5.848 -0.9906  0.1521 -0.8374
12407TIP3   OH258635   0.880   3.474  14.261  0.1927  0.2736 -0.3213
12407TIP3    H158636   0.815   3.503  14.325 -0.8112  0.5790 -1.4413
12407TIP3    H258637   0.951   3.538  14.267 -0.0575  0.4999  0.2318
12408TIP3   OH258638   4.093   1.973  16.051  0.2319 -0.1690  0.2594
12408TIP3    H158639   4.135   2.059  16.043  0.2349 -0.3347 -2.5064
12408TIP3    H258640   4.155   1.912  16.010 -0.7792 -1.1345  0.1306
12409TIP3   OH258641   2.215   2.316   2.839 -0.0227 -0.0089 -0.6174
12409TIP3    H158642   2.165   2.289   2.761 -1.1309  1.1887 -0.3607
12409TIP3    H258643   2.177   2.401   2.863  0.9898  0.1112  0.6398
12410TIP3   OH258644   5.819   0.626   2.738 -0.3282  0.4892  0.7063
12410TIP3    H158645   5.772   0.561   2.686  0.1172 -2.0579  3.2429
12410TIP3    H258646   5.857   0.686   2.673 -1.6247 -1.1478 -1.7261
12411TIP3   OH258647   3.267   5.891  14.895  0.3854 -0.3716  0.1889
12411TIP3    H158648   3.247   5.930  14.809 -1.4882 -0.1354  0.7055
12411TIP3    H258649   3.359   5.866  14.888  1.2125  2.4876 -0.8234
12412TIP3   OH258650   4.849   4.054  15.494 -0.3841  0.6498  0.1110
12412TIP3    H158651   4.845   4.088  15.584  0.7291 -0.0272  0.4504
12412TIP3    H258652   4.762   4.019  15.477 -0.3077 -0.2246  1.3665
12413TIP3   OH258653   5.182   5.710  13.564 -0.5346 -0.3873  0.3343
12413TIP3    H158654   5.240   5.720  13.639 -0.6946  0.6540  0.3428
12413TIP3    H258655   5.103   5.670  13.599 -0.1171 -1.1054  0.4661
12414TIP3   OH258656   3.700   5.921   0.077 -0.4447  0.4906 -0.2468
12414TIP3    H158657   3.667   5.831   0.075 -0.0385  0.3446 -0.3667
12414TIP3    H258658   3.750   5.931  -0.004  1.1412  0.1948  0.6490
12415TIP3   OH258659   4.359   5.679  10.744 -0.4723  0.5809  0.6060
12415TIP3    H158660   4.347   5.774  10.747 -1.4034  0.4906  0.0422
12415TIP3    H258661   4.273   5.644  10.723  0.5023 -0.1538 -3.0636
12416TIP3   OH258662   5.289   6.141  14.024 -0.2724 -0.1501  0.0806
12416TIP3    H158663   5.222   6.073  14.016  0.4330 -0.8159 -0.3846
12416TIP3    H258664   5.246   6.221  13.994 -0.8933 -0.5474 -0.1075
12417TIP3   OH258665   3.075   5.860  11.473 -0.2901  0.0272  0.1890
12417TIP3    H158666   3.094   5.795  11.540  0.1085  1.3520  1.4293
12417TIP3    H258667   3.005   5.914  11.510 -0.3448  0.5366 -0.6234
12418TIP3   OH258668   6.406   0.497   2.745 -0.1292 -0.2193 -0.3531
12418TIP3    H158669   6.478   0.551   2.711  0.2281 -1.3148 -1.4305
12418TIP3    H258670   6.340   0.498   2.676 -0.3262 -0.7585 -0.1825
12419TIP3   OH258671   0.263   2.613   4.603  0.0602 -0.0954 -0.0433
12419TIP3    H158672   0.213   2.664   4.538 -1.1813 -1.6778 -0.4011
12419TIP3    H258673   0.354   2.628   4.579 -0.0982  3.1836  0.8369
12420TIP3   OH258674   3.793   3.902  14.845 -0.3430 -0.0625  0.4796
12420TIP3    H158675   3.700   3.909  14.865 -0.4082  1.5237 -0.2819
12420TIP3    H258676   3.806   3.809  14.827 -2.1531 -0.0814 -1.1229
12421TIP3   OH258677   2.604   2.963   4.643  0.1971  0.0901 -0.2876
12421TIP3    H158678   2.516   2.997   4.659  0.1221  1.0114 -2.3336
12421TIP3    H258679   2.590   2.875   4.608  0.2172 -0.5273  1.1737
12422TIP3   OH258680   2.163   1.948   2.441 -0.3764 -0.0051  0.0488
12422TIP3    H158681   2.124   2.027   2.479  0.6738 -0.1514  1.5169
12422TIP3    H258682   2.128   1.876   2.494 -1.4249 -0.5772 -1.3595
12423TIP3   OH258683   4.021   5.529   5.516  0.3115  0.9104  0.7419
12423TIP3    H158684   3.930   5.501   5.513  0.8090 -0.8563 -2.0057
12423TIP3    H258685   4.064   5.464   5.572  0.0581  1.1127  1.1712
12424TIP3   OH258686   1.320   1.986  11.650  0.5823 -0.1524  0.0942
12424TIP3    H158687   1.233   2.026  11.658  1.2658  1.3124  0.4866
12424TIP3    H258688   1.304   1.892  11.664 -1.0014  0.0203 -0.3666
12425TIP3   OH258689   3.060   0.583  14.613 -0.0721 -0.0269  0.0187
12425TIP3    H158690   2.984   0.638  14.596  1.1786  1.0986 -2.3022
12425TIP3    H258691   3.025   0.509  14.662 -2.6102  0.5797 -0.7399
12426TIP3   OH258692   6.614   3.843  17.480  0.0888 -0.2961 -0.1186
12426TIP3    H158693   6.633   3.794  17.560 -0.4524  0.7287  0.6782
12426TIP3    H258694   6.690   3.899  17.467 -0.5165  0.7668  0.6824
12427TIP3   OH258695   4.154   3.162  17.423  0.8526  0.1273 -0.0931
12427TIP3    H158696   4.168   3.158  17.328  1.8409 -0.2602  0.0535
12427TIP3    H258697   4.231   3.118  17.460  2.4569  3.5077  1.0205
12428TIP3   OH258698   1.080   1.751   4.820 -0.7085 -0.0409 -0.8885
12428TIP3    H158699   1.125   1.825   4.780 -0.6777 -0.7914 -2.3031
12428TIP3    H258700   1.143   1.717   4.884  0.0557 -0.0320 -1.6209
12429TIP3   OH258701   0.949   5.725   2.472  0.3467 -0.2292 -0.0529
12429TIP3    H158702   1.010   5.729   2.399  0.7072 -0.4801  0.2311
12429TIP3    H258703   0.954   5.811   2.513 -0.8521  0.3726 -1.1125
12430TIP3   OH258704   3.276   0.891  12.409 -0.1354  0.5620  0.3185
12430TIP3    H158705   3.302   0.846  12.329 -0.7629 -0.8547  0.8700
12430TIP3    H258706   3.182   0.874  12.417 -0.3197  1.7054  0.7275
12431TIP3   OH258707   5.127   0.858  10.601  0.1672  0.0303  0.3646
12431TIP3    H158708   5.154   0.797  10.670  2.0358  0.2719 -0.1193
12431TIP3    H258709   5.186   0.932  10.610  0.3742  0.1195 -1.4102
12432TIP3   OH258710   6.710   2.345   3.619  0.1768 -0.6597  0.1178
12432TIP3    H158711   6.671   2.262   3.593 -0.1432 -0.4712 -0.0087
12432TIP3    H258712   6.653   2.378   3.688  0.6711 -0.8564  0.6297
12433TIP3   OH258713   3.649   1.533   3.458 -0.1581  0.0747  0.2460
12433TIP3    H158714   3.699   1.538   3.540  0.2352 -0.8367  0.0649
12433TIP3    H258715   3.558   1.524   3.487 -0.0177 -0.2764  0.5781
12434TIP3   OH258716   0.882   1.656  16.249 -0.2722 -0.2398  0.3877
12434TIP3    H158717   0.821   1.674  16.320 -0.7425  0.7113 -0.2401
12434TIP3    H258718   0.832   1.672  16.169  1.3738  2.8286 -0.1716
12435TIP3   OH258719   4.067   5.338  11.356  0.7062 -0.1254  0.3288
12435TIP3    H158720   4.132   5.387  11.305  0.7349 -0.9131 -0.4105
12435TIP3    H258721   4.115   5.306  11.432  0.8369  0.4759  0.5044
12436TIP3   OH258722   4.820   0.242  15.054 -0.3508  0.0174  0.1504
12436TIP3    H158723   4.745   0.295  15.027  0.2319  0.3692 -0.8148
12436TIP3    H258724   4.792   0.151  15.037 -1.8748 -0.1877  3.0666
12437TIP3   OH258725   4.191   6.611  12.326 -0.6099 -0.1487 -0.2926
12437TIP3    H158726   4.259   6.560  12.281  0.2600  0.1964  0.5857
12437TIP3    H258727   4.147   6.659  12.256  1.5103  1.3377 -0.7133
12438TIP3   OH258728   2.546   1.392  11.351  0.2412  0.3600 -0.3581
12438TIP3    H158729   2.467   1.355  11.311  0.8383 -0.6839 -0.6173
12438TIP3    H258730   2.578   1.456  11.288 -0.2444  0.5873 -0.3755
12439TIP3   OH258731   2.153   0.460  13.029  0.0897  0.1525  0.2911
12439TIP3    H158732   2.226   0.410  13.064  0.3012 -2.2156 -3.1294
12439TIP3    H258733   2.193   0.538  12.992  1.3537 -1.9146 -3.0882
12440TIP3   OH258734   5.592   2.680  14.513 -0.1805 -0.6074  0.3566
12440TIP3    H158735   5.621   2.697  14.423  2.4968  0.1662  1.2959
12440TIP3    H258736   5.540   2.757  14.536  0.4531 -0.0629  0.0048
12441TIP3   OH258737   0.634   1.064   2.431  0.3391  0.4538  0.5927
12441TIP3    H158738   0.631   1.159   2.435 -1.4993  0.4149  0.9808
12441TIP3    H258739   0.697   1.040   2.500  0.1604  1.3510  1.0903
12442TIP3   OH258740   3.781   2.490   0.715  0.0776  0.6243  0.5035
12442TIP3    H158741   3.730   2.414   0.686 -1.3205  0.6830  2.5975
12442TIP3    H258742   3.867   2.478   0.675 -0.1894 -1.9413  0.5355
12443TIP3   OH258743   6.189   5.366   6.575 -0.4249 -0.1016 -0.0284
12443TIP3    H158744   6.178   5.290   6.632  0.8387 -0.3089 -0.0257
12443TIP3    H258745   6.198   5.440   6.634  2.0011 -0.4571  0.1569
12444TIP3   OH258746   1.361   0.992  12.820  0.0389  0.5792  0.3722
12444TIP3    H158747   1.358   1.005  12.915  0.5335 -1.4436  0.7020
12444TIP3    H258748   1.436   0.935  12.806 -0.3595  0.4096 -1.1952
12445TIP3   OH258749   3.188   0.356   3.302 -0.3593 -0.6618 -0.3996
12445TIP3    H158750   3.093   0.348   3.307 -0.7214  1.8059 -1.4341
12445TIP3    H258751   3.212   0.313   3.220 -0.8532  0.2163 -1.0207
12446TIP3   OH258752   0.645   1.819   0.494 -0.4503 -1.0198  0.4335
12446TIP3    H158753   0.696   1.748   0.532 -0.8576 -0.8281  1.3749
12446TIP3    H258754   0.555   1.800   0.520 -0.5080  0.0634  1.0656
12447TIP3   OH258755   0.284   0.708   5.745  0.1560 -0.2051 -0.2274
12447TIP3    H158756   0.281   0.631   5.802 -0.8559  0.2568  0.3838
12447TIP3    H258757   0.192   0.732   5.733  0.4693  1.2213  0.0366
12448TIP3   OH258758   0.474   0.491   2.205  0.5873  0.2459 -0.3977
12448TIP3    H158759   0.463   0.404   2.244 -0.2354  0.4773 -0.1057
12448TIP3    H258760   0.515   0.473   2.120  1.2852 -0.3518  0.0429
12449TIP3   OH258761   0.181   2.333  13.896 -0.0532  0.4389  0.5397
12449TIP3    H158762   0.109   2.272  13.878  2.2886 -2.3261 -0.1676
12449TIP3    H258763   0.221   2.348  13.810  0.3389  1.8334  0.9461
12450TIP3   OH258764   2.157   1.858  13.451  0.3790  0.5340 -0.2475
12450TIP3    H158765   2.115   1.781  13.413  0.6214 -1.0417  2.4164
12450TIP3    H258766   2.250   1.835  13.455  0.2800  0.3808  1.7683
12451TIP3   OH258767   0.762   6.207   0.340  0.3700  0.0567  0.1166
12451TIP3    H158768   0.778   6.205   0.434  2.6899 -0.9383 -0.2152
12451TIP3    H258769   0.808   6.286   0.310 -0.4327  0.4199 -0.1909
12452TIP3   OH258770   1.092   3.112  12.542  0.0499 -0.2343  0.4060
12452TIP3    H158771   1.116   3.141  12.629  0.5728 -0.8963  0.4940
12452TIP3    H258772   1.173   3.122  12.490 -0.2343  0.0835  0.0159
12453TIP3   OH258773   5.874   1.248   5.597  0.1903 -0.5010  0.2955
12453TIP3    H158774   5.954   1.197   5.606 -0.4279 -1.7750 -1.1352
12453TIP3    H258775   5.887   1.300   5.518 -0.7430 -1.4180 -0.4834
12454TIP3   OH258776   0.039   0.434  13.017 -0.0132  0.5178 -0.2127
12454TIP3    H158777   0.064   0.526  13.030 -0.8716  0.7197  0.1108
12454TIP3    H258778  -0.012   0.412  13.096  1.2046 -0.6123  0.2981
12455TIP3   OH258779   0.510   2.546  11.983 -0.0027  0.1339 -0.1212
12455TIP3    H158780   0.483   2.590  11.902  0.3931 -0.0143 -0.3378
12455TIP3    H258781   0.578   2.484  11.955  1.5918  1.4888  0.6078
12456TIP3   OH258782   3.882   4.152   1.552 -0.5321  0.4052 -0.1959
12456TIP3    H158783   3.824   4.216   1.593 -0.1926  0.4464  0.2369
12456TIP3    H258784   3.945   4.203   1.503  0.1655  0.4518  0.7169
12457TIP3   OH258785   6.465   4.747  17.205  0.0546 -0.0079  0.7472
12457TIP3    H158786   6.536   4.775  17.263  1.1435 -2.0404  0.4815
12457TIP3    H258787   6.504   4.749  17.118 -0.6210  0.0305  0.4400
12458TIP3   OH258788   2.632   3.853  17.105 -0.6915  0.1563  0.3246
12458TIP3    H158789   2.540   3.847  17.080 -0.1038 -0.9426 -1.7787
12458TIP3    H258790   2.656   3.764  17.131 -0.1114  0.3445  0.4509
12459TIP3   OH258791   3.479   5.371   3.218  0.3360  0.2027 -0.1011
12459TIP3    H158792   3.534   5.450   3.215  2.1604 -1.0325 -1.5477
12459TIP3    H258793   3.523   5.309   3.159 -1.0860 -1.8819  0.9147
12460TIP3   OH258794   6.014   2.335   0.231  0.6042  0.1383  0.0211
12460TIP3    H158795   6.025   2.354   0.137 -1.0012 -0.6371 -0.3427
12460TIP3    H258796   6.095   2.368   0.271  0.0039  3.5457 -1.1685
12461TIP3   OH258797   5.559   6.712   5.566  0.1932  0.7085  0.4485
12461TIP3    H158798   5.647   6.746   5.581  0.6692 -0.1371 -0.3441
12461TIP3    H258799   5.548   6.715   5.471 -0.6508  0.8400  0.5391
12462TIP3   OH258800   0.671   0.516  11.605  0.1743  0.1456  0.4600
12462TIP3    H158801   0.615   0.460  11.660  1.1767 -0.2821  1.0648
12462TIP3    H258802   0.744   0.460  11.581  0.4796  0.7866 -0.1033
12463TIP3   OH258803   1.703   1.423   0.943 -0.8670 -0.4452  0.4228
12463TIP3    H158804   1.709   1.331   0.917 -1.2858 -0.0368 -1.2609
12463TIP3    H258805   1.710   1.471   0.860  0.6266  1.0998  1.3918
12464TIP3   OH258806   2.341   2.490  15.072  0.1454  0.6056 -0.1996
12464TIP3    H158807   2.332   2.454  14.984  2.2847  0.7740 -0.5209
12464TIP3    H258808   2.336   2.585  15.059 -0.4601  0.6084  0.0046
12465TIP3   OH258809   0.959   0.847  14.453 -0.3791 -0.2936 -0.2351
12465TIP3    H158810   0.904   0.806  14.386  0.1382 -0.8989 -0.2940
12465TIP3    H258811   0.916   0.825  14.536 -2.1612  2.1353 -0.4091
12466TIP3   OH258812   2.820   0.861   4.476  0.3670 -0.4826  0.0750
12466TIP3    H158813   2.780   0.831   4.557  0.8244  1.2439  0.9759
12466TIP3    H258814   2.910   0.885   4.501  1.2869 -2.1110 -1.4311
12467TIP3   OH258815   5.221   0.040  13.022 -0.0538  0.6113  0.0138
12467TIP3    H158816   5.187   0.004  12.940 -0.7453  2.5470 -0.6138
12467TIP3    H258817   5.296  -0.015  13.043 -0.2450 -0.3295 -1.5701
12468TIP3   OH258818   6.461   5.099   4.286  0.2730 -0.0089 -0.0425
12468TIP3    H158819   6.518   5.173   4.309  0.1249  0.4775 -1.1825
12468TIP3    H258820   6.385   5.110   4.343 -1.6363  3.1280 -2.8034
12469TIP3   OH258821   5.379   2.312  17.126 -0.2047  0.2549 -0.1364
12469TIP3    H158822   5.360   2.285  17.036 -0.7908 -0.0082  0.0614
12469TIP3    H258823   5.398   2.406  17.120 -1.3390  0.4799 -0.3858
12470TIP3   OH258824   6.199   2.369  15.359 -0.1981  0.0288 -0.0078
12470TIP3    H158825   6.199   2.461  15.331 -1.1855  0.2348  0.6311
12470TIP3    H258826   6.206   2.374  15.455  3.0331 -0.6490 -0.0893
12471TIP3   OH258827   1.682   6.050  14.675 -0.1114 -0.1139  0.6401
12471TIP3    H158828   1.737   6.125  14.701 -0.5569  0.7625 -0.7773
12471TIP3    H258829   1.706   5.980  14.735  0.5897  1.0675  1.7861
12472TIP3   OH258830   4.009   1.901  12.472  0.0775  0.0165  0.2906
12472TIP3    H158831   3.960   1.967  12.522 -1.0384  0.5533 -1.4314
12472TIP3    H258832   4.100   1.920  12.493 -0.2795  1.1821  0.9594
12473TIP3   OH258833   1.263   4.979   1.448  0.0794  0.2649  0.4889
12473TIP3    H158834   1.293   5.046   1.510 -0.1331  0.6187  0.2127
12473TIP3    H258835   1.269   5.021   1.362 -0.7417  0.1737  0.3809
12474TIP3   OH258836   6.056   0.373   3.114  0.3406 -0.6645  0.0901
12474TIP3    H158837   5.996   0.421   3.058 -0.0713 -1.3330 -0.0587
12474TIP3    H258838   6.136   0.366   3.063  0.5532  0.2247  0.2860
12475TIP3   OH258839   1.877   1.968   1.550  0.0149  0.3575 -0.5957
12475TIP3    H158840   1.835   1.927   1.625  1.9152 -1.0008 -0.2174
12475TIP3    H258841   1.925   2.043   1.586 -1.5456  1.5783 -0.9501
12476TIP3   OH258842   1.880   0.250  15.429  0.5014  0.9910  0.2973
12476TIP3    H158843   1.930   0.312  15.483 -2.2810  1.9386  1.9518
12476TIP3    H258844   1.886   0.167  15.477 -0.3775  1.3733  1.1004
12477TIP3   OH258845   0.063   2.667   3.228 -0.2490 -0.1180 -0.4179
12477TIP3    H158846   0.037   2.735   3.290 -1.4312  0.7219 -1.7884
12477TIP3    H258847   0.131   2.618   3.274 -0.8296  0.6927  1.4014
12478TIP3   OH258848   3.736   2.565   2.054  0.7782 -0.6872  0.2486
12478TIP3    H158849   3.667   2.627   2.076  1.0662  0.0941 -0.9547
12478TIP3    H258850   3.700   2.513   1.982  0.8865 -1.3068  0.6306
12479TIP3   OH258851   6.288   6.078   4.847  0.2934  0.5369  0.0310
12479TIP3    H158852   6.292   6.030   4.930  1.2710 -1.1459 -0.9087
12479TIP3    H258853   6.195   6.089   4.830  0.0831  1.0176  1.4018
12480TIP3   OH258854   4.174   5.497   2.736  0.1377 -0.3268  0.6929
12480TIP3    H158855   4.107   5.442   2.696  0.0965 -0.9938  1.6265
12480TIP3    H258856   4.125   5.569   2.776  0.1804  0.3416 -0.4245
12481TIP3   OH258857   3.948   4.597  12.645  0.4680 -0.5612  0.2826
12481TIP3    H158858   3.941   4.556  12.731  1.0885  0.4300  0.8197
12481TIP3    H258859   4.003   4.674  12.659 -1.2237  0.8914 -0.5318
12482TIP3   OH258860   4.513   5.513  13.413 -1.1514  0.2945 -0.3120
12482TIP3    H158861   4.512   5.607  13.391 -0.0062  0.3079 -0.3935
12482TIP3    H258862   4.603   5.486  13.396 -1.2818 -0.6553  0.4293
12483TIP3   OH258863   1.514   0.489  13.725  0.4636 -0.4639  0.0695
12483TIP3    H158864   1.584   0.543  13.761 -1.1885  2.1216 -0.3167
12483TIP3    H258865   1.507   0.517  13.634 -1.3617 -0.2711  0.2358
12484TIP3   OH258866   1.291   3.918  13.418  0.0845  0.4254 -0.2269
12484TIP3    H158867   1.352   3.890  13.349  2.3198 -0.9747  2.1404
12484TIP3    H258868   1.233   3.844  13.431  2.5186 -1.2467  2.2783
12485TIP3   OH258869   0.063   5.098   2.587 -0.5921  0.6005  0.2501
12485TIP3    H158870   0.114   5.112   2.507  1.6927 -0.1387  1.4894
12485TIP3    H258871  -0.006   5.038   2.561 -0.5592  1.2170 -1.3850
12486TIP3   OH258872   2.675   3.134   1.370 -0.3840  0.1142 -0.9076
12486TIP3    H158873   2.619   3.190   1.424 -0.2856  0.1716 -0.8623
12486TIP3    H258874   2.617   3.067   1.335 -0.3191 -0.3414 -0.1597
12487TIP3   OH258875   6.716   0.850   4.737  0.1511  0.1130 -0.5959
12487TIP3    H158876   6.699   0.918   4.671  1.2677 -0.6433 -1.7182
12487TIP3    H258877   6.639   0.851   4.793  0.4863  2.8959 -0.0371
12488TIP3   OH258878   3.884   2.263   4.975  0.2515  0.1077  0.2268
12488TIP3    H158879   3.911   2.351   5.001 -0.8285  0.3703  0.4933
12488TIP3    H258880   3.812   2.241   5.034 -0.7013 -0.2194 -1.0210
12489TIP3   OH258881   5.332   6.421   3.821  0.5376  0.3278 -0.6419
12489TIP3    H158882   5.408   6.403   3.766 -0.2093 -1.3315 -1.1863
12489TIP3    H258883   5.296   6.502   3.786  1.2042  0.3398 -1.3311
12490TIP3   OH258884   6.298   4.342  16.312 -0.1329 -1.0037  0.7756
12490TIP3    H158885   6.217   4.300  16.340 -1.2865  1.0646  0.7343
12490TIP3    H258886   6.272   4.431  16.289  1.8265 -0.8401 -1.0914
12491TIP3   OH258887   6.660   6.248   3.484  0.1345 -0.4180 -0.5851
12491TIP3    H158888   6.633   6.175   3.539  0.9822  0.9334  1.8346
12491TIP3    H258889   6.587   6.263   3.425 -0.1758 -2.9747 -0.9581
12492TIP3   OH258890   1.443   5.521   6.330  0.2409 -0.1727  0.1145
12492TIP3    H158891   1.398   5.500   6.412 -0.7576  2.2416  0.2674
12492TIP3    H258892   1.383   5.492   6.262 -0.7136  1.2342  0.3118
12493TIP3   OH258893   4.749   0.473  11.697  0.2300  0.3492  0.2290
12493TIP3    H158894   4.824   0.520  11.734 -0.3402  0.1782  1.6452
12493TIP3    H258895   4.685   0.470  11.767 -1.1668  0.5747 -0.9931
12494TIP3   OH258896   1.867   0.096   3.786 -0.8598 -0.5850  0.2668
12494TIP3    H158897   1.911   0.015   3.812  1.0537  0.0383 -0.8332
12494TIP3    H258898   1.797   0.066   3.727 -0.7339 -1.4978  0.5577
12495TIP3   OH258899   0.619   2.725   5.535 -0.4983  0.2689 -0.2025
12495TIP3    H158900   0.634   2.773   5.616  1.0068 -0.0944 -0.2234
12495TIP3    H258901   0.591   2.638   5.563 -0.0657  0.1715 -0.0562
12496TIP3   OH258902   5.130   0.530   6.450 -0.4215 -0.6934 -0.2332
12496TIP3    H158903   5.143   0.435   6.442  2.1407 -0.3873 -0.5740
12496TIP3    H258904   5.203   0.568   6.402 -1.4041  1.4918 -0.1220
12497TIP3   OH258905   2.235   5.349  15.321  0.4380  0.0301 -0.2258
12497TIP3    H158906   2.148   5.336  15.285  0.6223 -0.3623 -0.5425
12497TIP3    H258907   2.286   5.383  15.247  0.4414  0.7101  0.0801
12498TIP3   OH258908   4.129   5.832   4.597 -0.2632  0.0971  0.4143
12498TIP3    H158909   4.106   5.918   4.561 -2.2551 -0.5771 -0.0164
12498TIP3    H258910   4.144   5.777   4.520  1.3832  0.1121  0.6872
12499TIP3   OH258911   6.247   3.124  16.449  0.1284 -0.5741  0.0439
12499TIP3    H158912   6.159   3.160  16.437 -0.8989 -2.5637  1.1201
12499TIP3    H258913   6.288   3.182  16.514 -0.2820  0.5039 -0.6386
12500TIP3   OH258914   1.685   6.309  17.567  0.1333 -0.0690 -0.2867
12500TIP3    H158915   1.593   6.305  17.594  0.9925  1.4645  3.5821
12500TIP3    H258916   1.707   6.402  17.571  2.0374 -0.4805 -0.2653
12501TIP3   OH258917   1.529   3.782  13.868 -0.1044 -0.2652  0.3848
12501TIP3    H158918   1.458   3.836  13.834  0.3395 -1.1541 -2.2186
12501TIP3    H258919   1.487   3.700  13.894 -0.2780 -0.0329  0.8585
12502TIP3   OH258920   0.518   1.600   3.062 -0.4963 -0.3009  0.0307
12502TIP3    H158921   0.479   1.672   3.012 -1.0887 -0.8053 -0.2520
12502TIP3    H258922   0.465   1.594   3.141 -0.3630 -0.3423  0.1175
12503TIP3   OH258923   5.874   3.276  14.088 -0.1103 -0.8714  0.4228
12503TIP3    H158924   5.841   3.292  14.177 -0.3970  1.5760 -0.0575
12503TIP3    H258925   5.796   3.275  14.033  0.2223  0.0598 -0.0897
12504TIP3   OH258926   5.001   0.184  17.377  0.2274  0.0875  0.7360
12504TIP3    H158927   4.974   0.149  17.462  1.3678  2.2278  2.0905
12504TIP3    H258928   5.073   0.244  17.399 -0.4786  1.8845 -1.5732
12505TIP3   OH258929   2.834   3.327   0.267 -0.6189  0.0981  0.5536
12505TIP3    H158930   2.757   3.295   0.221  0.3384 -1.0037 -0.3317
12505TIP3    H258931   2.828   3.287   0.354  0.0573 -1.8273 -0.2258
12506TIP3   OH258932   0.009   6.598   5.703 -0.2548  0.0775  0.7303
12506TIP3    H158933  -0.063   6.543   5.671 -0.8696  0.9985  0.4706
12506TIP3    H258934  -0.028   6.643   5.779 -0.0722  0.8164  0.3932
12507TIP3   OH258935   4.349   1.353   1.837  0.1459 -0.3500 -0.5433
12507TIP3    H158936   4.368   1.436   1.882 -1.4203 -1.1961  1.8823
12507TIP3    H258937   4.435   1.319   1.812  0.8806  1.5398 -0.8058
12508TIP3   OH258938   1.166   3.639   1.379 -0.3442  0.5993  0.3720
12508TIP3    H158939   1.225   3.641   1.454  1.4870 -0.3612 -0.9460
12508TIP3    H258940   1.122   3.554   1.386  0.3652  0.1923 -0.0074
12509TIP3   OH258941   5.983   1.845   3.666  0.4907 -0.2540 -0.4667
12509TIP3    H158942   5.959   1.938   3.672 -1.4563 -0.7670  0.4388
12509TIP3    H258943   5.929   1.802   3.733  2.5963 -1.8252  0.3192
12510TIP3   OH258944   5.892   5.253  17.233  0.3218 -0.1820  0.2692
12510TIP3    H158945   5.876   5.326  17.292  1.6492 -1.6601  2.6140
12510TIP3    H258946   5.811   5.202  17.237 -0.5009  0.9401 -1.1563
12511TIP3   OH258947   0.056   5.491  15.986  0.2650 -0.4843 -0.1051
12511TIP3    H158948   0.009   5.510  15.906  0.3093 -0.2134 -0.0696
12511TIP3    H258949   0.114   5.566  15.998 -1.4583  0.6826  1.4609
12512TIP3   OH258950   0.564   0.889  17.485  0.1350 -0.1047 -0.4221
12512TIP3    H158951   0.535   0.929  17.403  0.5049 -1.1206 -1.0675
12512TIP3    H258952   0.505   0.924  17.552 -1.2098 -0.5125 -1.3731
12513TIP3   OH258953   0.342   6.196   4.624  0.6621 -0.2506  0.0065
12513TIP3    H158954   0.396   6.273   4.645  1.1020  0.0914 -2.0899
12513TIP3    H258955   0.257   6.233   4.600  0.1903 -0.6121  1.0839
12514TIP3   OH258956   3.463   4.472  11.464  0.0364 -0.2708  1.1449
12514TIP3    H158957   3.524   4.510  11.527  2.2322  0.1493 -1.0678
12514TIP3    H258958   3.445   4.543  11.402 -2.2460 -0.5969  1.3308
12515TIP3   OH258959   6.194   3.358  11.154 -0.2433 -0.5607  0.1876
12515TIP3    H158960   6.157   3.443  11.181 -0.2607 -0.9487  1.4782
12515TIP3    H258961   6.215   3.369  11.062 -0.1749  0.8827  0.3506
12516TIP3   OH258962   4.240   6.657  15.216  0.1672  0.2522 -0.4516
12516TIP3    H158963   4.200   6.743  15.213  0.9710  0.6770  0.4260
12516TIP3    H258964   4.322   6.670  15.263 -0.0487 -1.1189  0.3897
12517TIP3   OH258965   1.931   1.867  11.263  0.1751  0.4167 -0.0386
12517TIP3    H158966   1.898   1.891  11.177 -2.0226  0.4697  0.7563
12517TIP3    H258967   2.012   1.918  11.273 -0.2350  1.4179 -1.5359
12518TIP3   OH258968   1.040   0.282  12.753  0.3532  0.1722 -0.0932
12518TIP3    H158969   1.074   0.198  12.722  1.2532  0.7883 -0.8605
12518TIP3    H258970   0.976   0.259  12.820 -1.9711 -1.3004 -2.5884
12519TIP3   OH258971   0.485   5.092  10.463 -0.3426  0.2460  0.2972
12519TIP3    H158972   0.475   5.003  10.495 -0.2468  0.4421  0.8799
12519TIP3    H258973   0.396   5.127  10.459 -0.1990  1.2576  3.3811
12520TIP3   OH258974   4.671   4.105  16.708  0.4372  0.2805 -0.4641
12520TIP3    H158975   4.756   4.150  16.702  0.3995  0.5735  0.8164
12520TIP3    H258976   4.657   4.094  16.802 -2.3253  2.9001 -0.4324
12521TIP3   OH258977   5.949   1.952  14.561 -0.3549  0.4742 -0.1391
12521TIP3    H158978   5.958   2.046  14.549  0.9110  0.2147 -1.7481
12521TIP3    H258979   6.033   1.917  14.531 -0.3479 -1.0905  1.5566
12522TIP3   OH258980   2.875   1.347   0.014  0.4106 -0.2350 -0.2003
12522TIP3    H158981   2.822   1.286   0.065  1.4071 -1.3338 -0.4397
12522TIP3    H258982   2.965   1.319   0.029  0.9210  1.2991 -0.1784
12523TIP3   OH258983   5.263   1.704   3.667  0.2034  0.1966 -0.1936
12523TIP3    H158984   5.322   1.631   3.649  0.3014  0.1911  0.1431
12523TIP3    H258985   5.184   1.683   3.617 -0.8056 -1.5097  1.9119
12524TIP3   OH258986   4.789   1.707   5.287  0.0940 -0.1492  0.3561
12524TIP3    H158987   4.785   1.803   5.287  1.1140 -0.0998 -0.3819
12524TIP3    H258988   4.788   1.682   5.195 -0.8989 -0.8991  0.5494
12525TIP3   OH258989   6.413   3.940   5.387  0.5576 -0.3734 -0.9077
12525TIP3    H158990   6.362   3.885   5.446 -0.3299  0.9845 -0.3685
12525TIP3    H258991   6.423   4.023   5.433 -1.5956  1.3345 -3.2460
12526TIP3   OH258992   4.251   1.788   5.184 -0.2758  0.2016 -0.1654
12526TIP3    H158993   4.270   1.879   5.208 -0.3101  0.1339  0.1185
12526TIP3    H258994   4.239   1.791   5.089  3.1739 -0.0717 -0.7445
12527TIP3   OH258995   4.410   0.193   2.920  0.3881  0.4243 -0.5967
12527TIP3    H158996   4.400   0.135   2.845 -1.4009  1.6022 -1.3219
12527TIP3    H258997   4.355   0.269   2.900 -1.7788 -0.0635  2.7277
12528TIP3   OH258998   0.491   0.597   4.350  0.0056 -0.0885 -0.9922
12528TIP3    H158999   0.476   0.565   4.439  0.1720  0.2184 -0.8506
12528TIP3    H259000   0.484   0.519   4.295  1.0220 -0.4883 -0.5882
12529TIP3   OH259001   4.032   6.321   1.045 -0.3244  0.1957  0.1197
12529TIP3    H159002   4.031   6.410   1.081 -0.5573  0.5824 -0.7996
12529TIP3    H259003   3.955   6.279   1.084 -0.9758  0.8307 -0.4323
12530TIP3   OH259004   5.308   2.997  12.187  0.5337  0.3852  0.1051
12530TIP3    H159005   5.375   3.065  12.194  1.8586 -1.0034  2.1106
12530TIP3    H259006   5.230   3.036  12.225  0.1144  2.0085 -2.1995
12531TIP3   OH259007   0.547   3.207  13.586 -0.8075 -0.2390 -0.6347
12531TIP3    H159008   0.582   3.164  13.664 -0.4054 -0.7145 -1.0715
12531TIP3    H259009   0.607   3.279  13.569  0.0934 -1.1656 -1.4914
12532TIP3   OH259010   4.267   1.653   5.805 -0.1124 -0.0392  0.0151
12532TIP3    H159011   4.216   1.647   5.724  1.1047  1.0030 -0.8808
12532TIP3    H259012   4.316   1.571   5.809 -0.1155 -0.0621 -0.3648
12533TIP3   OH259013   0.183   6.499  17.046  0.1311 -0.0804 -0.2432
12533TIP3    H159014   0.221   6.554  16.977 -0.9389 -1.1696 -1.7496
12533TIP3    H259015   0.223   6.413  17.033  1.4345  0.1412  1.8018
12534TIP3   OH259016   5.905   2.622   1.202  0.1044  0.1714  0.1944
12534TIP3    H159017   5.957   2.575   1.137 -0.2106  1.1489 -0.7970
12534TIP3    H259018   5.884   2.557   1.269  1.4648 -0.5621 -0.0667
12535TIP3   OH259019   0.231   5.804   0.112  0.0857  0.4041  0.3110
12535TIP3    H159020   0.308   5.817   0.167  1.4127 -0.5047 -1.2124
12535TIP3    H259021   0.233   5.710   0.090  0.7018  1.0152 -2.6934
12536TIP3   OH259022   0.263   3.513   3.806 -0.2842  0.6788  0.0403
12536TIP3    H159023   0.270   3.417   3.814  1.9950  0.5757 -1.8363
12536TIP3    H259024   0.321   3.546   3.874  1.3995  0.5485 -1.2551
12537TIP3   OH259025   4.645   1.563  10.903  0.3203 -0.0706  0.4306
12537TIP3    H159026   4.614   1.472  10.911 -0.3090  0.0520 -0.5348
12537TIP3    H259027   4.725   1.557  10.852  0.8264 -0.1700  1.2085
12538TIP3   OH259028   5.139   6.427  14.003  0.2727 -0.0162 -0.1406
12538TIP3    H159029   5.130   6.428  14.098 -1.9315  1.5188 -0.3075
12538TIP3    H259030   5.166   6.516  13.980  1.5794 -0.5835 -0.9254
12539TIP3   OH259031   1.101   4.696  13.745  0.0117  0.1925 -1.2366
12539TIP3    H159032   1.019   4.667  13.785  1.1015 -1.5049 -0.0784
12539TIP3    H259033   1.121   4.630  13.679  2.1607 -1.4821  0.9144
12540TIP3   OH259034   3.235   4.829   1.988  0.2730 -0.1889 -0.1910
12540TIP3    H159035   3.251   4.916   2.023  0.1565  0.2659 -1.2212
12540TIP3    H259036   3.322   4.796   1.965  0.2985 -0.2527  0.0002
12541TIP3   OH259037   3.032   0.812  12.357 -0.3274  0.3195 -0.1618
12541TIP3    H159038   2.984   0.730  12.341 -1.6692  1.3475 -1.6596
12541TIP3    H259039   2.967   0.870  12.397  0.0679  1.2498 -0.8414
12542TIP3   OH259040   3.794   5.646  15.537 -0.2408 -0.4896 -0.7134
12542TIP3    H159041   3.807   5.734  15.572  2.1870 -0.5803 -1.1763
12542TIP3    H259042   3.704   5.624  15.560  0.0231  0.9035  2.1431
12543TIP3   OH259043   5.295   3.223   0.074 -0.4136  0.3083 -0.2202
12543TIP3    H159044   5.301   3.214   0.169  0.2085 -0.5638 -0.3348
12543TIP3    H259045   5.301   3.318   0.059  0.6419  0.3794  0.5428
12544TIP3   OH259046   0.887   0.448  10.800 -0.3820  0.0958 -0.3272
12544TIP3    H159047   0.981   0.454  10.814 -0.3807  0.5383 -0.5440
12544TIP3    H259048   0.875   0.363  10.756  0.1332  0.9635 -2.2200
12545TIP3   OH259049   6.027   2.658   0.910 -0.0994 -0.0201 -0.4915
12545TIP3    H159050   5.959   2.712   0.951  0.4945  0.3153  0.0907
12545TIP3    H259051   6.109   2.691   0.948  0.5222  0.5782 -2.2576
12546TIP3   OH259052   6.373   5.222  15.235 -0.0675 -0.7513  0.1024
12546TIP3    H159053   6.370   5.271  15.153  0.2385 -1.1178 -0.1314
12546TIP3    H259054   6.352   5.132  15.210  0.7575 -1.0093  0.3027
12547TIP3   OH259055   2.106   2.902  13.486  0.1804  0.2198 -0.0656
12547TIP3    H159056   2.124   2.979  13.432  1.2620 -0.2511 -0.4100
12547TIP3    H259057   2.076   2.836  13.424  1.4657 -0.3339 -0.1342
12548TIP3   OH259058   4.592   2.134  14.207 -0.4395 -0.6796 -0.5841
12548TIP3    H159059   4.644   2.058  14.180 -0.4301 -1.0152  0.3332
12548TIP3    H259060   4.608   2.141  14.301 -0.0102  0.7927 -0.7453
12549TIP3   OH259061   4.688   4.445  12.337  0.2904  0.1412  0.5094
12549TIP3    H159062   4.757   4.508  12.357 -0.8123  1.8041 -0.7658
12549TIP3    H259063   4.692   4.383  12.410  3.5879 -0.2848  0.1365
12550TIP3   OH259064   3.055   6.366   5.723 -0.1240 -0.5921 -0.9185
12550TIP3    H159065   3.007   6.376   5.641 -0.0986  0.2397 -0.8375
12550TIP3    H259066   3.147   6.378   5.698 -0.1100 -0.4164 -0.7859
12551TIP3   OH259067   1.407   1.036  12.118 -0.4526  0.5495 -0.2624
12551TIP3    H159068   1.438   1.038  12.027  0.0501  0.6783 -0.0937
12551TIP3    H259069   1.487   1.037  12.170 -0.6745 -1.0042  0.1767
12552TIP3   OH259070   6.621   2.598   2.798 -0.1077 -0.3540  0.2354
12552TIP3    H159071   6.618   2.570   2.707  0.2041 -1.0245  0.4212
12552TIP3    H259072   6.534   2.635   2.815 -0.2041 -0.3325 -0.2980
12553TIP3   OH259073   5.209   4.161   2.139  0.0707  0.4789 -0.5197
12553TIP3    H159074   5.278   4.200   2.085 -1.1954  0.8333 -1.9521
12553TIP3    H259075   5.135   4.220   2.129  0.0343  1.0683  2.4178
12554TIP3   OH259076   4.426   4.774   4.840 -0.7636  0.0737 -0.0800
12554TIP3    H159077   4.402   4.683   4.857 -2.4143  0.5846  0.4823
12554TIP3    H259078   4.374   4.799   4.764 -1.0416  0.8262  0.3433
12555TIP3   OH259079   2.209   3.083  14.601 -0.0803  0.2688 -0.1566
12555TIP3    H159080   2.205   3.176  14.581 -0.0237  0.0145 -1.4537
12555TIP3    H259081   2.118   3.053  14.595  0.2194 -0.3741 -3.1417
12556TIP3   OH259082   5.274   4.352   3.698 -0.3401 -0.4550  0.0723
12556TIP3    H159083   5.317   4.420   3.645  0.8666 -0.4721  0.9986
12556TIP3    H259084   5.220   4.401   3.760 -0.7035 -0.3998 -0.2811
12557TIP3   OH259085   1.038   1.269   0.451 -0.0822  0.3587  0.0514
12557TIP3    H159086   1.126   1.305   0.454  1.1842 -2.4583 -0.2708
12557TIP3    H259087   1.043   1.197   0.388 -1.2309 -3.0298  3.4114
12558TIP3   OH259088   5.059   5.662  11.611 -0.0694 -0.5724 -0.3857
12558TIP3    H159089   5.006   5.601  11.559  1.0702  0.2011 -2.5611
12558TIP3    H259090   5.000   5.733  11.633 -0.7385 -1.2223 -0.0424
12559TIP3   OH259091   2.632   5.515   4.300  0.7341  1.0228  0.1468
12559TIP3    H159092   2.682   5.445   4.258 -0.6408 -0.5891  1.0529
12559TIP3    H259093   2.572   5.545   4.231 -0.5917 -0.6854  0.4854
12560TIP3   OH259094   0.549   2.776  15.275  0.4567  0.1317 -0.3021
12560TIP3    H159095   0.573   2.841  15.341  0.1135  0.3960 -0.4316
12560TIP3    H259096   0.628   2.722  15.264  0.5635  0.1820  0.2055
12561TIP3   OH259097   0.312   3.802  16.838 -0.0297  0.2605  0.3766
12561TIP3    H159098   0.325   3.894  16.815  0.3046  0.2018  0.3205
12561TIP3    H259099   0.333   3.755  16.758 -0.3384  0.1431  0.3638
12562TIP3   OH259100   6.151   3.380   3.509 -0.2459  0.3801  0.1603
12562TIP3    H159101   6.159   3.332   3.426 -1.5015  1.2212 -0.4854
12562TIP3    H259102   6.061   3.412   3.509  0.5326  2.8278  0.4727
12563TIP3   OH259103   6.415   4.858  11.665 -0.5292 -0.3275  0.3897
12563TIP3    H159104   6.419   4.791  11.596 -1.3290  0.8490 -0.8459
12563TIP3    H259105   6.436   4.940  11.620  3.5503  0.0201  2.3891
12564TIP3   OH259106   1.901   5.917   5.529  0.1252 -0.1508  0.5454
12564TIP3    H159107   1.809   5.893   5.520  0.0853  0.6911 -2.2618
12564TIP3    H259108   1.899   6.005   5.567 -0.1141 -0.6555  1.7679
12565TIP3   OH259109   1.438   2.691  12.911  0.4425 -0.1723  0.0579
12565TIP3    H159110   1.447   2.601  12.940 -0.5202  0.2126  1.7166
12565TIP3    H259111   1.415   2.685  12.818  2.1802 -1.5392 -0.3219
12566TIP3   OH259112   2.942   1.014   1.163  0.5082  0.2481  0.1222
12566TIP3    H159113   2.973   1.060   1.241  1.6606  2.3442 -1.4583
12566TIP3    H259114   2.852   1.044   1.151  1.3012  2.4905 -1.0026
12567TIP3   OH259115   4.012   6.028   0.660  0.2198 -0.1552  0.7857
12567TIP3    H159116   4.003   6.123   0.659  0.1610 -0.1606 -0.5941
12567TIP3    H259117   3.966   5.998   0.582  2.0130 -1.1370  0.0344
12568TIP3   OH259118   1.398   5.814  13.189 -0.0721 -0.0462 -0.3711
12568TIP3    H159119   1.444   5.896  13.207  0.9024 -0.1548 -2.1031
12568TIP3    H259120   1.463   5.760  13.144 -1.4146 -0.8384 -1.4286
12569TIP3   OH259121   3.235   2.222   4.366 -0.0139  0.5204 -0.1112
12569TIP3    H159122   3.168   2.154   4.366  1.6982 -1.2572 -0.4809
12569TIP3    H259123   3.248   2.243   4.273  0.8706 -0.1554 -0.1550
12570TIP3   OH259124   6.029   6.579   1.981 -0.3211 -0.3207  0.3542
12570TIP3    H159125   5.949   6.607   2.026 -0.8355 -0.3150 -0.5346
12570TIP3    H259126   5.998   6.525   1.908  0.4217  0.5845 -0.6616
12571TIP3   OH259127   6.262   5.080  17.589  0.2430 -0.1097  0.0972
12571TIP3    H159128   6.247   4.987  17.572 -3.5332 -0.0720  2.0425
12571TIP3    H259129   6.203   5.125  17.528 -0.9991  0.7145  1.8139
12572TIP3   OH259130   3.063   0.772   4.228 -0.2516 -0.2571 -0.1001
12572TIP3    H159131   2.993   0.724   4.271 -1.5452  2.2190  0.7375
12572TIP3    H259132   3.087   0.840   4.290  0.8976  0.7295 -1.5655
12573TIP3   OH259133   0.500   3.708   1.457  1.2310 -0.4415 -0.5804
12573TIP3    H159134   0.501   3.779   1.520 -1.8610  0.1769 -1.0854
12573TIP3    H259135   0.473   3.749   1.374  0.4951 -1.9951 -1.1494
12574TIP3   OH259136   2.557   5.583  12.082 -0.1536  0.2567  0.0911
12574TIP3    H159137   2.564   5.675  12.057 -3.2396  0.7550  0.6042
12574TIP3    H259138   2.514   5.541  12.007  0.0111 -0.4769  0.3971
12575TIP3   OH259139   1.767   5.138  13.128  0.0545 -0.0256 -0.6294
12575TIP3    H159140   1.716   5.113  13.206  0.7546  1.8946  0.5007
12575TIP3    H259141   1.707   5.191  13.076 -0.0144 -0.2714 -0.8068
12576TIP3   OH259142   0.674   4.855  14.387  0.3299 -0.6363 -0.6733
12576TIP3    H159143   0.638   4.901  14.311  2.0276  0.8373 -0.6442
12576TIP3    H259144   0.741   4.914  14.421  1.7376 -2.6107  0.1246
12577TIP3   OH259145   0.063   0.189  11.251 -0.4032 -0.0930 -0.1620
12577TIP3    H159146   0.117   0.127  11.202 -0.8780  0.4479 -1.3816
12577TIP3    H259147   0.124   0.259  11.276 -0.3467  0.0702 -0.7520
12578TIP3   OH259148   2.952   4.737   1.393 -0.3619 -0.2186 -0.3654
12578TIP3    H159149   2.948   4.650   1.431 -0.5022 -0.0736 -0.0490
12578TIP3    H259150   2.894   4.790   1.447 -0.5525 -0.0085 -0.7678
12579TIP3   OH259151   4.677   2.944  12.348 -0.3109 -0.0721 -0.3242
12579TIP3    H159152   4.692   3.039  12.354  0.0619 -0.2130  1.4540
12579TIP3    H259153   4.754   2.905  12.389 -1.5357 -1.0713  1.1125
12580TIP3   OH259154   1.966   5.523  17.206  0.1807 -0.0462  0.5680
12580TIP3    H159155   1.907   5.486  17.271 -1.7055  0.8783 -0.5200
12580TIP3    H259156   1.931   5.611  17.189  1.7558  0.4573 -0.2947
12581TIP3   OH259157   2.931   6.504  15.220 -0.3234  0.1359  0.1254
12581TIP3    H159158   2.975   6.540  15.143  0.4852  1.3126  1.1004
12581TIP3    H259159   2.934   6.409  15.208  0.9998  0.2583 -0.6427
12582TIP3   OH259160   1.385   4.517  11.071  0.2637  0.2008  0.0791
12582TIP3    H159161   1.358   4.472  11.152  0.7411  1.2542  0.8554
12582TIP3    H259162   1.319   4.584  11.058  0.8303  0.8136  0.2848
12583TIP3   OH259163   1.751   4.113   4.027  0.1618 -0.0686  0.1368
12583TIP3    H159164   1.839   4.090   3.996 -0.1751  0.5348 -1.3976
12583TIP3    H259165   1.714   4.165   3.955 -2.0318 -1.6297  0.0217
12584TIP3   OH259166   5.588   1.135  13.565 -0.0332 -0.2700 -0.2644
12584TIP3    H159167   5.678   1.129  13.599  1.0700  0.9804 -2.6916
12584TIP3    H259168   5.547   1.203  13.617  0.0178 -1.5675  1.5808
12585TIP3   OH259169   5.912   1.420  14.671  0.3586 -0.1081 -0.2270
12585TIP3    H159170   5.842   1.478  14.643  0.9419  1.5267  1.5027
12585TIP3    H259171   5.908   1.421  14.767  0.5828 -2.7441 -0.1218
12586TIP3   OH259172   6.555   0.808   3.372  0.3661  0.1321 -0.0022
12586TIP3    H159173   6.593   0.727   3.406 -0.5400 -1.0800 -1.7354
12586TIP3    H259174   6.626   0.871   3.377  0.8584 -0.4959  2.1860
12587TIP3   OH259175   5.488   3.400  16.493 -0.0578  0.5235  0.1584
12587TIP3    H159176   5.459   3.479  16.447 -2.5594  0.0190  0.7271
12587TIP3    H259177   5.510   3.339  16.423 -0.3002  0.9705 -0.3182
12588TIP3   OH259178   4.053   4.997  13.598  0.3564 -0.6232  0.6829
12588TIP3    H159179   4.049   4.944  13.518 -0.0172  0.6289 -0.1476
12588TIP3    H259180   3.966   5.035  13.606  0.1700 -1.2752  2.0944
12589TIP3   OH259181   1.024   2.490  16.493  0.5800 -0.0936  0.3182
12589TIP3    H159182   0.983   2.500  16.407  0.9258  1.5466  0.3102
12589TIP3    H259183   1.052   2.579  16.517  1.1293 -0.6350  1.8090
12590TIP3   OH259184   1.821   2.970   0.775 -0.4800 -0.6540  0.6646
12590TIP3    H159185   1.775   2.958   0.692 -1.2919  0.3512  0.9499
12590TIP3    H259186   1.913   2.962   0.752 -0.7348 -1.4283 -0.1488
12591TIP3   OH259187   3.234   6.582   3.914  0.0410 -0.2432 -0.2948
12591TIP3    H159188   3.177   6.572   3.838 -0.8767 -1.1185  0.4699
12591TIP3    H259189   3.190   6.647   3.969  0.6396  0.2998 -0.4443
12592TIP3   OH259190   5.670   6.395   4.347 -0.0671 -0.2342 -0.2167
12592TIP3    H159191   5.604   6.400   4.278 -0.4864  1.3609  0.2527
12592TIP3    H259192   5.625   6.428   4.425  1.4921  1.7785 -0.0780
12593TIP3   OH259193   4.608   0.719   0.387  0.2077  0.5309 -0.3031
12593TIP3    H159194   4.551   0.676   0.323  1.6401  0.5427 -1.6314
12593TIP3    H259195   4.692   0.674   0.379  0.5061  0.6913  1.4222
12594TIP3   OH259196   0.772   3.768   2.060  0.1414 -0.4875 -0.0594
12594TIP3    H159197   0.829   3.712   2.009  0.9446  1.0956 -0.9726
12594TIP3    H259198   0.691   3.773   2.009  0.3327 -0.2514 -0.3442
12595TIP3   OH259199   4.538   1.314  12.492  0.0650 -0.2189  0.3997
12595TIP3    H159200   4.557   1.244  12.554  0.4215  1.2259  2.0180
12595TIP3    H259201   4.617   1.319  12.437  0.6429 -0.1654  1.2117
12596TIP3   OH259202   3.131   0.358  13.517  0.1058 -0.5098  0.0264
12596TIP3    H159203   3.039   0.333  13.511 -0.2424  0.8504 -0.5099
12596TIP3    H259204   3.139   0.401  13.602  0.3248 -0.8622  0.1918
12597TIP3   OH259205   0.733   3.044  11.077 -0.2294  0.1909  0.3179
12597TIP3    H159206   0.703   3.077  10.992 -0.7187 -0.0274  0.4018
12597TIP3    H259207   0.817   3.088  11.092  0.0742 -0.0986 -0.4794
12598TIP3   OH259208   4.256   3.358  11.847  0.2021 -0.2056 -0.5523
12598TIP3    H159209   4.285   3.441  11.808 -0.1958  1.5120  2.4567
12598TIP3    H259210   4.318   3.342  11.917 -1.4153 -0.8064  0.8229
12599TIP3   OH259211   4.070   2.679   0.570 -0.1322  0.2360 -0.3612
12599TIP3    H159212   4.111   2.599   0.604 -0.3113 -0.0513 -0.8147
12599TIP3    H259213   4.058   2.734   0.648  0.5019  0.0519 -0.1297
12600TIP3   OH259214   3.575   5.258  11.571 -0.4369  0.0208 -0.2228
12600TIP3    H159215   3.598   5.172  11.537  0.2846 -0.5341  1.5231
12600TIP3    H259216   3.495   5.244  11.621  1.4473 -0.4840  2.9370
12601TIP3   OH259217   5.616   3.526  13.111 -1.0646  0.1309 -0.3109
12601TIP3    H159218   5.685   3.511  13.176 -0.5491  1.3203 -0.5520
12601TIP3    H259219   5.613   3.445  13.060  0.7997  0.3517 -0.8688
12602TIP3   OH259220   4.954   1.734   3.412  0.2413  0.6146  0.3393
12602TIP3    H159221   4.987   1.695   3.332 -0.5230  2.1613 -0.7964
12602TIP3    H259222   4.860   1.716   3.411  0.1690  0.9481  0.6911
12603TIP3   OH259223   4.858   6.341  13.352 -0.5349 -0.4653 -0.0593
12603TIP3    H159224   4.786   6.393  13.317  1.1459  1.9422 -0.1714
12603TIP3    H259225   4.904   6.308  13.274 -1.0442 -1.3595  0.0053
12604TIP3   OH259226   6.538   0.760   5.482  0.3296  0.7944 -0.1635
12604TIP3    H159227   6.481   0.767   5.405  0.5416  2.0548 -0.2322
12604TIP3    H259228   6.552   0.851   5.509 -1.2851  0.3364  2.5414
12605TIP3   OH259229   2.584   2.810   3.412  0.7309  0.0440  0.1103
12605TIP3    H159230   2.554   2.757   3.486  2.5022  1.4943  1.9623
12605TIP3    H259231   2.659   2.763   3.377  0.0784 -0.4829 -0.6430
12606TIP3   OH259232   5.177   2.414   5.949  0.1979 -0.1513  0.3824
12606TIP3    H159233   5.243   2.463   5.900  0.6265 -0.6541  0.4509
12606TIP3    H259234   5.200   2.322   5.936 -1.8210 -0.4736 -1.4771
12607TIP3   OH259235   3.562   5.009   0.919  0.0514 -0.4271  0.4024
12607TIP3    H159236   3.501   5.034   0.851 -0.9410 -1.3463  0.9279
12607TIP3    H259237   3.632   4.963   0.873  0.4014  0.6822 -0.2082
12608TIP3   OH259238   5.638   3.989   3.580 -0.1508  0.1906  0.1307
12608TIP3    H159239   5.710   4.039   3.543 -0.0877  2.1850  2.6743
12608TIP3    H259240   5.670   3.898   3.581  1.7443  0.8153 -0.0552
12609TIP3   OH259241   4.267   2.221   2.512  0.1311  0.3668  0.2632
12609TIP3    H159242   4.315   2.284   2.459  0.2133  1.2123  1.3167
12609TIP3    H259243   4.311   2.222   2.597 -1.9755  1.4933  1.4158
12610TIP3   OH259244   3.622   6.670   1.218 -0.2787 -0.1729 -0.3002
12610TIP3    H159245   3.697   6.696   1.165  0.4262  1.6849  1.5004
12610TIP3    H259246   3.650   6.683   1.308 -2.2132 -1.0576  0.4941
12611TIP3   OH259247   3.647   5.367  15.221  0.0880  0.0374  0.2006
12611TIP3    H159248   3.703   5.397  15.293 -0.2067  0.9019  0.0801
12611TIP3    H259249   3.598   5.445  15.195  0.3933 -0.2039 -1.1219
12612TIP3   OH259250   1.973   3.155  10.300 -0.3115  0.1156  0.4282
12612TIP3    H159251   1.944   3.066  10.284  1.3207 -0.3164 -0.2687
12612TIP3    H259252   2.053   3.146  10.352  1.6672  0.9571 -2.2285
12613TIP3   OH259253   5.403   6.090  14.530 -0.1549 -0.2486  0.3815
12613TIP3    H159254   5.488   6.127  14.554 -0.9788  0.9324  1.6988
12613TIP3    H259255   5.391   6.115  14.438  1.1805 -1.0049 -0.0227
12614TIP3   OH259256   1.479   0.997   2.721  0.2371 -0.0560  0.5200
12614TIP3    H159257   1.486   0.931   2.652  0.6881  0.3436  0.1715
12614TIP3    H259258   1.524   1.074   2.685 -1.8321  1.0729  0.1674
12615TIP3   OH259259   0.294   1.448  12.856  0.3819 -0.2405 -0.3274
12615TIP3    H159260   0.278   1.424  12.947  1.1913 -2.9054 -0.7904
12615TIP3    H259261   0.213   1.427  12.810  0.2896  0.2243 -0.3847
12616TIP3   OH259262   5.037   5.134  17.587 -0.7920  0.1193 -0.2719
12616TIP3    H159263   5.091   5.092  17.519 -0.3886 -0.7297  0.5498
12616TIP3    H259264   5.001   5.061  17.637  0.7605  0.7254  1.8496
12617TIP3   OH259265   2.149   2.640   5.531  0.3652 -0.3189  0.9454
12617TIP3    H159266   2.168   2.619   5.439  1.0081 -1.1671  1.2597
12617TIP3    H259267   2.214   2.706   5.554  0.7729 -0.7489  1.0396
12618TIP3   OH259268   0.479   0.753   1.878 -0.2138 -0.2798 -0.2763
12618TIP3    H159269   0.494   0.816   1.808 -1.4835  0.6247  0.2305
12618TIP3    H259270   0.550   0.768   1.941  2.1944 -2.5066 -2.2404
12619TIP3   OH259271   3.429   0.426   4.015 -0.7616  0.0564 -0.4219
12619TIP3    H159272   3.436   0.466   3.928  2.2567 -0.0997 -0.3322
12619TIP3    H259273   3.381   0.490   4.067 -1.8844  0.5163 -1.9346
12620TIP3   OH259274   3.728   3.522  11.767 -0.0137  0.2540 -0.4169
12620TIP3    H159275   3.666   3.499  11.697  0.1274  0.7298 -0.7023
12620TIP3    H259276   3.721   3.450  11.829 -1.3293  0.6073 -0.1193
12621TIP3   OH259277   5.410   1.067   5.483  0.6165  0.1710  0.0641
12621TIP3    H159278   5.492   1.088   5.526  1.6223  1.3005 -2.2385
12621TIP3    H259279   5.402   0.972   5.492  0.9796  0.2876  2.2195
12622TIP3   OH259280   0.695   5.401   6.541 -0.3038  0.3665 -0.3196
12622TIP3    H159281   0.608   5.369   6.562 -0.6512  0.3623 -1.6982
12622TIP3    H259282   0.680   5.478   6.486  0.5511  1.3241  0.7230
12623TIP3   OH259283   0.421   1.766  13.397 -0.3039  0.1533  0.1959
12623TIP3    H159284   0.350   1.711  13.431  1.1895 -0.6296  2.2134
12623TIP3    H259285   0.454   1.717  13.321 -0.3803 -0.6767  0.6838
12624TIP3   OH259286   2.585   1.905   3.885 -0.0402  0.0514  0.0842
12624TIP3    H159287   2.522   1.851   3.933 -0.2986  0.4328  0.1715
12624TIP3    H259288   2.635   1.951   3.952 -0.1620  0.3129 -0.0059
12625TIP3   OH259289   1.992   2.427  15.847  0.2444  0.1036 -0.3576
12625TIP3    H159290   1.938   2.488  15.896 -1.3930 -1.9691  0.5942
12625TIP3    H259291   2.044   2.382  15.913 -1.0119 -1.7917 -0.5632
12626TIP3   OH259292   0.966   2.593  12.080 -0.4576  0.4282  0.1822
12626TIP3    H159293   0.984   2.516  12.026 -1.4518  0.6073 -0.4283
12626TIP3    H259294   1.045   2.646  12.074 -0.6247  0.5374 -1.2684
12627TIP3   OH259295   1.096   1.182   1.018  0.8200 -0.0154 -0.2139
12627TIP3    H159296   1.156   1.137   1.077  0.1338 -0.9124 -0.1611
12627TIP3    H259297   1.082   1.120   0.946 -2.8647 -1.5412  1.5288
12628TIP3   OH259298   5.242   3.045   1.822 -0.3816 -0.4362 -0.1895
12628TIP3    H159299   5.174   2.984   1.850 -1.6945 -0.8780 -3.8230
12628TIP3    H259300   5.196   3.107   1.765  1.7834  1.0941 -0.3880
12629TIP3   OH259301   3.768   2.785   2.714  0.4473  0.0481  0.1321
12629TIP3    H159302   3.845   2.732   2.690  0.0149 -0.8418  0.6540
12629TIP3    H259303   3.803   2.872   2.732  1.2117 -0.1170 -0.5089
12630TIP3   OH259304   5.949   3.999  11.467  0.3760  0.1819 -0.3211
12630TIP3    H159305   5.958   4.042  11.381  1.6702 -1.3339 -0.9864
12630TIP3    H259306   5.855   4.001  11.484  0.2541  2.1317 -0.8941
12631TIP3   OH259307   4.175   5.472   2.015  0.2278 -0.3501 -0.4910
12631TIP3    H159308   4.080   5.464   2.005 -0.0289  0.1011  1.3247
12631TIP3    H259309   4.198   5.407   2.080  0.7223  1.3651  1.1358
12632TIP3   OH259310   1.857   4.220   4.739 -0.5491  0.4801  0.5779
12632TIP3    H159311   1.831   4.163   4.811 -0.9049  1.8113  1.5189
12632TIP3    H259312   1.868   4.160   4.664  0.4999 -1.0179  1.8644
12633TIP3   OH259313   5.428   0.290  13.099  0.1171  0.3515  0.1026
12633TIP3    H159314   5.378   0.226  13.048  1.4685  1.1696 -2.4476
12633TIP3    H259315   5.418   0.262  13.190 -2.3796 -1.2568 -0.5810
12634TIP3   OH259316   6.270   5.959   2.798 -0.0163 -0.6541  0.6653
12634TIP3    H159317   6.215   5.970   2.875 -0.9097 -1.1937  0.1239
12634TIP3    H259318   6.218   5.995   2.726  0.2448 -1.3658  0.1085
12635TIP3   OH259319   4.961   4.626  10.253  0.3519  0.6547 -0.4529
12635TIP3    H159320   4.997   4.569  10.186  0.6602  0.0586  0.2021
12635TIP3    H259321   4.908   4.568  10.308 -1.0346  1.3799 -0.9640
12636TIP3   OH259322   0.205   0.725   3.450  0.7463 -0.3419  0.1563
12636TIP3    H159323   0.213   0.708   3.544  1.3852 -2.4189 -0.2209
12636TIP3    H259324   0.137   0.664   3.420 -1.6847  2.3836 -0.2999
12637TIP3   OH259325   0.866   0.344  14.497 -0.0978  0.5077 -0.0587
12637TIP3    H159326   0.870   0.283  14.423 -0.7653 -0.9428  1.0295
12637TIP3    H259327   0.777   0.380  14.493  0.3296  1.5265 -0.7601
12638TIP3   OH259328   5.912   6.199   3.592 -0.4119  0.4421 -0.2489
12638TIP3    H159329   5.845   6.237   3.649  0.3431  1.2305  0.1343
12638TIP3    H259330   5.994   6.217   3.637  0.0561 -0.6317 -0.6527
12639TIP3   OH259331   4.537   3.187  15.731  0.4325 -0.1910  0.0192
12639TIP3    H159332   4.547   3.104  15.685  0.0430  1.2258 -2.8920
12639TIP3    H259333   4.621   3.231  15.719  0.3476  0.1910  0.7597
12640TIP3   OH259334   1.946   2.095  14.957  0.9549  0.5619  0.3910
12640TIP3    H159335   2.000   2.035  15.008  1.5916  1.0845  0.3399
12640TIP3    H259336   1.860   2.090  14.999  0.4855 -1.7223 -0.6970
12641TIP3   OH259337   5.343   3.581   1.070  0.0909 -0.3311 -0.4522
12641TIP3    H159338   5.284   3.517   1.110  0.7050 -0.5653  0.1101
12641TIP3    H259339   5.426   3.534   1.059  0.3146  0.1274 -0.7964
12642TIP3   OH259340   3.916   5.280   5.701  0.4002  0.2933 -0.0500
12642TIP3    H159341   4.002   5.318   5.719  0.1219  1.3393 -0.8332
12642TIP3    H259342   3.911   5.203   5.759  1.6105  0.5549  0.4321
12643TIP3   OH259343   5.792   3.079   6.704  0.2002 -0.3686 -0.1847
12643TIP3    H159344   5.750   3.007   6.751  1.2538  0.6306  2.4203
12643TIP3    H259345   5.730   3.152   6.711  0.7028  0.0120  0.3534
12644TIP3   OH259346   1.268   5.816  13.815 -0.2063  0.2280  0.3400
12644TIP3    H159347   1.182   5.777  13.801 -0.0521  0.0030  0.0095
12644TIP3    H259348   1.326   5.742  13.830  0.0301  0.3464  0.0184
12645TIP3   OH259349   3.697   5.974   4.655 -0.0594 -0.5634 -0.8521
12645TIP3    H159350   3.694   5.900   4.593  0.3218 -0.9818 -0.3770
12645TIP3    H259351   3.641   5.947   4.727  1.4000 -1.1363  0.1170
12646TIP3   OH259352   5.443   2.888  13.764 -0.1874  0.2942  0.1205
12646TIP3    H159353   5.449   2.957  13.698 -0.1923  0.8492  0.6812
12646TIP3    H259354   5.381   2.922  13.829 -0.0514 -0.1579  0.4950
12647TIP3   OH259355   3.420   0.299   0.388  0.2268 -0.0148  0.8764
12647TIP3    H159356   3.485   0.369   0.386  0.6724 -0.4404 -0.7693
12647TIP3    H259357   3.336   0.343   0.376  0.4383  0.3031  0.5585
12648TIP3   OH259358   0.342   1.739   2.352  0.5066  0.1615  0.1950
12648TIP3    H159359   0.321   1.646   2.361 -1.2334  0.6805  2.7429
12648TIP3    H259360   0.384   1.761   2.436  2.4954  1.3380 -1.0416
12649TIP3   OH259361   3.952   3.740   6.075 -0.9274  0.2440 -0.1985
12649TIP3    H159362   3.867   3.695   6.078  0.4920 -2.6053  0.6690
12649TIP3    H259363   3.965   3.771   6.164 -0.3886 -0.7703  0.0939
12650TIP3   OH259364   0.392   6.107  16.641  0.2684 -0.4159  0.1062
12650TIP3    H159365   0.435   6.031  16.602  0.9982  0.0210  0.0492
12650TIP3    H259366   0.463   6.169  16.659 -0.2279 -0.0369  0.8215
12651TIP3   OH259367   3.537   0.375  13.621 -0.2087  0.3505  0.0657
12651TIP3    H159368   3.625   0.406  13.644  0.6814 -2.4397  0.7840
12651TIP3    H259369   3.538   0.371  13.526  0.4088  0.4350  0.0608
12652TIP3   OH259370   5.856   5.033   3.623  0.1073 -0.0862  0.0963
12652TIP3    H159371   5.901   4.969   3.567  1.3138  0.2666  0.6361
12652TIP3    H259372   5.914   5.108   3.626 -0.4030  0.2921  1.0294
12653TIP3   OH259373   6.576   5.663  12.045 -0.2149 -0.3768 -0.4892
12653TIP3    H159374   6.589   5.582  11.996 -0.8470  0.0481 -1.3834
12653TIP3    H259375   6.655   5.714  12.028 -0.0974 -0.5418 -0.4440
12654TIP3   OH259376   2.658   0.517  16.902 -0.5470  0.0795  0.1614
12654TIP3    H159377   2.601   0.514  16.824  0.7585 -2.3571 -0.8045
12654TIP3    H259378   2.741   0.552  16.869 -0.7938  1.6602  1.1167
12655TIP3   OH259379   5.790   3.781   3.182  0.1738  0.4037 -0.4584
12655TIP3    H159380   5.861   3.826   3.228  0.4579  0.1730 -0.6719
12655TIP3    H259381   5.725   3.850   3.166  0.4335  0.6561 -0.4403
12656TIP3   OH259382   4.207   5.002   2.211  0.6261 -0.3240 -0.0234
12656TIP3    H159383   4.130   4.969   2.164  0.6352  0.2695 -0.4576
12656TIP3    H259384   4.258   4.923   2.232 -0.0338 -0.7115  0.1589
12657TIP3   OH259385   5.350   3.685   2.209  0.1892  0.5287 -0.8629
12657TIP3    H159386   5.413   3.693   2.281 -0.7895 -0.6910  0.1843
12657TIP3    H259387   5.298   3.766   2.214 -0.3082  0.1734  0.2856
12658TIP3   OH259388   4.057   3.310   5.714  0.2052 -0.2840 -1.0292
12658TIP3    H159389   4.072   3.221   5.744 -0.9832 -0.2502 -0.2718
12658TIP3    H259390   4.105   3.316   5.631 -0.2151 -1.8218 -1.4140
12659TIP3   OH259391   1.796   0.912   4.591  0.3037 -0.1961 -0.3572
12659TIP3    H159392   1.711   0.868   4.584  0.4651 -0.2463 -2.3642
12659TIP3    H259393   1.860   0.841   4.596  0.3392 -0.1606 -0.3020
12660TIP3   OH259394   6.344   3.085  13.986 -0.5412  0.1188 -0.1665
12660TIP3    H159395   6.414   3.147  13.965  0.6043 -0.7806  0.8308
12660TIP3    H259396   6.263   3.134  13.971  0.3025  1.4327 -0.6240
12661TIP3   OH259397   3.423   5.941   2.647  0.0882 -0.4867 -0.3586
12661TIP3    H159398   3.396   5.850   2.659 -0.2621 -0.5705 -1.6596
12661TIP3    H259399   3.387   5.987   2.723  1.7345 -1.6966  1.2424
12662TIP3   OH259400   3.147   0.795   3.253  0.5269 -0.6007 -0.0876
12662TIP3    H159401   3.229   0.762   3.290 -0.3693 -1.4784  1.2270
12662TIP3    H259402   3.161   0.795   3.159  1.7744 -1.4733  0.0761
12663TIP3   OH259403   1.127   1.336  10.727  0.0538  0.3041  0.1714
12663TIP3    H159404   1.180   1.359  10.804 -1.0102  0.7073  0.8058
12663TIP3    H259405   1.068   1.268  10.758  0.5528 -0.5323 -0.6806
12664TIP3   OH259406   5.866   3.309  17.345  0.0741 -0.4858 -0.3284
12664TIP3    H159407   5.930   3.276  17.282  1.3244  2.0698 -0.5149
12664TIP3    H259408   5.918   3.333  17.421 -0.5728  1.7414 -0.5191
12665TIP3   OH259409   4.608   3.873  15.288 -0.3868 -0.6300  0.3132
12665TIP3    H159410   4.604   3.967  15.272 -2.8941 -0.1265  3.1872
12665TIP3    H259411   4.566   3.834  15.211 -1.9896  0.8471  0.3874
12666TIP3   OH259412   3.238   2.618  12.248 -0.3442  0.2016 -0.6542
12666TIP3    H159413   3.190   2.649  12.325 -0.8992  0.9639 -1.2960
12666TIP3    H259414   3.319   2.668  12.249 -0.6245  0.6657 -0.9071
12667TIP3   OH259415   5.637   4.733  13.214 -0.2930 -1.1112 -0.4118
12667TIP3    H159416   5.712   4.788  13.193 -0.2337 -0.8835  0.3906
12667TIP3    H259417   5.598   4.713  13.128  0.6567 -1.2198 -0.8303
12668TIP3   OH259418   3.312   5.316  12.849 -0.2387 -0.0921  0.1745
12668TIP3    H159419   3.227   5.346  12.817 -0.4597 -0.1621  0.7001
12668TIP3    H259420   3.301   5.306  12.943 -0.1776 -1.8836  0.0138
12669TIP3   OH259421   1.981   0.794  16.708 -0.2947 -0.1562  0.1460
12669TIP3    H159422   1.888   0.799  16.684  0.2438 -0.4623 -2.3410
12669TIP3    H259423   1.992   0.863  16.773 -1.6055  2.3344 -2.0555
12670TIP3   OH259424   3.132   1.878   4.471  0.2875  0.0588  0.3066
12670TIP3    H159425   3.104   1.911   4.386 -2.2842 -2.2810  0.0700
12670TIP3    H259426   3.060   1.820   4.499  2.3086 -1.5267  2.7385
12671TIP3   OH259427   1.943   0.963  14.571 -0.0388  0.0804  0.1250
12671TIP3    H159428   2.001   1.023  14.617 -0.6974 -0.1256  1.2834
12671TIP3    H259429   1.862   1.013  14.559 -0.7142 -0.6604  1.4200
12672TIP3   OH259430   4.279   1.815   4.303 -0.0402 -0.0952  0.5375
12672TIP3    H159431   4.350   1.872   4.333  0.2037 -0.6062  0.9328
12672TIP3    H259432   4.249   1.769   4.381  1.0250 -1.8999 -0.0651
12673TIP3   OH259433   0.713   0.077   4.168 -0.2270 -0.2832 -0.3470
12673TIP3    H159434   0.754   0.146   4.116  2.1275 -1.6014 -0.3397
12673TIP3    H259435   0.719   0.108   4.258 -2.1100  0.8900 -0.5615
12674TIP3   OH259436   2.678   3.950   5.221  0.0298 -0.2587  0.0907
12674TIP3    H159437   2.659   4.020   5.283  0.2076 -0.0464 -0.0892
12674TIP3    H259438   2.760   3.978   5.179 -0.2601 -0.2315 -0.4718
12675TIP3   OH259439   5.524   4.449   3.588 -0.5289  0.0818  0.0313
12675TIP3    H159440   5.612   4.480   3.565 -0.9667  0.6025 -1.0340
12675TIP3    H259441   5.530   4.426   3.681  0.4167  1.2257  0.2770
12676TIP3   OH259442   6.351   0.963  14.494 -0.0893 -0.3774 -0.4711
12676TIP3    H159443   6.372   0.931  14.406  1.7475  1.1809 -0.6667
12676TIP3    H259444   6.436   0.969  14.538 -0.6766  1.3295  0.5191
12677TIP3   OH259445   3.179   0.536  15.316 -0.0481 -0.1980  0.0148
12677TIP3    H159446   3.180   0.586  15.234  1.5001  0.5042  0.4340
12677TIP3    H259447   3.266   0.497  15.321 -0.5928 -1.3534  0.6708
12678TIP3   OH259448   3.107   1.589   2.741  0.4454  0.7010  0.2763
12678TIP3    H159449   3.176   1.599   2.675  0.5251 -1.1368  0.0228
12678TIP3    H259450   3.055   1.669   2.735  1.9385  1.6675 -0.2445
12679TIP3   OH259451   1.599   5.544   5.665  0.2652 -0.5153  0.1420
12679TIP3    H159452   1.652   5.465   5.667  0.2380 -0.5261  0.4411
12679TIP3    H259453   1.538   5.535   5.739 -0.1039 -0.4676 -0.1540
12680TIP3   OH259454   2.000   1.091  10.593 -0.3032 -0.1000  0.5015
12680TIP3    H159455   2.062   1.019  10.578  0.1600  0.4138 -0.1028
12680TIP3    H259456   1.971   1.115  10.505  0.7650  1.5206  0.5609
12681TIP3   OH259457   1.234   3.725   2.482  0.1405 -0.2411  0.0786
12681TIP3    H159458   1.308   3.774   2.446  0.6496  0.9206  2.4728
12681TIP3    H259459   1.164   3.736   2.418  1.3766  0.4864 -1.2047
12682TIP3   OH259460   0.513   6.125  13.648  0.3048  0.4623 -0.5760
12682TIP3    H159461   0.422   6.108  13.625  0.7247 -0.9910 -1.2955
12682TIP3    H259462   0.519   6.104  13.741 -0.0350  0.3257 -0.5826
12683TIP3   OH259463   1.107   5.339   4.876 -0.5831 -0.1140 -0.1484
12683TIP3    H159464   1.016   5.334   4.906 -0.7380  1.9172 -0.2029
12683TIP3    H259465   1.157   5.367   4.952  0.1223 -1.7382  0.0280
12684TIP3   OH259466   6.188   3.678  11.734  0.3068  0.3576 -0.0471
12684TIP3    H159467   6.152   3.718  11.654  0.8763  0.0841 -0.4522
12684TIP3    H259468   6.192   3.750  11.797  0.1762  0.6619 -0.3808
12685TIP3   OH259469   1.630   5.170   1.740 -0.3478 -0.2372 -0.1438
12685TIP3    H159470   1.704   5.123   1.703  0.2102  0.9939 -0.6494
12685TIP3    H259471   1.600   5.116   1.813  1.4899 -0.4175  0.5216
12686TIP3   OH259472   6.104   1.208   5.725 -0.1355  0.4574  0.6193
12686TIP3    H159473   6.148   1.292   5.711  0.5194 -0.2408 -2.2271
12686TIP3    H259474   6.175   1.146   5.741 -0.3618 -0.0176 -0.1536
12687TIP3   OH259475   3.932   1.628   2.999 -0.3573 -0.1964 -0.0433
12687TIP3    H159476   3.924   1.648   2.906  0.0669  1.4795  0.2422
12687TIP3    H259477   3.849   1.585   3.022 -0.5445 -0.4561 -1.1320
12688TIP3   OH259478   2.740   3.992  11.605  0.4252  0.4674 -0.2342
12688TIP3    H159479   2.760   3.985  11.698 -0.0107  3.3736  0.1924
12688TIP3    H259480   2.825   3.990  11.562  1.0487  3.0471  0.6761
12689TIP3   OH259481   5.771   6.270  14.201 -0.6819  0.0220 -0.0850
12689TIP3    H159482   5.792   6.346  14.255 -0.5584 -0.0307 -0.0571
12689TIP3    H259483   5.735   6.307  14.121 -0.8202  0.1025  0.0148
12690TIP3   OH259484   5.022   2.047  13.191  0.1622 -0.4600 -0.1703
12690TIP3    H159485   5.013   2.111  13.261  0.7413  2.6300 -2.7179
12690TIP3    H259486   5.091   1.988  13.222  0.8147  1.1127  1.5889
12691TIP3   OH259487   3.068   5.784  17.552 -0.4454 -0.1964  0.0636
12691TIP3    H159488   3.155   5.780  17.511  0.2849  1.3824  1.3377
12691TIP3    H259489   3.030   5.698  17.535  1.2543 -0.8401 -0.7760
12692TIP3   OH259490   2.739   4.582  13.846 -0.8160 -0.1205 -0.4457
12692TIP3    H159491   2.662   4.623  13.807 -2.0721 -0.9930  0.9984
12692TIP3    H259492   2.710   4.552  13.933  1.2716 -0.0808  0.3419
12693TIP3   OH259493   2.465   6.426   5.654  0.3520  0.0916 -0.6024
12693TIP3    H159494   2.460   6.334   5.680  0.9366  0.5060  1.1548
12693TIP3    H259495   2.483   6.472   5.736  3.3374  1.4443 -1.8645
12694TIP3   OH259496   1.395   0.224  13.728 -0.0731 -0.3572  0.1937
12694TIP3    H159497   1.439   0.309  13.738 -2.6258  1.2909 -1.3995
12694TIP3    H259498   1.384   0.214  13.634 -1.5211 -1.5316  0.4645
12695TIP3   OH259499   3.374   5.630   2.644  0.4421  0.0781  0.3180
12695TIP3    H159500   3.284   5.615   2.672 -0.0739  2.6768  0.3300
12695TIP3    H259501   3.426   5.568   2.695 -1.3962 -2.7001 -0.8940
12696TIP3   OH259502   1.788   6.298  12.245  0.1060  0.5584  0.0155
12696TIP3    H159503   1.713   6.350  12.217 -0.3676  0.4315  1.0266
12696TIP3    H259504   1.864   6.353  12.225 -0.2701  0.8376 -0.6738
12697TIP3   OH259505   2.171   4.148  15.642  0.7733 -0.2755  0.0347
12697TIP3    H159506   2.118   4.168  15.719  1.5367 -0.3699  0.5934
12697TIP3    H259507   2.213   4.231  15.619 -1.3980  0.4043 -1.8474
12698TIP3   OH259508   2.614   2.539  14.626 -0.4395 -0.2175  0.5887
12698TIP3    H159509   2.602   2.544  14.532 -0.7523  1.5073  0.6968
12698TIP3    H259510   2.537   2.582  14.663 -0.2617 -0.7505  1.6350
12699TIP3   OH259511   2.499   2.099  15.807  0.3610 -0.4602  0.3076
12699TIP3    H159512   2.470   2.040  15.876 -0.6511 -1.5155 -0.9689
12699TIP3    H259513   2.424   2.157  15.791 -0.1956 -1.5580 -1.2761
12700TIP3   OH259514   1.828   0.284   4.491 -0.2221 -0.2807  0.4587
12700TIP3    H159515   1.795   0.213   4.436  3.4191 -1.5675 -0.3648
12700TIP3    H259516   1.877   0.340   4.431 -0.5345  1.2745  1.5912
12701TIP3   OH259517   2.880   5.552  10.834  0.2669 -0.4959  0.2789
12701TIP3    H159518   2.808   5.523  10.889  0.5363  1.0696  1.5554
12701TIP3    H259519   2.838   5.581  10.753 -0.4656 -0.2657  0.7285
12702TIP3   OH259520   4.454   5.880   2.220  0.4214 -0.3153  0.5315
12702TIP3    H159521   4.362   5.877   2.193  1.0189  0.3691 -1.7781
12702TIP3    H259522   4.461   5.960   2.271 -0.6665 -1.4667  2.6459
12703TIP3   OH259523   3.296   2.196   3.126 -0.2284  0.5009  0.2102
12703TIP3    H159524   3.257   2.122   3.171 -2.6265  0.3845 -1.8530
12703TIP3    H259525   3.274   2.272   3.181 -2.3659  0.2672 -0.2311
12704TIP3   OH259526   2.127   1.732   4.310 -0.2047 -0.2611 -0.1202
12704TIP3    H159527   2.044   1.699   4.344  0.8568 -1.3280  1.6049
12704TIP3    H259528   2.115   1.826   4.303 -2.1650 -0.5721 -1.7344
12705TIP3   OH259529   6.532   0.651   0.022 -0.3148 -0.5584  0.2726
12705TIP3    H159530   6.558   0.589   0.090  2.3751  0.0092 -0.1324
12705TIP3    H259531   6.559   0.610  -0.060  0.2266  0.5216 -0.1092
12706TIP3   OH259532   1.485   2.789   2.004 -0.1246  0.1459  0.1155
12706TIP3    H159533   1.537   2.815   1.928 -1.0630 -0.1526 -0.6427
12706TIP3    H259534   1.547   2.787   2.077  0.6055  1.3527 -0.4541
12707TIP3   OH259535   1.686   3.622  15.661 -0.0468  0.0003 -0.6148
12707TIP3    H159536   1.644   3.651  15.579 -0.3699  1.0550 -0.1046
12707TIP3    H259537   1.667   3.693  15.723  2.6289  0.6237 -0.3880
12708TIP3   OH259538   1.795   1.273   3.599  0.4803 -0.0142 -0.0806
12708TIP3    H159539   1.831   1.197   3.645 -0.1254 -1.4026 -1.7848
12708TIP3    H259540   1.824   1.348   3.651  1.9330 -1.3288  1.1234
12709TIP3   OH259541   5.375   5.877  11.558 -0.5275  0.2882  0.2070
12709TIP3    H159542   5.373   5.836  11.645  0.7416  0.2710  0.2512
12709TIP3    H259543   5.373   5.971  11.576 -1.4689  0.2853  0.1863
12710TIP3   OH259544   2.973   3.706   4.635 -0.1213 -0.4782 -0.4866
12710TIP3    H159545   2.907   3.736   4.698  0.7145  0.8037 -0.1813
12710TIP3    H259546   2.924   3.691   4.555 -0.7117  1.1962 -0.4878
12711TIP3   OH259547   3.224   5.276  13.123 -0.0314 -0.9395 -0.2445
12711TIP3    H159548   3.231   5.279  13.219  0.4357  0.1679 -0.2984
12711TIP3    H259549   3.131   5.288  13.106  0.1130  0.9076  0.0401
12712TIP3   OH259550   3.363   3.365   5.806 -0.4123  0.3210 -0.7221
12712TIP3    H159551   3.424   3.297   5.834 -0.0635  0.0734 -1.9976
12712TIP3    H259552   3.354   3.351   5.712 -1.2750  1.3009 -0.8018
12713TIP3   OH259553   4.723   1.514   1.963 -0.3372  0.1533  0.5307
12713TIP3    H159554   4.774   1.594   1.964 -1.2356  0.8278 -1.6451
12713TIP3    H259555   4.781   1.448   2.002  2.4538  0.7493 -2.2384
12714TIP3   OH259556   0.046   1.632   5.841  0.7034 -0.3552  0.0671
12714TIP3    H159557   0.026   1.695   5.911 -0.4855 -0.4922 -0.1307
12714TIP3    H259558   0.055   1.549   5.887  1.7480 -0.1445  0.2653
12715TIP3   OH259559   3.613   0.536   0.400 -0.1051  0.0799  0.0384
12715TIP3    H159560   3.599   0.583   0.317 -0.3061 -3.0274 -1.8570
12715TIP3    H259561   3.596   0.601   0.468  1.4390  3.1917 -2.2945
12716TIP3   OH259562   1.368   1.626   6.014 -0.0007  0.1394 -0.3135
12716TIP3    H159563   1.282   1.668   6.005 -0.0670 -0.4889 -4.0751
12716TIP3    H259564   1.347   1.533   6.021  0.3747  0.0190 -0.8255
12717TIP3   OH259565   3.649   5.309   0.988  0.1273 -0.2188 -0.8973
12717TIP3    H159566   3.630   5.291   1.080 -0.9431  0.0416 -1.0487
12717TIP3    H259567   3.690   5.229   0.956  0.2570 -0.4140 -0.2612
12718TIP3   OH259568   2.670   5.595  16.073 -0.1958  0.0867  0.0462
12718TIP3    H159569   2.728   5.549  16.133  1.6088  0.5769 -1.2488
12718TIP3    H259570   2.655   5.680  16.114 -2.4548 -1.0676  1.7958
12719TIP3   OH259571   1.898   5.722   2.108 -0.3049  0.6008 -0.4884
12719TIP3    H159572   1.843   5.765   2.173  0.1747  1.3891 -0.5904
12719TIP3    H259573   1.926   5.640   2.150 -0.2194  0.9718  0.1837
12720TIP3   OH259574   5.572   5.839  11.796  0.0633  0.0228  0.3041
12720TIP3    H159575   5.622   5.878  11.867  1.0528 -1.3496  0.4079
12720TIP3    H259576   5.535   5.759  11.834 -1.4503  0.5359 -0.0428
12721TIP3   OH259577   1.198   5.744  14.102 -0.0932 -0.5138 -0.0002
12721TIP3    H159578   1.284   5.703  14.106 -0.0559 -0.3618  0.7427
12721TIP3    H259579   1.164   5.718  14.016  1.1169  0.3056 -0.7625
12722TIP3   OH259580   4.586   5.793  14.474  0.2318 -0.4001 -0.0869
12722TIP3    H159581   4.588   5.788  14.570  0.4095 -0.6923 -0.1079
12722TIP3    H259582   4.615   5.882  14.455  0.1689 -0.3301  0.1301
12723TIP3   OH259583   2.405   5.323  13.472  0.5149  0.8909 -0.0861
12723TIP3    H159584   2.450   5.351  13.393 -0.9884 -0.9923 -1.7001
12723TIP3    H259585   2.318   5.362  13.466  0.2682  0.4459  0.4632
12724TIP3   OH259586   3.183   5.209   2.793  0.2193 -0.6319  0.1896
12724TIP3    H159587   3.243   5.245   2.727  0.6885 -1.4350  0.1578
12724TIP3    H259588   3.238   5.150   2.845  0.0492  0.6111  1.8406
12725TIP3   OH259589   3.876   0.060  14.950  0.0315 -0.0246 -0.1048
12725TIP3    H159590   3.843   0.140  14.909  0.9096 -1.0897 -3.1449
12725TIP3    H259591   3.826  -0.010  14.908 -0.5324 -1.1699  2.2910
12726TIP3   OH259592   5.534   3.404  14.616  0.4015  0.4383  0.7880
12726TIP3    H159593   5.603   3.350  14.654  0.0257  0.6351  1.7806
12726TIP3    H259594   5.475   3.341  14.574  0.6190  0.1860  0.8547
12727TIP3   OH259595   6.647   1.016   3.909 -0.5701  0.0326  0.1425
12727TIP3    H159596   6.687   1.037   3.825 -0.7145  1.4818  0.4164
12727TIP3    H259597   6.644   0.920   3.911 -1.6594 -0.0404 -2.0229
12728TIP3   OH259598   3.053   1.444   6.360 -0.1613 -0.0663  0.2747
12728TIP3    H159599   2.976   1.452   6.416 -1.4441 -2.7205 -0.9341
12728TIP3    H259600   3.109   1.380   6.404 -1.2280 -2.2612 -1.3602
12729TIP3   OH259601   0.929   2.148   0.976 -0.2696 -0.1721  0.0077
12729TIP3    H159602   1.025   2.151   0.981 -0.3363  2.4688  2.1522
12729TIP3    H259603   0.907   2.215   0.911 -0.6668 -0.1220  0.1891
12730TIP3   OH259604   5.574   2.648  15.500 -0.3430  0.0171 -0.5358
12730TIP3    H159605   5.487   2.683  15.521 -1.7711 -3.7904  0.7971
12730TIP3    H259606   5.560   2.595  15.421  0.7017 -0.7981 -0.2025
12731TIP3   OH259607   0.799   4.854  15.031 -0.3287 -0.2554 -0.6222
12731TIP3    H159608   0.856   4.833  15.104 -2.5103 -1.1129  0.9653
12731TIP3    H259609   0.852   4.839  14.953  0.7700 -4.0725  0.6340
12732TIP3   OH259610   0.818   5.256  14.583  0.1858  0.1750 -0.3726
12732TIP3    H159611   0.860   5.207  14.654  0.6302 -1.9194 -2.0181
12732TIP3    H259612   0.842   5.210  14.503 -3.2714  0.2711 -1.6238
12733TIP3   OH259613   1.458   1.322  11.062 -0.3592 -0.2085 -0.1587
12733TIP3    H159614   1.538   1.372  11.076 -0.0667 -0.6317 -0.2779
12733TIP3    H259615   1.431   1.294  11.149 -0.8455  0.6332 -0.0288
12734TIP3   OH259616   3.421   4.503  11.088 -0.2573 -0.1438  0.1568
12734TIP3    H159617   3.391   4.578  11.140  1.6063  1.8083 -1.3748
12734TIP3    H259618   3.400   4.527  10.997 -1.3914 -2.4231 -0.2414
12735TIP3   OH259619   3.210   5.581   5.261  0.5372 -0.2024 -1.0912
12735TIP3    H159620   3.205   5.656   5.321 -0.5402 -0.7290 -0.4921
12735TIP3    H259621   3.135   5.593   5.202 -1.1734 -2.0571  0.5646
12736TIP3   OH259622   4.937   2.185   0.365 -0.1749 -0.5049  0.0792
12736TIP3    H159623   4.965   2.157   0.453 -3.0369  0.3750  1.3843
12736TIP3    H259624   4.972   2.273   0.355 -1.5888  0.2287  1.2937
12737TIP3   OH259625   1.996   5.983  13.478 -0.4008 -0.2235  0.1321
12737TIP3    H159626   1.919   5.993  13.422  0.6712  1.6623 -1.1156
12737TIP3    H259627   2.030   5.896  13.458 -2.4420 -1.2958  1.0879
12738TIP3   OH259628   6.550   5.752   1.083 -0.5353  0.1205 -1.0152
12738TIP3    H159629   6.509   5.675   1.122 -0.4677 -0.1153 -1.4057
12738TIP3    H259630   6.502   5.826   1.120 -0.2341 -0.0842 -0.2021
12739TIP3   OH259631   5.916   3.776  17.512  0.4860  0.1370 -0.3771
12739TIP3    H159632   5.926   3.739  17.425 -2.1071  1.0897 -1.1683
12739TIP3    H259633   5.900   3.869  17.497  0.3280  0.3837  1.1397
12740TIP3   OH259634   5.284   4.329  12.203  0.6327  0.3079  0.0450
12740TIP3    H159635   5.199   4.366  12.226 -0.2711 -2.3515  1.3506
12740TIP3    H259636   5.347   4.389  12.242 -0.7678 -0.2148  3.5067
12741TIP3   OH259637   5.559   2.365  12.424  0.0805 -0.1125  0.0990
12741TIP3    H159638   5.551   2.458  12.444  1.1779 -0.0413  0.2322
12741TIP3    H259639   5.614   2.361  12.346 -0.0369 -0.6496  0.0389
12742TIP3   OH259640   5.309   5.848   3.469  0.0203  0.5178 -0.7791
12742TIP3    H159641   5.330   5.918   3.408  4.4526 -1.2931 -1.7284
12742TIP3    H259642   5.268   5.780   3.416 -1.7910  1.2266 -0.3758
12743TIP3   OH259643   4.716   0.720  15.203  0.1510 -0.2322 -0.3377
12743TIP3    H159644   4.662   0.798  15.190  1.6242  0.6973 -1.1216
12743TIP3    H259645   4.805   0.753  15.212  0.7056 -1.7756  0.2099
12744TIP3   OH259646   1.112   0.415  17.122 -0.0259  0.1350  0.0534
12744TIP3    H159647   1.204   0.389  17.123  0.2950  1.2066 -0.0991
12744TIP3    H259648   1.112   0.506  17.153 -1.1020 -0.0398  0.6409
12745TIP3   OH259649   3.843   6.708  15.358 -0.2620 -0.0743 -0.2877
12745TIP3    H159650   3.825   6.679  15.268 -1.5722  0.3616 -0.1865
12745TIP3    H259651   3.833   6.803  15.355  1.2701  0.1246 -0.0078
12746TIP3   OH259652   6.152   4.874  10.587 -0.0518 -0.0297 -0.0960
12746TIP3    H159653   6.214   4.838  10.523 -0.4795  1.8952 -1.6989
12746TIP3    H259654   6.197   4.951  10.622 -1.1482  0.8611 -0.6050
12747TIP3   OH259655   5.618   6.029   0.637 -0.2255  0.2990  0.4661
12747TIP3    H159656   5.679   6.077   0.581 -0.3903  0.1795  0.1856
12747TIP3    H259657   5.672   5.962   0.679 -0.2539 -0.1054 -0.1380
12748TIP3   OH259658   0.239   5.709   1.558 -0.8461 -0.0215 -0.2611
12748TIP3    H159659   0.223   5.756   1.640 -0.7688 -2.4093  1.2326
12748TIP3    H259660   0.257   5.778   1.494 -3.5101  2.0926  1.0716
12749TIP3   OH259661   3.775   2.374  12.039  0.1589  0.0896 -0.6845
12749TIP3    H159662   3.824   2.382  11.957  1.4748 -0.8755 -0.0278
12749TIP3    H259663   3.750   2.464  12.060  1.2009  0.5574 -1.3258
12750TIP3   OH259664   1.839   1.605  13.433 -0.0988  0.1117  0.1685
12750TIP3    H159665   1.765   1.648  13.390  0.2479 -0.0551 -0.6207
12750TIP3    H259666   1.856   1.657  13.511  0.2456  1.3637 -0.7146
12751TIP3   OH259667   4.051   3.192  14.118  0.2277  0.2378  0.2446
12751TIP3    H159668   4.024   3.141  14.041 -0.8730 -0.8008  1.2676
12751TIP3    H259669   4.145   3.201  14.109  0.3319 -1.2280 -0.4577
12752TIP3   OH259670   1.141   5.823  13.092  0.4888  0.1986 -0.2173
12752TIP3    H159671   1.127   5.917  13.105  1.3896  0.2318  0.6527
12752TIP3    H259672   1.225   5.806  13.135  1.1162 -0.7112 -1.7074
12753TIP3   OH259673   5.391   0.248   1.883 -0.0826  0.0447  0.3594
12753TIP3    H159674   5.369   0.341   1.883  0.6457  0.2438 -0.9622
12753TIP3    H259675   5.330   0.210   1.818  0.6374 -0.1183 -0.2331
12754TIP3   OH259676   3.116   2.242   2.804  1.1472  0.1612  0.3406
12754TIP3    H159677   3.175   2.257   2.731 -1.2166  1.7437 -1.3640
12754TIP3    H259678   3.113   2.325   2.851  1.1415 -0.2515  1.0948
12755TIP3   OH259679   1.180   5.520   0.769  0.0297  0.4008  0.0422
12755TIP3    H159680   1.139   5.603   0.745  0.4468  1.0001  1.3067
12755TIP3    H259681   1.266   5.545   0.803  1.8397 -0.8599 -3.1508
12756TIP3   OH259682   3.335   4.344  15.818 -0.5950  1.1789  0.9668
12756TIP3    H159683   3.339   4.308  15.730  0.5441  1.3642  0.9284
12756TIP3    H259684   3.284   4.424  15.810  1.1733  2.2782  0.0595
12757TIP3   OH259685   5.013   1.833   4.605 -0.3650  0.2871  0.1939
12757TIP3    H159686   4.940   1.773   4.589 -1.1234  0.9078  1.2205
12757TIP3    H259687   4.980   1.919   4.580  0.7151  0.3282 -1.2651
12758TIP3   OH259688   6.639   2.566   3.851 -0.2122  0.2630  0.0269
12758TIP3    H159689   6.573   2.548   3.918 -0.2545 -1.7127 -0.4902
12758TIP3    H259690   6.590   2.610   3.782 -0.4428  1.1221  0.7171
12759TIP3   OH259691   3.754   1.930   1.717 -0.2429  0.3736 -0.2018
12759TIP3    H159692   3.773   1.940   1.624 -0.0777  2.3209 -0.0112
12759TIP3    H259693   3.659   1.928   1.722 -0.2480 -0.8637 -0.4785
12760TIP3   OH259694   0.838   1.754   1.724 -0.5110  0.1672 -0.4164
12760TIP3    H159695   0.742   1.749   1.724 -0.6170  1.8452  0.2434
12760TIP3    H259696   0.861   1.780   1.813  0.6006 -0.5670 -0.4686
12761TIP3   OH259697   5.744   0.456   4.819  0.4893 -0.1611  0.0985
12761TIP3    H159698   5.737   0.445   4.724 -0.8642  1.2422  0.0023
12761TIP3    H259699   5.728   0.368   4.854  0.0092 -0.5076 -0.9462
12762TIP3   OH259700   5.664   0.217  12.694 -0.4340  0.0024  0.6377
12762TIP3    H159701   5.734   0.242  12.634  1.5424  0.6093  3.0331
12762TIP3    H259702   5.670   0.121  12.699 -0.1584  0.0048  0.3834
12763TIP3   OH259703   6.637   2.784   5.210  0.3548 -0.6901 -0.4311
12763TIP3    H159704   6.669   2.698   5.239 -0.5598 -0.9748 -0.2151
12763TIP3    H259705   6.549   2.766   5.176 -0.2409  0.3167  0.5304
12764TIP3   OH259706   3.047   0.899  12.078  0.2806  0.1191 -0.2051
12764TIP3    H159707   3.078   0.869  12.163 -0.4318 -0.7580 -0.2408
12764TIP3    H259708   2.984   0.832  12.050  1.3384 -0.2083 -1.9335
12765TIP3   OH259709   5.299   3.795   0.381 -0.3948  0.2973  0.5247
12765TIP3    H159710   5.216   3.800   0.428 -1.2207  1.1636 -0.9429
12765TIP3    H259711   5.313   3.701   0.366 -1.8624  0.2171 -0.4562
12766TIP3   OH259712   0.402   5.475   4.127 -0.2125 -0.6906 -0.2106
12766TIP3    H159713   0.494   5.496   4.114 -0.8227  0.8990 -2.5538
12766TIP3    H259714   0.361   5.557   4.155 -1.1742 -0.9317 -0.8304
12767TIP3   OH259715   3.309   1.784  13.326  0.3909  0.3168  0.5048
12767TIP3    H159716   3.303   1.695  13.362  0.6023 -0.0955 -0.4476
12767TIP3    H259717   3.333   1.839  13.401  2.5981 -0.7871  0.7025
12768TIP3   OH259718   6.268   4.161  14.632  0.0091  0.1591 -0.4443
12768TIP3    H159719   6.222   4.245  14.629 -1.1377 -0.2425  2.2961
12768TIP3    H259720   6.348   4.179  14.681  0.6704 -0.0257 -1.4248
12769TIP3   OH259721   0.482   1.616  16.356  0.5432 -0.2889  0.0669
12769TIP3    H159722   0.494   1.615  16.262  1.3048  0.0361  0.1567
12769TIP3    H259723   0.387   1.615  16.368  0.4076  1.3124 -0.7121
12770TIP3   OH259724   4.318   3.745   1.604 -0.2627 -0.7499  0.8601
12770TIP3    H159725   4.409   3.730   1.630 -0.2672 -0.4352  1.0598
12770TIP3    H259726   4.304   3.685   1.531  0.6584  0.4713 -0.3681
12771TIP3   OH259727   1.341   2.609   3.712  0.2677 -0.2147  0.1528
12771TIP3    H159728   1.350   2.685   3.654 -1.4199  0.3065  0.5068
12771TIP3    H259729   1.345   2.534   3.653  1.8253  0.1198 -0.2220
12772TIP3   OH259730   5.795   2.628   1.648  0.2693 -0.2794  0.0648
12772TIP3    H159731   5.838   2.544   1.630  0.7749 -0.1171  0.4684
12772TIP3    H259732   5.773   2.623   1.741 -1.4412 -0.7288 -0.3245
12773TIP3   OH259733   3.531   4.717   3.732  0.0778  0.1628 -0.6875
12773TIP3    H159734   3.583   4.637   3.729  0.4221  0.4198 -3.2017
12773TIP3    H259735   3.444   4.688   3.757  0.5164 -0.7947 -0.2238
12774TIP3   OH259736   3.536   1.682  15.452 -0.2963 -0.2286  0.1689
12774TIP3    H159737   3.479   1.616  15.492  0.5393 -1.1055 -0.0487
12774TIP3    H259738   3.480   1.729  15.391 -1.3100  0.3597  1.4851
12775TIP3   OH259739   2.006   2.677  12.360  0.8495 -0.2258  0.6539
12775TIP3    H159740   1.992   2.586  12.335  1.3309  0.0064 -0.5466
12775TIP3    H259741   1.986   2.727  12.281  0.7447  0.7024  1.2493
12776TIP3   OH259742   5.701   1.633   6.116  0.4810 -0.2255  0.1815
12776TIP3    H159743   5.673   1.708   6.063  3.2433 -0.5443 -1.9284
12776TIP3    H259744   5.629   1.620   6.179 -1.2761  2.4977 -1.0801
12777TIP3   OH259745   2.359   2.587   4.152 -0.5081 -0.2716 -0.3159
12777TIP3    H159746   2.322   2.654   4.095 -0.9880 -0.4558 -0.2251
12777TIP3    H259747   2.288   2.523   4.163  0.3034 -1.4014 -1.3674
12778TIP3   OH259748   5.450   5.672  14.203  0.1580  0.2940  0.3204
12778TIP3    H159749   5.464   5.579  14.184 -0.9681  0.2512 -0.3241
12778TIP3    H259750   5.537   5.703  14.230  0.6830 -0.8026 -0.0246
12779TIP3   OH259751   5.628   2.155  15.977 -0.1398 -0.1348 -0.1394
12779TIP3    H159752   5.612   2.197  16.062 -2.4635  0.6017 -0.8855
12779TIP3    H259753   5.715   2.187  15.951  0.4805 -0.1258  1.7950
12780TIP3   OH259754   2.624   5.162   1.963 -0.0039  0.5084 -0.5354
12780TIP3    H159755   2.535   5.185   1.935  0.2112  0.7619 -1.0176
12780TIP3    H259756   2.669   5.138   1.882  0.6553  1.3649 -0.4314
12781TIP3   OH259757   4.249   2.975  15.069  0.3003  0.0225 -0.0510
12781TIP3    H159758   4.333   3.015  15.048 -0.1815 -0.0044 -2.2880
12781TIP3    H259759   4.186   3.048  15.066 -0.0961 -0.3373 -0.8703
12782TIP3   OH259760   4.677   1.157   2.340  0.1054  0.3759 -0.3750
12782TIP3    H159761   4.729   1.101   2.283 -0.0056  0.8525 -0.9579
12782TIP3    H259762   4.730   1.168   2.419  0.5482  0.2311 -0.6494
12783TIP3   OH259763   2.465   3.555  16.665 -0.2140  0.4239  0.2930
12783TIP3    H159764   2.522   3.572  16.740  2.0188  1.7064 -1.5537
12783TIP3    H259765   2.523   3.556  16.589 -2.2681 -1.3776 -1.4740
12784TIP3   OH259766   6.098   1.666  16.150 -0.3213  0.0434 -0.2015
12784TIP3    H159767   6.158   1.724  16.103  0.9207  2.4968  3.8419
12784TIP3    H259768   6.152   1.591  16.176 -0.0105  0.3920  0.1838
12785TIP3   OH259769   5.352   4.163  14.766  0.1476  0.0326 -0.0456
12785TIP3    H159770   5.354   4.154  14.671  1.5836  0.6854 -0.1013
12785TIP3    H259771   5.261   4.186  14.786 -0.8894 -2.9594 -0.9307
12786TIP3   OH259772   0.932   3.177  12.101 -0.2764  0.0271 -0.4318
12786TIP3    H159773   0.901   3.089  12.123 -2.7811  0.9552  0.0869
12786TIP3    H259774   0.938   3.177  12.005  1.2412 -1.1271 -0.3639
12787TIP3   OH259775   3.720   2.729  13.924  0.5659  0.2396  0.5174
12787TIP3    H159776   3.677   2.745  14.008  0.4349 -4.6436  1.6905
12787TIP3    H259777   3.813   2.738  13.942  0.4505  1.3441  0.5805
12788TIP3   OH259778   2.954   5.543  17.223 -0.0416 -0.2642 -0.4000
12788TIP3    H159779   2.870   5.519  17.185  1.1014 -1.4089 -2.3803
12788TIP3    H259780   3.019   5.498  17.168  1.8891  0.9967  0.7272
12789TIP3   OH259781   1.124   5.038   6.525  0.0481  0.3780 -0.2203
12789TIP3    H159782   1.155   4.973   6.462 -2.5858 -1.2173 -0.0228
12789TIP3    H259783   1.034   5.057   6.497 -0.5507  1.0446  1.9479
12790TIP3   OH259784   6.705   4.624   5.232 -0.0768 -0.6148 -0.3057
12790TIP3    H159785   6.701   4.606   5.138 -0.6013 -0.6051 -0.2883
12790TIP3    H259786   6.647   4.699   5.245  0.1962 -0.4515 -0.0109
12791TIP3   OH259787   0.254   0.454  16.430 -0.0802 -0.4509  0.0556
12791TIP3    H159788   0.206   0.374  16.454 -0.8089 -0.1445 -0.3479
12791TIP3    H259789   0.324   0.423  16.372  0.0436 -0.8715  0.4239
12792TIP3   OH259790   1.152   3.642   3.635  0.8050 -1.0065 -0.2999
12792TIP3    H159791   1.083   3.707   3.626  0.9971 -0.5381  1.2703
12792TIP3    H259792   1.201   3.647   3.553  0.2366  0.1319 -0.5898
12793TIP3   OH259793   5.965   0.516   1.834 -0.4544 -0.8400  0.0198
12793TIP3    H159794   5.891   0.570   1.807 -0.8879 -1.3236  0.2220
12793TIP3    H259795   5.935   0.471   1.913  1.4240  1.9499  2.5239
12794TIP3   OH259796   4.618   1.877  16.785 -0.8237  0.3990 -0.0705
12794TIP3    H159797   4.700   1.926  16.777 -0.0080 -0.6525  1.2922
12794TIP3    H259798   4.555   1.926  16.733  0.1948  2.3184  0.4255
12795TIP3   OH259799   3.445   4.080   0.155 -0.0685 -0.1947  0.1936
12795TIP3    H159800   3.388   4.157   0.145 -0.8691 -0.8447 -0.3650
12795TIP3    H259801   3.420   4.042   0.238  0.4780  0.2523  0.5742
12796TIP3   OH259802   5.629   1.221   0.838 -0.2037 -0.4044 -0.1584
12796TIP3    H159803   5.540   1.245   0.866 -0.0515  0.9549 -0.7445
12796TIP3    H259804   5.637   1.258   0.750  0.8449 -0.7529 -0.2218
12797TIP3   OH259805   3.748   6.076  15.507  0.0556  0.0103 -0.1979
12797TIP3    H159806   3.721   5.985  15.497  1.5720 -0.5819  0.7931
12797TIP3    H259807   3.787   6.098  15.423 -0.5247 -0.1651 -0.5214
12798TIP3   OH259808   6.320   4.201  15.042 -0.4127  0.3091 -0.6024
12798TIP3    H159809   6.413   4.209  15.064 -0.7461 -1.0037  1.4629
12798TIP3    H259810   6.294   4.291  15.020  0.9282  1.0165  0.4950
12799TIP3   OH259811   2.848   5.290  15.556 -0.0795  0.3460  1.3278
12799TIP3    H159812   2.918   5.226  15.545 -0.3718  0.1191  0.7149
12799TIP3    H259813   2.860   5.324  15.644 -0.0455 -0.7208  1.7511
12800TIP3   OH259814   2.194   5.431  10.720 -0.1039 -0.1526 -0.2295
12800TIP3    H159815   2.121   5.428  10.658 -2.0590 -0.1532  1.9493
12800TIP3    H259816   2.216   5.524  10.727  0.2204 -0.1650 -0.9964
12801TIP3   OH259817   1.884   1.609   4.383  0.4215 -0.1181 -0.3806
12801TIP3    H159818   1.807   1.582   4.333  0.5853 -1.7140  0.1509
12801TIP3    H259819   1.849   1.664   4.453 -0.1681 -0.3090 -0.5168
12802TIP3   OH259820   5.848   3.936  10.552  0.0864  0.3626  0.3544
12802TIP3    H159821   5.754   3.922  10.547 -0.0299  1.1884  0.0517
12802TIP3    H259822   5.859   3.995  10.626  0.3428  0.4820  0.2212
12803TIP3   OH259823   5.694   2.067   6.345 -0.1826 -0.0912  0.0293
12803TIP3    H159824   5.653   2.123   6.411 -0.7674 -0.0128 -0.3864
12803TIP3    H259825   5.757   2.014   6.393  0.5138  1.0457  0.4032
12804TIP3   OH259826   6.511   6.100   5.277 -0.2536 -0.0592  0.5924
12804TIP3    H159827   6.604   6.078   5.287 -0.3143  0.1148  1.7312
12804TIP3    H259828   6.510   6.172   5.214  0.3139 -0.5084  0.0548
12805TIP3   OH259829   5.066   4.832  15.626 -0.6237 -0.2429  0.5581
12805TIP3    H159830   5.084   4.907  15.683 -0.7663 -0.2248  0.5823
12805TIP3    H259831   5.147   4.818  15.578 -0.7603  0.2530  0.1749
12806TIP3   OH259832   4.718   5.655   5.465 -0.7089 -0.4031 -0.3421
12806TIP3    H159833   4.783   5.724   5.481  1.1230 -1.4956 -2.5481
12806TIP3    H259834   4.658   5.662   5.539  1.2234  1.4555  1.1916
12807TIP3   OH259835   5.746   5.736  10.909  0.3424  0.3252  0.3180
12807TIP3    H159836   5.840   5.726  10.896  0.1228 -1.0311 -0.3973
12807TIP3    H259837   5.737   5.768  10.998  1.4630 -0.0375  0.5746
12808TIP3   OH259838   1.258   5.179  15.303  0.2439 -0.0312  0.0460
12808TIP3    H159839   1.303   5.188  15.219  2.7447  3.7183  1.5215
12808TIP3    H259840   1.281   5.091  15.333  0.8216 -0.7705 -2.3254
12809TIP3   OH259841   2.452   5.659   1.358  0.1454 -0.2796  0.1583
12809TIP3    H159842   2.467   5.701   1.273 -0.2105  0.1455  0.3022
12809TIP3    H259843   2.523   5.595   1.366 -0.2529 -0.8610 -0.8006
12810TIP3   OH259844   4.778   3.385   4.546 -0.2932  0.5062  0.1521
12810TIP3    H159845   4.698   3.396   4.597 -0.3182  2.4857 -0.2124
12810TIP3    H259846   4.759   3.314   4.485 -0.7420 -0.9672  1.9364
12811TIP3   OH259847   0.998   4.235   4.965 -0.5522  0.2373 -0.2105
12811TIP3    H159848   0.965   4.238   5.055 -1.4215  2.2547 -0.5499
12811TIP3    H259849   0.956   4.157   4.928 -1.5531  0.3366  0.6509
12812TIP3   OH259850   3.674   1.661  13.375  0.1050 -0.2843  0.0998
12812TIP3    H159851   3.605   1.716  13.412  1.1075  1.9972 -1.2239
12812TIP3    H259852   3.656   1.658  13.281  0.3283 -1.9290  0.0721
12813TIP3   OH259853   2.089   6.603   2.874  0.1162 -0.3065 -0.2331
12813TIP3    H159854   2.018   6.541   2.893  1.0073 -0.9926  0.9975
12813TIP3    H259855   2.163   6.547   2.849  0.5201  0.3485 -0.5171
12814TIP3   OH259856   4.482   0.181   4.046  0.1415  0.1948 -0.1243
12814TIP3    H159857   4.543   0.255   4.047  0.4259 -0.0439  0.5139
12814TIP3    H259858   4.531   0.111   4.003 -0.2893  0.4966 -1.1523
12815TIP3   OH259859   3.605   5.782   2.209  0.5410  0.2284  0.0634
12815TIP3    H159860   3.524   5.777   2.260  2.0895 -3.2310  2.6203
12815TIP3    H259861   3.641   5.869   2.229 -0.6692  0.3321  2.0187
12816TIP3   OH259862   1.687   2.979   1.014  0.7637 -0.1811  0.0102
12816TIP3    H159863   1.610   3.031   0.994  0.2347 -1.2777 -0.8997
12816TIP3    H259864   1.736   2.976   0.932  0.0623 -2.2600 -0.4042
12817TIP3   OH259865   4.618   4.018   1.159 -0.6948  0.1670  0.1900
12817TIP3    H159866   4.601   4.110   1.177 -2.5020 -0.2146  0.6423
12817TIP3    H259867   4.660   4.017   1.073 -0.0468  1.4345  0.4699
12818TIP3   OH259868   4.439   1.170  13.300 -0.0685 -0.0482 -0.2951
12818TIP3    H159869   4.345   1.179  13.284  0.2785  3.4526 -1.1827
12818TIP3    H259870   4.446   1.155  13.394 -1.5062  1.1070  0.0315
12819TIP3   OH259871   4.721   0.991   0.767  0.2264  0.5894 -0.5706
12819TIP3    H159872   4.651   0.926   0.761  0.7243 -0.0210  0.0673
12819TIP3    H259873   4.794   0.952   0.718  0.6765  0.4614  0.1956
12820TIP3   OH259874   5.675   0.509   5.651 -0.2420  0.4181 -0.3915
12820TIP3    H159875   5.683   0.604   5.661 -1.3158  0.3725  1.2230
12820TIP3    H259876   5.585   0.490   5.676 -0.2985 -0.9465 -1.5535
12821TIP3   OH259877   2.348   2.373  17.532 -0.1680  0.9591 -0.1873
12821TIP3    H159878   2.381   2.288  17.561 -3.9595 -1.0055 -0.9702
12821TIP3    H259879   2.383   2.384  17.444  0.1722  0.0511 -0.1748
12822TIP3   OH259880   5.228   3.034  13.452 -0.4877  0.1818 -0.4401
12822TIP3    H159881   5.316   3.056  13.484 -0.3151  0.3280 -0.9892
12822TIP3    H259882   5.214   3.095  13.379 -0.9818  0.0462 -0.4609
12823TIP3   OH259883   3.997   2.435  13.464  0.1813 -0.3945 -0.1854
12823TIP3    H159884   3.930   2.380  13.425  0.5909 -1.0610  0.0494
12823TIP3    H259885   3.956   2.472  13.542  0.6436 -2.1792  0.9331
12824TIP3   OH259886   1.725   5.922  11.621  0.4517  0.7065 -0.1650
12824TIP3    H159887   1.664   5.909  11.548  1.3148 -0.7583 -0.6709
12824TIP3    H259888   1.791   5.982  11.586 -0.1625  1.5442  0.0744
12825TIP3   OH259889   0.900   4.753   2.182 -0.5131  0.4223 -0.0795
12825TIP3    H159890   0.820   4.745   2.234 -0.9171  1.1742 -0.5648
12825TIP3    H259891   0.874   4.725   2.094  0.2813 -1.2888  0.1905
12826TIP3   OH259892   2.058   2.416   3.469  0.3046 -0.0254  0.7510
12826TIP3    H159893   1.994   2.345   3.478 -0.7120  0.5393 -1.4353
12826TIP3    H259894   2.137   2.373   3.435 -0.0491 -0.2338  0.1831
12827TIP3   OH259895   1.944   1.270  15.880 -0.3788  0.3122  0.8750
12827TIP3    H159896   1.924   1.264  15.787  0.4661  0.1801  0.7000
12827TIP3    H259897   2.004   1.197  15.897  0.9973  1.4717  1.1142
12828TIP3   OH259898   6.681   2.850   3.976  0.3516  0.1718 -0.2183
12828TIP3    H159899   6.608   2.828   3.918 -0.4674  1.1081  0.4202
12828TIP3    H259900   6.676   2.946   3.986  3.6448  0.7614 -2.7391
12829TIP3   OH259901   0.046   1.915  12.777 -0.1617 -0.0815  0.1831
12829TIP3    H159902   0.049   1.854  12.851 -1.1385 -1.3774 -0.7908
12829TIP3    H259903  -0.045   1.945  12.775 -0.2251 -0.2983 -0.6573
12830TIP3   OH259904   4.295   2.689  11.956  0.2546 -0.0824 -0.4866
12830TIP3    H159905   4.370   2.732  11.916  1.0535  1.0292  1.9959
12830TIP3    H259906   4.331   2.645  12.034 -1.3052 -1.4861 -0.4878
12831TIP3   OH259907   4.389   5.543   2.929 -0.2679  0.3582 -0.1257
12831TIP3    H159908   4.450   5.612   2.952 -0.4132  1.1979 -2.0859
12831TIP3    H259909   4.352   5.570   2.844 -1.5199 -1.3260 -0.1743
12832TIP3   OH259910   1.246   0.054  12.793 -0.5497  0.4450 -0.3194
12832TIP3    H159911   1.318   0.071  12.853  0.0480  1.3843 -1.2524
12832TIP3    H259912   1.275  -0.021  12.741  1.1192  2.4970 -2.6117
12833TIP3   OH259913   4.403   4.031  12.675  0.6663 -0.2767  0.0971
12833TIP3    H159914   4.423   4.077  12.594 -0.2563 -1.7644 -1.0286
12833TIP3    H259915   4.472   3.966  12.684  0.9468  0.0936  0.6951
12834TIP3   OH259916   4.720   1.784  11.642 -0.6723 -0.1408  0.0353
12834TIP3    H159917   4.691   1.802  11.553 -1.3797  0.0861  0.3093
12834TIP3    H259918   4.642   1.796  11.696  0.1245  1.4025  0.9067
12835TIP3   OH259919   2.815   0.080  15.406  0.1504 -0.5888  0.1245
12835TIP3    H159920   2.725   0.079  15.374 -0.4140  1.6662  1.3950
12835TIP3    H259921   2.867   0.111  15.332 -0.5001  0.4402  0.0787
12836TIP3   OH259922   0.402   1.542  14.652 -0.2948 -0.3537  0.2531
12836TIP3    H159923   0.372   1.474  14.591  0.2180 -0.1084 -0.2859
12836TIP3    H259924   0.374   1.624  14.612  0.3089 -0.1725  0.1861
12837TIP3   OH259925   5.204   1.679  12.131 -0.6198  0.7477 -0.1237
12837TIP3    H159926   5.123   1.715  12.165 -0.5176 -0.0801  1.0619
12837TIP3    H259927   5.193   1.584  12.138  0.2713  0.6160 -0.3649
12838TIP3   OH259928   2.232   4.950  11.290 -0.2540 -0.1749 -0.3178
12838TIP3    H159929   2.304   4.893  11.316 -0.9342 -1.4248 -1.0536
12838TIP3    H259930   2.265   4.998  11.214  0.1565  0.0479  0.0004
12839TIP3   OH259931   6.592   3.683   0.334  0.4491 -0.1566  0.1784
12839TIP3    H159932   6.562   3.605   0.287 -0.3130  1.1869 -1.6860
12839TIP3    H259933   6.525   3.698   0.401  0.4586 -0.9362  0.3665
12840TIP3   OH259934   4.612   1.598  12.654  0.1433 -0.2395  0.0525
12840TIP3    H159935   4.615   1.508  12.622  2.4542 -0.6436  1.1684
12840TIP3    H259936   4.531   1.634  12.617  0.2604 -2.0713 -2.2519
12841TIP3   OH259937   6.629   4.804  17.423 -0.4902  0.7779  0.6751
12841TIP3    H159938   6.651   4.723  17.470 -0.6845  0.1065 -0.3507
12841TIP3    H259939   6.610   4.868  17.492  1.4011  0.4554  1.5513
12842TIP3   OH259940   6.632   0.918   2.802 -0.0793 -0.1363  0.0944
12842TIP3    H159941   6.692   0.959   2.740 -1.4938  0.1018 -1.1750
12842TIP3    H259942   6.625   0.827   2.772  0.9817 -0.6243  1.2897
12843TIP3   OH259943   3.743   1.909  13.187  0.4138  0.6975 -0.0217
12843TIP3    H159944   3.754   1.959  13.268  0.4345  1.5433 -0.5356
12843TIP3    H259945   3.649   1.913  13.168  0.5951  1.6989 -0.7758
12844TIP3   OH259946   4.823   5.296   2.646  0.1459 -0.7233 -0.2586
12844TIP3    H159947   4.794   5.234   2.713 -0.4155 -0.3539 -0.1530
12844TIP3    H259948   4.747   5.306   2.588  0.1330  0.0694 -0.1179
12845TIP3   OH259949   3.833   6.057   5.259  0.0498 -0.1527 -0.8084
12845TIP3    H159950   3.890   6.128   5.230  0.9660  0.1002  1.3609
12845TIP3    H259951   3.891   5.997   5.306 -1.1203 -1.0299 -0.4254
12846TIP3   OH259952   1.776   1.910  13.330 -0.3678  0.6784 -0.0424
12846TIP3    H159953   1.852   1.956  13.365 -1.5280  2.7798 -0.1173
12846TIP3    H259954   1.797   1.896  13.238  1.2427 -1.7522  0.5999
12847TIP3   OH259955   2.952   0.087   5.243  0.0495  0.8035  0.0681
12847TIP3    H159956   2.938   0.061   5.152 -1.2312  2.7981 -0.3640
12847TIP3    H259957   2.882   0.044   5.292  0.8177 -0.3771  0.1713
12848TIP3   OH259958   4.594   4.967   4.278 -0.2352  0.3275  0.0202
12848TIP3    H159959   4.647   4.919   4.215 -0.4044  0.1233  0.0342
12848TIP3    H259960   4.654   4.986   4.350  0.0174  0.7557 -0.2971
12849TIP3   OH259961   3.622   3.633   4.583  0.0310 -0.2751 -0.1142
12849TIP3    H159962   3.581   3.553   4.616  0.5344  0.3344  2.2483
12849TIP3    H259963   3.566   3.704   4.616  1.8628  0.4820  1.5840
12850TIP3   OH259964   0.265   5.239  14.908 -0.2011 -0.1336 -0.0842
12850TIP3    H159965   0.347   5.218  14.864  0.0260 -0.0385  0.2917
12850TIP3    H259966   0.245   5.162  14.962  1.0732  0.8886  1.9597
12851TIP3   OH259967   2.215   4.839  15.950 -0.0729  0.6316  0.0520
12851TIP3    H159968   2.298   4.883  15.967  0.7359  0.1136 -2.1819
12851TIP3    H259969   2.229   4.793  15.867 -1.9235 -1.2016  0.6776
12852TIP3   OH259970   3.020   2.388  17.479 -0.0936 -0.0984 -0.4301
12852TIP3    H159971   3.041   2.394  17.573  1.8135 -0.3059 -0.8088
12852TIP3    H259972   2.927   2.411  17.474 -0.0180  0.8053  1.4175
12853TIP3   OH259973   1.434   4.452  10.817 -0.4348 -0.5533  0.7225
12853TIP3    H159974   1.446   4.475  10.910 -2.4153 -1.0589  1.1621
12853TIP3    H259975   1.355   4.398  10.817 -0.4375 -0.5944 -1.2754
12854TIP3   OH259976   2.598   6.129  15.056 -0.2816  0.0800 -0.0500
12854TIP3    H159977   2.585   6.039  15.085 -1.9147  0.8027  1.6597
12854TIP3    H259978   2.684   6.129  15.014  1.1421 -1.6171  2.6194
12855TIP3   OH259979   0.662   6.630   1.000 -0.0884  0.2083  0.2422
12855TIP3    H159980   0.692   6.540   1.013  0.6761  0.6508  1.7800
12855TIP3    H259981   0.568   6.622   0.984 -0.5418 -0.7320  2.8448
12856TIP3   OH259982   2.501   1.436  10.420 -0.3158 -0.1616  0.1049
12856TIP3    H159983   2.589   1.419  10.388  0.8224  0.4976  2.6646
12856TIP3    H259984   2.512   1.500  10.490 -2.7725 -0.4905  0.9059
12857TIP3   OH259985   4.057   4.676   3.266 -0.2364 -0.1066 -0.5425
12857TIP3    H159986   4.007   4.757   3.281  0.5539  0.0936  1.3932
12857TIP3    H259987   4.021   4.614   3.329  1.0550 -0.3494 -0.0041
12858TIP3   OH259988   4.461   3.142   5.173 -0.0910 -0.0935 -0.7502
12858TIP3    H159989   4.529   3.076   5.161  0.1539  0.1501 -0.7065
12858TIP3    H259990   4.404   3.106   5.241  0.7117  0.2656  0.1457
12859TIP3   OH259991   1.272   6.351  12.487 -0.6774 -0.5491  0.2281
12859TIP3    H159992   1.241   6.359  12.397 -2.2114  0.1172  0.7621
12859TIP3    H259993   1.367   6.351  12.481 -0.7638 -1.1739 -1.4306
12860TIP3   OH259994   4.112   0.684  16.245  0.2288  0.4266  0.1171
12860TIP3    H159995   4.124   0.773  16.210  0.6017 -0.5862 -2.5725
12860TIP3    H259996   4.017   0.675  16.253  0.1783  0.9977  0.2055
12861TIP3   OH259997   3.469   4.222   4.089  0.2877 -0.2925 -0.4326
12861TIP3    H159998   3.375   4.201   4.086  0.2542 -0.0414 -1.5726
12861TIP3    H259999   3.498   4.188   4.174 -0.9211  0.0135  0.1299
12862TIP3   OH260000   6.084   4.924   0.314 -0.1420  0.3346 -0.2190
12862TIP3    H160001   6.053   4.947   0.226  0.5551  0.3133 -0.4773
12862TIP3    H260002   6.033   4.847   0.338 -1.3468  1.1605 -0.0114
12863TIP3   OH260003   6.605   5.506  16.196  0.3854 -0.0009 -0.3943
12863TIP3    H160004   6.648   5.511  16.110 -0.8405 -0.3808 -1.0446
12863TIP3    H260005   6.524   5.555  16.186 -0.1419 -0.7033  0.3075
12864TIP3   OH260006   4.727   2.066   0.263  0.4699 -0.0172  0.0660
12864TIP3    H160007   4.783   2.121   0.319 -0.8592  0.5533  0.8776
12864TIP3    H260008   4.740   1.977   0.296  0.4229  0.1948  0.6628
12865TIP3   OH260009   2.976   2.167  15.325  0.0924 -0.3166  0.3734
12865TIP3    H160010   2.935   2.200  15.406 -1.8598 -1.8926  0.0996
12865TIP3    H260011   3.008   2.246  15.282 -0.4298  0.7579  1.8327
12866TIP3   OH260012   1.457   3.269  15.214  0.2516  0.1408  0.0055
12866TIP3    H160013   1.529   3.238  15.270  0.5687 -0.2584 -0.6147
12866TIP3    H260014   1.463   3.216  15.135 -1.0438 -0.2294  0.1375
12867TIP3   OH260015   2.435   4.983  11.789  0.0560  0.4331 -0.1947
12867TIP3    H160016   2.492   5.060  11.789  1.8318 -0.8310 -0.1821
12867TIP3    H260017   2.412   4.971  11.881  2.5873 -0.9782  0.3409
12868TIP3   OH260018   0.954   0.920   6.090 -0.0480  0.1713  0.1176
12868TIP3    H160019   0.927   0.883   6.174 -1.4887  1.1700  0.1323
12868TIP3    H260020   0.980   1.010   6.111 -1.1024  0.6598 -0.5897
12869TIP3   OH260021   4.547   3.526  11.275 -0.1549 -0.1068 -0.1467
12869TIP3    H160022   4.458   3.492  11.277  0.2255 -1.2615 -1.2436
12869TIP3    H260023   4.538   3.616  11.244 -1.0674  0.4323  1.5476
12870TIP3   OH260024   5.556   4.456   3.888 -0.1782  0.2855 -0.0959
12870TIP3    H160025   5.516   4.483   3.971 -1.5507  0.9701 -0.9549
12870TIP3    H260026   5.644   4.495   3.891 -0.7896  1.6913  0.3376
12871TIP3   OH260027   4.160   1.726  16.532 -0.0501 -0.4753 -0.3156
12871TIP3    H160028   4.144   1.821  16.538  0.7630 -0.3981  2.8410
12871TIP3    H260029   4.108   1.697  16.457 -0.1269  2.4826 -1.5402
12872TIP3   OH260030   1.351   0.347  13.182  0.3682 -0.4819  0.2366
12872TIP3    H160031   1.317   0.397  13.255  2.0249  0.5951  0.3286
12872TIP3    H260032   1.295   0.370  13.108 -0.3006 -0.2903  0.8019
12873TIP3   OH260033   2.293   5.566  15.476  0.1292 -0.2398  0.3504
12873TIP3    H160034   2.252   5.484  15.446  0.2245  0.2626 -1.2755
12873TIP3    H260035   2.386   5.546  15.480  0.3905  0.2242 -1.8502
12874TIP3   OH260036   4.586   0.174   1.009 -0.4832  0.0634  0.4737
12874TIP3    H160037   4.615   0.119   1.081  1.5961 -0.7145 -0.8583
12874TIP3    H260038   4.637   0.144   0.934 -2.2048  1.1426 -1.2399
12875TIP3   OH260039   3.753   3.938   3.718  0.6679 -0.0430  0.2371
12875TIP3    H160040   3.822   3.933   3.784  0.4695 -0.7532  0.3971
12875TIP3    H260041   3.701   4.014   3.743  2.2076  1.3992 -0.6972
12876TIP3   OH260042   4.060   3.121   5.959  0.0116  0.1831 -0.0518
12876TIP3    H160043   4.032   3.030   5.963  0.3887  0.0796  0.2341
12876TIP3    H260044   3.978   3.170   5.950 -0.2339 -0.1471  0.3238
12877TIP3   OH260045   3.404   6.468  15.546 -0.3821  0.0933  0.1041
12877TIP3    H160046   3.444   6.555  15.540  0.1705 -0.1539  0.1483
12877TIP3    H260047   3.476   6.410  15.570 -1.0143 -0.1623  1.4437
12878TIP3   OH260048   4.505   0.303   5.313  0.2129 -0.3063  0.4131
12878TIP3    H160049   4.411   0.284   5.319  0.3699 -0.8769  1.0938
12878TIP3    H260050   4.548   0.226   5.349  0.9543 -0.0883  0.0155
12879TIP3   OH260051   5.601   4.523  16.835  0.0483  0.1582 -0.1179
12879TIP3    H160052   5.648   4.445  16.807 -0.3377  0.6460 -2.2932
12879TIP3    H260053   5.537   4.491  16.899  0.0384 -1.2749 -0.8242
12880TIP3   OH260054   2.469   5.935  11.354 -0.3233  0.3992  0.2437
12880TIP3    H160055   2.412   6.012  11.347 -1.1555 -0.3417 -3.3333
12880TIP3    H260056   2.408   5.861  11.359  0.4408 -0.1694  1.5834
12881TIP3   OH260057   1.397   6.148  11.761  0.0386 -0.3540  0.0843
12881TIP3    H160058   1.403   6.143  11.665 -1.8144 -0.7317 -0.0518
12881TIP3    H260059   1.440   6.069  11.792  0.4175 -0.3636 -0.4493
12882TIP3   OH260060   5.812   1.415   2.115 -0.2581  0.7633  0.1313
12882TIP3    H160061   5.846   1.342   2.062 -1.9672  0.0024 -0.0043
12882TIP3    H260062   5.799   1.486   2.052  0.1487  0.7359  0.0124
12883TIP3   OH260063   4.926   1.361  14.464  0.5783 -0.0572 -0.1787
12883TIP3    H160064   4.940   1.315  14.547  1.0364 -1.3006 -0.9143
12883TIP3    H260065   4.845   1.410  14.476  0.1909 -0.9069  0.7098
12884TIP3   OH260066   2.482   3.679  14.829 -0.4935 -0.0739 -0.2127
12884TIP3    H160067   2.390   3.660  14.812 -0.0542 -0.3231 -2.6819
12884TIP3    H260068   2.530   3.608  14.786  0.8718  0.9769 -0.5058
12885TIP3   OH260069   5.735   1.228  16.082 -0.5020 -0.0795 -0.5618
12885TIP3    H160070   5.728   1.271  15.997  0.0968 -0.8862 -1.0410
12885TIP3    H260071   5.700   1.291  16.144 -2.0987  0.0581 -1.5486
12886TIP3   OH260072   1.572   5.160   4.551  0.2675 -0.1792 -0.1476
12886TIP3    H160073   1.481   5.181   4.571  0.1341 -0.0561 -0.8654
12886TIP3    H260074   1.604   5.115   4.629 -0.7812 -1.3943 -0.3935
12887TIP3   OH260075   3.849   1.044   3.647  0.0515 -0.6462 -0.1236
12887TIP3    H160076   3.878   1.002   3.566  0.4224 -0.4892 -0.0740
12887TIP3    H260077   3.922   1.033   3.707 -0.5645 -1.5518  0.4836
12888TIP3   OH260078   2.769   1.778  15.652 -0.4695  0.0857  0.1317
12888TIP3    H160079   2.790   1.822  15.735  0.8695 -2.5115  1.2881
12888TIP3    H260080   2.853   1.773  15.606 -1.0429  0.7116 -1.0533
12889TIP3   OH260081   4.878   1.574   0.186  0.2109 -0.6363 -0.0144
12889TIP3    H160082   4.920   1.549   0.104 -0.7634 -0.9450 -0.4338
12889TIP3    H260083   4.785   1.562   0.170  0.0361 -1.3339  1.3474
12890TIP3   OH260084   4.179   4.066  16.434  0.1132 -0.5151  0.3915
12890TIP3    H160085   4.208   3.996  16.377 -0.9793 -0.6630 -0.0100
12890TIP3    H260086   4.091   4.041  16.462 -0.8302  1.2606 -0.7759
12891TIP3   OH260087   6.512   4.880   6.076 -0.6353  0.2063 -0.2393
12891TIP3    H160088   6.525   4.859   6.169 -0.3230 -1.5309 -0.6348
12891TIP3    H260089   6.501   4.794   6.034 -0.1799  0.9324 -1.9003
12892TIP3   OH260090   5.149   1.473  14.733  0.0650 -0.1935  0.3288
12892TIP3    H160091   5.100   1.532  14.790 -0.2416 -1.1193  1.0291
12892TIP3    H260092   5.224   1.445  14.786  1.8164  1.7627 -0.9574
12893TIP3   OH260093   5.574   4.796   3.529  0.0387 -0.3131 -0.5572
12893TIP3    H160094   5.612   4.726   3.582  0.0003 -0.1239 -0.2739
12893TIP3    H260095   5.642   4.817   3.465  1.2186  1.3035  1.0968
12894TIP3   OH260096   5.289   2.296  12.772 -0.4827 -0.5274  0.1680
12894TIP3    H160097   5.331   2.218  12.735 -0.6291 -0.8393  0.6511
12894TIP3    H260098   5.353   2.366  12.757 -0.1421 -0.8331  0.1610
12895TIP3   OH260099   3.446   5.474   1.675  0.4358  0.1184  0.1278
12895TIP3    H160100   3.410   5.402   1.624 -0.5235 -0.0141  0.9517
12895TIP3    H260101   3.514   5.433   1.729  0.1326 -0.1205  0.3385
12896TIP3   OH260102   5.026   0.249   0.417  0.0897 -0.2702  0.3405
12896TIP3    H160103   5.118   0.270   0.397 -0.4344  2.0996  0.0842
12896TIP3    H260104   5.015   0.159   0.387  1.7297  0.1543 -1.8327
12897TIP3   OH260105   6.579   3.277  15.182  0.0817 -0.5776 -0.5491
12897TIP3    H160106   6.517   3.277  15.255  1.5203  0.8216  0.7326
12897TIP3    H260107   6.550   3.204  15.126 -2.2915 -0.4011  0.3253
12898TIP3   OH260108   5.930   1.634   5.936 -0.4942  0.1702  0.3398
12898TIP3    H160109   5.992   1.702   5.962  1.7710 -1.2657 -0.9423
12898TIP3    H260110   5.845   1.679   5.931  0.9613  3.0297 -0.9709
12899TIP3   OH260111   3.279   0.289  11.255 -0.3086  0.0667  0.4053
12899TIP3    H160112   3.258   0.311  11.164 -1.1525 -1.0669  0.3045
12899TIP3    H260113   3.361   0.334  11.273  1.0391 -1.4472 -1.6139
12900TIP3   OH260114   3.981   2.481   3.427 -0.5759 -0.4499 -0.2211
12900TIP3    H160115   3.896   2.508   3.462 -0.7081 -0.9956 -0.1121
12900TIP3    H260116   3.982   2.514   3.338 -0.1867  1.0616  0.3215
12901TIP3   OH260117   2.240   0.694  15.531 -0.3573 -0.0669  0.3281
12901TIP3    H160118   2.310   0.716  15.592  0.7127 -0.2184 -0.8119
12901TIP3    H260119   2.271   0.616  15.485 -1.6034 -0.5811  0.3087
12902TIP3   OH260120   1.075   6.686  11.787  0.3221 -0.7080  0.1037
12902TIP3    H160121   1.025   6.618  11.741  0.3017 -1.0706  0.6593
12902TIP3    H260122   1.011   6.753  11.808  0.4243 -0.2822 -0.8577
12903TIP3   OH260123   5.503   0.343   4.482  0.5818  0.1914  0.2214
12903TIP3    H160124   5.481   0.253   4.506 -0.4736  0.5778  0.7540
12903TIP3    H260125   5.441   0.397   4.531 -0.1557  1.1202 -1.6226
12904TIP3   OH260126   5.947   5.623  14.065 -0.4159 -0.0983 -0.6719
12904TIP3    H160127   6.034   5.659  14.078 -1.3258  2.5136 -1.1057
12904TIP3    H260128   5.914   5.605  14.153  0.5071 -1.0723 -0.5068
12905TIP3   OH260129   6.314   3.540   1.944  0.2051 -0.3186  0.2642
12905TIP3    H160130   6.361   3.619   1.971  0.7285 -0.4168 -0.3151
12905TIP3    H260131   6.224   3.568   1.933  0.1583 -0.0799  1.2241
12906TIP3   OH260132   0.468   5.465  11.297  0.6768  0.5569 -1.0451
12906TIP3    H160133   0.440   5.386  11.343 -2.8022  1.1237 -1.9448
12906TIP3    H260134   0.495   5.434  11.211  0.1207  0.2474 -1.1142
12907TIP3   OH260135   5.489   3.971  17.381 -0.0669  0.3368 -0.1503
12907TIP3    H160136   5.580   4.000  17.377 -0.4249  1.3399 -1.6865
12907TIP3    H260137   5.491   3.880  17.350  0.0579  1.3402 -3.4301
12908TIP3   OH260138   4.788   4.569   3.338  0.3376  0.2755  0.2560
12908TIP3    H160139   4.816   4.648   3.384  1.3399  0.1645 -0.1311
12908TIP3    H260140   4.867   4.513   3.336  0.6680  0.6845 -2.4505
12909TIP3   OH260141   5.316   5.040  13.987 -0.3583 -0.3603  0.1709
12909TIP3    H160142   5.224   5.013  13.990 -0.7917  1.0233 -0.0246
12909TIP3    H260143   5.313   5.135  13.976  1.0801 -0.5172 -2.1630
12910TIP3   OH260144   6.613   6.047   6.664 -0.3693  0.0485  0.4732
12910TIP3    H160145   6.708   6.047   6.648 -0.1619 -1.9502  1.2890
12910TIP3    H260146   6.602   5.987   6.738 -2.2842  0.2494  0.3941
12911TIP3   OH260147   2.312   1.123   2.223 -1.0856 -0.6961  0.1065
12911TIP3    H160148   2.372   1.050   2.207 -1.1788 -0.9999  1.0519
12911TIP3    H260149   2.327   1.183   2.150 -0.8633 -1.5635 -0.5805
12912TIP3   OH260150   0.503   3.131   5.039 -0.0092  0.0289 -0.1617
12912TIP3    H160151   0.486   3.107   4.948  0.0116  1.1795 -0.4856
12912TIP3    H260152   0.417   3.132   5.080 -0.3483  1.9919 -0.8219
12913TIP3   OH260153   1.066   5.513  11.658  0.1962 -0.1037 -0.4119
12913TIP3    H160154   1.014   5.575  11.708 -0.9870  0.3536 -2.1021
12913TIP3    H260155   1.002   5.450  11.625  0.7979  0.0263 -1.9115
12914TIP3   OH260156   0.967   2.524   4.237  0.2222  0.3045  0.1339
12914TIP3    H160157   1.027   2.471   4.184 -1.5809 -1.1736 -0.5440
12914TIP3    H260158   0.883   2.516   4.193 -0.4299  2.6537  0.8185
12915TIP3   OH260159   4.702   4.300   1.967  0.0763 -0.4153 -0.5490
12915TIP3    H160160   4.656   4.355   1.904 -1.7339 -1.5558 -0.3232
12915TIP3    H260161   4.784   4.276   1.924  0.6671  1.9588 -0.8530
12916TIP3   OH260162   4.547   0.030  13.268 -0.1821 -0.3012  0.1375
12916TIP3    H160163   4.572   0.008  13.358  0.8583 -0.3825 -0.1573
12916TIP3    H260164   4.493   0.109  13.276  0.6493  0.2194  0.7725
12917TIP3   OH260165   1.725   4.137  15.546  0.1699 -0.4499 -0.0845
12917TIP3    H160166   1.738   4.225  15.581 -0.5208  0.8110 -2.7657
12917TIP3    H260167   1.636   4.114  15.573  0.2627 -0.2379  0.4217
12918TIP3   OH260168   2.023   0.087   0.024  0.4067 -0.1649 -0.5300
12918TIP3    H160169   2.012   0.071  -0.070  3.0791 -1.3138 -0.7669
12918TIP3    H260170   2.109   0.048   0.044 -0.1060  0.0063  2.4068
12919TIP3   OH260171   5.985   2.870   4.069 -0.1367  0.3873 -0.5670
12919TIP3    H160172   5.934   2.815   4.009  1.4311  0.5437 -2.1074
12919TIP3    H260173   6.047   2.809   4.109  0.2351  0.6633 -0.7216
12920TIP3   OH260174   2.358   0.500   3.005 -0.0327 -0.7082  0.3093
12920TIP3    H160175   2.272   0.505   3.048 -0.0121 -0.6562  0.3449
12920TIP3    H260176   2.340   0.521   2.914 -0.2269 -1.7257  0.0970
12921TIP3   OH260177   2.688   0.569   5.125  0.8379  0.1429  0.8103
12921TIP3    H160178   2.714   0.643   5.179 -1.0093  0.0715  1.9112
12921TIP3    H260179   2.601   0.593   5.092  0.6936 -1.0512  0.2494
12922TIP3   OH260180   0.919   4.521   4.213  0.1458 -0.2160  0.1904
12922TIP3    H160181   0.889   4.462   4.281  1.6555 -1.1516  0.1065
12922TIP3    H260182   1.002   4.556   4.247  1.9880 -2.2310 -1.8876
12923TIP3   OH260183   0.607   4.266  17.560 -0.1556 -0.4142  0.1980
12923TIP3    H160184   0.648   4.189  17.521  1.8441  1.0107 -0.6963
12923TIP3    H260185   0.655   4.279  17.642 -0.1403  0.1659  0.0960
12924TIP3   OH260186   2.548   4.446   2.030 -0.5227 -0.1232 -0.2728
12924TIP3    H160187   2.530   4.362   1.989  0.7939 -0.8756  0.5962
12924TIP3    H260188   2.578   4.424   2.119 -0.6593  1.2890  0.1548
12925TIP3   OH260189   1.396   5.539  12.817 -0.2320  0.2374  0.0504
12925TIP3    H160190   1.428   5.565  12.903 -0.5621  0.9480 -0.0294
12925TIP3    H260191   1.465   5.484  12.781 -1.1461 -2.1520  1.7399
12926TIP3   OH260192   0.323   3.596   0.283 -0.6375  0.6553 -0.1916
12926TIP3    H160193   0.418   3.592   0.272 -0.0629  0.9675  3.4585
12926TIP3    H260194   0.295   3.505   0.283 -0.5423  0.5758 -2.0167
12927TIP3   OH260195   4.370   5.092  12.019 -0.2495  0.0894  0.2167
12927TIP3    H160196   4.310   5.069  11.948 -1.8292 -1.2125  1.8944
12927TIP3    H260197   4.401   5.007  12.052  1.3427  0.7024  0.3870
12928TIP3   OH260198   5.030   0.663  10.439  0.0517  0.6206 -0.2228
12928TIP3    H160199   5.054   0.741  10.489  0.8830  0.8265 -0.9261
12928TIP3    H260200   4.962   0.621  10.492 -0.0448  1.5485  0.4086
12929TIP3   OH260201   3.065   6.617   2.287 -0.2743  0.4400  0.3217
12929TIP3    H160202   3.030   6.615   2.376  0.4660  0.6827  0.6278
12929TIP3    H260203   2.987   6.618   2.231 -0.8065 -2.2590  0.8707
12930TIP3   OH260204   1.025   3.912  12.701  0.0583  0.7442 -0.3964
12930TIP3    H160205   1.049   4.001  12.728  1.1570  0.5641 -0.7262
12930TIP3    H260206   1.063   3.902  12.614  0.1479 -0.1216 -0.2696
12931TIP3   OH260207   4.410   1.446   2.323  0.4142  0.0293 -0.1119
12931TIP3    H160208   4.416   1.365   2.272 -2.2421 -0.2606 -0.0612
12931TIP3    H260209   4.338   1.432   2.384 -3.3075  3.8720 -3.0089
12932TIP3   OH260210   2.850   5.929  15.930 -0.2606  0.5376  0.1187
12932TIP3    H160211   2.854   5.992  15.859 -1.5250  0.6348  0.1106
12932TIP3    H260212   2.897   5.970  16.003  2.4803 -0.2252 -1.0869
12933TIP3   OH260213   4.003   1.016   0.091  0.1745 -0.2700 -0.2861
12933TIP3    H160214   4.090   1.056   0.094  1.1200 -1.8751 -2.9482
12933TIP3    H260215   4.006   0.947   0.157  0.7487 -0.0120 -0.0398
12934TIP3   OH260216   0.760   4.289   0.201 -0.4004  0.1755 -0.3887
12934TIP3    H160217   0.745   4.194   0.194 -0.7959  0.2410 -0.4672
12934TIP3    H260218   0.847   4.302   0.164  1.1721 -0.6136  2.6867
12935TIP3   OH260219   0.949   2.406  15.245 -0.2006 -0.0828  0.3961
12935TIP3    H160220   0.966   2.469  15.175  2.3959  0.8880  1.7717
12935TIP3    H260221   0.855   2.410  15.259 -0.5280  1.0641 -1.7571
12936TIP3   OH260222   4.507   4.602   2.674  0.5617  0.5526  0.4721
12936TIP3    H160223   4.484   4.605   2.581 -1.1252  1.3957  0.8883
12936TIP3    H260224   4.517   4.508   2.693 -2.3485  0.0922  0.1486
12937TIP3   OH260225   5.389   5.969   1.467 -0.3882 -0.0495  0.1072
12937TIP3    H160226   5.329   6.033   1.430  0.5530 -0.7207 -2.8118
12937TIP3    H260227   5.471   6.017   1.478 -0.5458  0.0343  0.9617
12938TIP3   OH260228   5.021   4.537  15.001  0.0999  0.2397 -0.6692
12938TIP3    H160229   5.027   4.451  15.042 -3.0088 -0.1172 -0.6836
12938TIP3    H260230   5.064   4.527  14.917  1.4978 -0.6932  0.1195
12939TIP3   OH260231   3.415   6.109   5.467  0.0866 -0.1022 -0.3861
12939TIP3    H160232   3.350   6.066   5.523  0.3915  0.1331  0.1589
12939TIP3    H260233   3.484   6.136   5.528  0.6006 -0.1739 -0.9316
12940TIP3   OH260234   0.572   0.368  17.212  0.2676 -0.1077 -0.2086
12940TIP3    H160235   0.509   0.375  17.284  1.2058  0.0130  0.6208
12940TIP3    H260236   0.533   0.419  17.141 -1.0792 -0.9238 -0.1056
12941TIP3   OH260237   5.100   4.693  17.290  0.0957 -0.5625  0.4802
12941TIP3    H160238   5.192   4.717  17.291 -0.4654  1.8856  0.4805
12941TIP3    H260239   5.086   4.646  17.373  1.3444 -1.0912  0.4032
12942TIP3   OH260240   2.829   1.409  12.444 -0.3990  0.4154 -0.3175
12942TIP3    H160241   2.822   1.401  12.539 -1.2226 -0.6047 -0.4472
12942TIP3    H260242   2.782   1.490  12.424 -2.1219 -0.4519 -0.0226
12943TIP3   OH260243   1.501   4.980  16.292  0.7985 -0.0340  0.4280
12943TIP3    H160244   1.423   4.994  16.238  1.1085 -0.1774 -0.0650
12943TIP3    H260245   1.541   5.067  16.297  1.2042 -0.1735 -0.2611
12944TIP3   OH260246   4.008   2.287   3.883  0.0400  0.4099 -0.2891
12944TIP3    H160247   4.030   2.320   3.796  1.6683 -0.1057 -0.1036
12944TIP3    H260248   4.062   2.209   3.894 -0.5732  0.1366  0.9601
12945TIP3   OH260249   5.242   5.299  14.679 -0.3465 -0.0323 -0.5201
12945TIP3    H160250   5.228   5.394  14.683 -0.9329 -0.0191 -2.3547
12945TIP3    H260251   5.209   5.267  14.763  1.1967  1.5172  0.7588
12946TIP3   OH260252   2.385   5.428   0.654 -0.1439  0.2795 -0.3098
12946TIP3    H160253   2.300   5.417   0.696 -0.0568  1.1908  0.1129
12946TIP3    H260254   2.447   5.389   0.715 -0.1785  0.2885 -0.2683
12947TIP3   OH260255   3.884   0.432  12.373 -0.6975  0.6754 -0.8624
12947TIP3    H160256   3.894   0.510  12.318  1.0273  0.6889 -0.5962
12947TIP3    H260257   3.973   0.410  12.399 -1.4206  0.7580  2.0448
12948TIP3   OH260258   2.035   5.079   0.354 -0.3422  0.1942  0.2576
12948TIP3    H160259   2.096   5.148   0.327 -0.6024  0.5381  0.5382
12948TIP3    H260260   1.990   5.054   0.273  0.3830 -0.2804 -0.0088
12949TIP3   OH260261   5.488   0.014  15.811  0.1101 -0.2454  0.3601
12949TIP3    H160262   5.575   0.049  15.788  1.5362 -1.2184  3.6368
12949TIP3    H260263   5.492  -0.078  15.786 -0.4083 -0.0420 -0.4840
12950TIP3   OH260264   6.494   4.259  13.428  0.3838  0.1077 -0.8458
12950TIP3    H160265   6.519   4.350  13.441  0.3002 -0.0082  0.1952
12950TIP3    H260266   6.548   4.210  13.490 -0.1381 -0.4748 -0.8430
12951TIP3   OH260267   4.962   3.767  13.595  0.5980 -0.7607 -0.5439
12951TIP3    H160268   4.903   3.777  13.670  0.8243 -0.9229 -0.3450
12951TIP3    H260269   4.905   3.736  13.525  0.4432 -0.9180 -0.3509
12952TIP3   OH260270   5.225   3.395   4.085  0.1880  0.0929 -0.4565
12952TIP3    H160271   5.171   3.447   4.145 -1.1815 -0.9314 -0.7483
12952TIP3    H260272   5.163   3.359   4.022  1.1511 -1.4944 -0.5550
12953TIP3   OH260273   2.893   3.235  14.264 -0.0821 -0.1380 -0.4869
12953TIP3    H160274   2.934   3.189  14.191 -0.2955 -0.5829 -0.3322
12953TIP3    H260275   2.802   3.206  14.263 -0.0809 -0.1677 -0.0324
12954TIP3   OH260276   2.170   1.881  15.745  0.0248 -0.1831 -0.0150
12954TIP3    H160277   2.188   1.921  15.660  2.0352 -0.7857  0.0881
12954TIP3    H260278   2.115   1.805  15.724  0.0232  0.0022 -0.7204
12955TIP3   OH260279   3.126   0.607  12.609 -0.5528  0.3916 -0.0766
12955TIP3    H160280   3.216   0.603  12.575 -0.5816 -1.1885 -0.0627
12955TIP3    H260281   3.085   0.526  12.577 -2.4957  1.8028 -1.4511
12956TIP3   OH260282   5.071   0.679  15.911 -0.0264  0.3826 -0.1165
12956TIP3    H160283   4.992   0.700  15.961 -0.7544  1.1347 -1.5231
12956TIP3    H260284   5.122   0.760  15.912  1.6919 -0.5994  2.3454
12957TIP3   OH260285   3.515   4.132  11.364  0.1005  0.1885  0.4934
12957TIP3    H160286   3.545   4.219  11.339 -1.5405  1.0198  1.3061
12957TIP3    H260287   3.507   4.135  11.459  0.8850 -1.1486  0.6273
12958TIP3   OH260288   5.029   5.581  13.759 -0.0496 -0.4435  0.0635
12958TIP3    H160289   4.998   5.621  13.840  0.0898  2.6990 -1.3010
12958TIP3    H260290   4.951   5.543  13.719 -0.8785  1.3460 -0.0921
12959TIP3   OH260291   6.211   2.612  11.531  0.2171 -0.7205  0.0401
12959TIP3    H160292   6.251   2.610  11.445  2.2720 -0.3557  0.9344
12959TIP3    H260293   6.263   2.552  11.584  0.7657  1.1074  1.7041
12960TIP3   OH260294   5.814   1.217  14.363 -0.2019 -0.4373 -0.3624
12960TIP3    H160295   5.817   1.249  14.453 -0.4265 -2.7809  0.5302
12960TIP3    H260296   5.840   1.125  14.369  0.6396 -0.4346 -2.8261
12961TIP3   OH260297   3.882   5.312   3.749 -0.4673 -0.3576  0.2343
12961TIP3    H160298   3.893   5.261   3.829  2.3640 -0.3517 -0.0527
12961TIP3    H260299   3.845   5.250   3.686  1.0474 -1.5444  0.4553
12962TIP3   OH260300   4.494   1.991   5.012 -0.4109  0.6721  0.1588
12962TIP3    H160301   4.545   1.995   5.093 -0.1774 -0.0955  0.0588
12962TIP3    H260302   4.433   1.919   5.026  0.2878 -0.1067 -0.7104
12963TIP3   OH260303   1.464   6.587   1.532 -0.7466 -0.0545 -0.1234
12963TIP3    H160304   1.513   6.559   1.609 -2.6380  0.4456  1.3469
12963TIP3    H260305   1.448   6.680   1.547  1.5789  0.9106 -2.7475
12964TIP3   OH260306   5.112   3.038   2.980  0.7988 -0.0187  0.3120
12964TIP3    H160307   5.054   3.086   2.921  0.7280 -0.4753 -0.0047
12964TIP3    H260308   5.163   3.105   3.024 -0.3526  0.4265  1.0097
12965TIP3   OH260309   5.828   6.420  17.028  0.0423 -0.4190  0.2973
12965TIP3    H160310   5.830   6.437  17.122  1.9343 -0.6465  0.3410
12965TIP3    H260311   5.802   6.504  16.989 -2.6939 -0.8198  1.0596
12966TIP3   OH260312   0.617   5.509   2.339  0.6151 -0.1590 -0.4612
12966TIP3    H160313   0.541   5.451   2.350  0.5973  0.0174  0.5035
12966TIP3    H260314   0.692   5.454   2.363  0.7272 -0.1402 -0.7647
12967TIP3   OH260315   3.313   2.536  16.026 -0.2464 -0.2920 -0.1462
12967TIP3    H160316   3.257   2.614  16.024 -1.1735 -0.9457 -0.5581
12967TIP3    H260317   3.395   2.566  16.065  0.5418  1.6260 -2.9604
12968TIP3   OH260318   1.660   6.260  16.622  0.7331  0.1995  0.0617
12968TIP3    H160319   1.614   6.339  16.649 -0.3593 -0.6407  0.7704
12968TIP3    H260320   1.715   6.237  16.697  1.1423  0.3538 -0.1896
12969TIP3   OH260321   6.359   5.692   2.746  0.1579  0.1465  0.5313
12969TIP3    H160322   6.354   5.787   2.758  1.4532  0.2186  0.6379
12969TIP3    H260323   6.420   5.662   2.814  0.2825 -0.6687  0.0741
12970TIP3   OH260324   3.852   2.553  14.496  0.0527 -0.0903 -0.5522
12970TIP3    H160325   3.805   2.604  14.562  0.4407  0.7876 -0.9350
12970TIP3    H260326   3.923   2.511  14.544  0.8071  1.1662 -0.5137
12971TIP3   OH260327   4.267   4.563  12.934 -0.3883 -0.2365 -0.2809
12971TIP3    H160328   4.300   4.577  13.023 -0.6311 -0.3746 -0.1680
12971TIP3    H260329   4.343   4.577  12.878  0.1212 -1.5543  0.0412
12972TIP3   OH260330   4.402   4.249  11.471 -0.4016  0.3581  0.2580
12972TIP3    H160331   4.367   4.322  11.521 -1.5694 -0.5231  0.7841
12972TIP3    H260332   4.365   4.258  11.384  0.7824  1.2953 -0.1762
12973TIP3   OH260333   4.749   6.189  12.698 -0.4564 -0.4854  0.0226
12973TIP3    H160334   4.690   6.262  12.716  0.6179  0.6848 -1.0129
12973TIP3    H260335   4.786   6.166  12.783  0.0478  0.9535  0.2069
12974TIP3   OH260336   2.023   0.579   5.680 -0.0377 -0.0480 -0.4871
12974TIP3    H160337   2.025   0.510   5.614 -1.3857  0.0853 -0.6946
12974TIP3    H260338   2.008   0.532   5.762  2.9733 -0.3509 -0.0076
12975TIP3   OH260339   5.299   4.693  15.125 -0.1870  0.8591  0.0454
12975TIP3    H160340   5.272   4.784  15.115 -0.1680  0.6904 -2.1734
12975TIP3    H260341   5.233   4.643  15.077 -1.2843 -0.5407  2.8283
12976TIP3   OH260342   0.639   4.137  13.591  0.1171  0.3344 -0.2576
12976TIP3    H160343   0.631   4.085  13.671 -0.5703  1.3249  0.3298
12976TIP3    H260344   0.626   4.074  13.520  2.0871 -0.8261  0.3242
12977TIP3   OH260345   5.413   2.269   2.494  0.5405 -0.1921  0.5111
12977TIP3    H160346   5.495   2.317   2.494  0.7296 -0.5049  1.1901
12977TIP3    H260347   5.433   2.186   2.450  0.5240 -0.1534  0.4319
12978TIP3   OH260348   6.552   5.692   2.965 -0.1433  0.2115 -0.4605
12978TIP3    H160349   6.631   5.639   2.957  1.1989  2.2659 -2.1789
12978TIP3    H260350   6.585   5.780   2.987 -2.0392  0.8892 -0.1813
12979TIP3   OH260351   6.158   5.902  12.895 -0.3097  0.7395  0.0118
12979TIP3    H160352   6.230   5.950  12.855 -1.0406  2.0136  0.1958
12979TIP3    H260353   6.080   5.950  12.870 -1.0102 -0.0189  0.6925
12980TIP3   OH260354   0.806   5.635  12.050 -0.2130  0.1581  0.3019
12980TIP3    H160355   0.901   5.646  12.047 -0.2760  0.5689 -0.2989
12980TIP3    H260356   0.774   5.684  11.974 -0.8473 -0.5909  0.0827
12981TIP3   OH260357   5.080   6.448  14.300 -0.3289 -0.4088 -0.3547
12981TIP3    H160358   5.031   6.413  14.374 -0.2758 -1.1113 -0.6468
12981TIP3    H260359   5.161   6.482  14.338 -0.4569 -0.4462 -0.0478
12982TIP3   OH260360   4.920   3.756  12.590 -0.5633  0.1852  0.2969
12982TIP3    H160361   4.847   3.696  12.572 -0.1752 -0.3698  0.5345
12982TIP3    H260362   4.993   3.721  12.538 -0.1655  0.0960  0.9051
12983TIP3   OH260363   1.253   3.222   0.726  0.3511 -0.3183 -0.0394
12983TIP3    H160364   1.293   3.135   0.733  0.6726 -0.2137 -0.5216
12983TIP3    H260365   1.324   3.278   0.693  0.6925  0.5211  1.9891
12984TIP3   OH260366   0.755   4.547  17.121  0.3558  0.1688  0.2995
12984TIP3    H160367   0.721   4.467  17.161  1.2884  0.5952  2.0596
12984TIP3    H260368   0.678   4.595  17.092 -0.2050 -1.4634 -1.0343
12985TIP3   OH260369   1.570   5.339   1.059  0.3523  1.0584  0.2132
12985TIP3    H160370   1.506   5.382   1.003 -0.7586 -2.8441 -1.8725
12985TIP3    H260371   1.519   5.302   1.130  0.2326 -1.4565 -1.0702
12986TIP3   OH260372   0.088   5.008   1.019 -0.5112  0.1470 -0.2169
12986TIP3    H160373   0.029   5.046   0.954 -0.4517 -0.1453 -0.4442
12986TIP3    H260374   0.048   4.924   1.042 -0.9288  0.5744  0.6902
12987TIP3   OH260375   1.021   4.834   5.472 -0.2578  0.5035  0.1937
12987TIP3    H160376   0.990   4.903   5.532  1.2870  0.9869  0.4723
12987TIP3    H260377   1.018   4.875   5.386 -0.2850  0.5895  0.2346
12988TIP3   OH260378   0.033   4.603  15.668  0.1503  0.9283 -0.0780
12988TIP3    H160379   0.059   4.688  15.703  0.1992  0.8103  0.1701
12988TIP3    H260380   0.019   4.548  15.745 -1.2137  1.0891 -0.1923
12989TIP3   OH260381   3.099   0.952  12.695 -0.1393  0.1488 -0.0255
12989TIP3    H160382   3.056   0.965  12.610 -1.4951 -1.8353  0.2873
12989TIP3    H260383   3.083   1.033  12.743 -0.8491  0.6472 -1.0596
12990TIP3   OH260384   1.359   4.539   5.583  0.3427  0.0698 -0.1319
12990TIP3    H160385   1.323   4.498   5.505 -0.9816  0.2426  0.3656
12990TIP3    H260386   1.430   4.480   5.610  1.9820  0.8732 -2.3635
12991TIP3   OH260387   3.397   6.693  14.480 -0.0255 -0.3943 -0.3508
12991TIP3    H160388   3.489   6.694  14.454  0.3369  1.0303  0.8212
12991TIP3    H260389   3.349   6.728  14.404  0.6462  0.7605 -0.2686
12992TIP3   OH260390   5.408   6.249   2.083 -0.0902 -0.6293 -0.2585
12992TIP3    H160391   5.459   6.327   2.101 -1.6093  0.5493 -0.8325
12992TIP3    H260392   5.427   6.229   1.991 -1.2561  0.3238 -0.7359
12993TIP3   OH260393   6.211   0.762   1.305 -0.0066  0.3324  0.0247
12993TIP3    H160394   6.221   0.682   1.254  1.0386 -0.2516  1.1236
12993TIP3    H260395   6.130   0.749   1.354  0.3348 -0.1940  0.4530
12994TIP3   OH260396   2.969   3.126   4.118  0.0290  0.0223 -0.2840
12994TIP3    H160397   2.976   3.136   4.213 -1.5350 -1.5003  0.0344
12994TIP3    H260398   3.060   3.115   4.089  0.4671 -0.3572  1.1340
12995TIP3   OH260399   4.115   3.590  14.419 -0.0991 -0.0771  0.1181
12995TIP3    H160400   4.176   3.627  14.484 -0.5932  2.4163 -0.7405
12995TIP3    H260401   4.137   3.497  14.417  2.8351  0.4837  0.7628
12996TIP3   OH260402   4.243   3.996   3.379  0.0894 -0.0994 -0.1650
12996TIP3    H160403   4.150   4.011   3.395  0.3963  3.6620 -0.9640
12996TIP3    H260404   4.275   3.955   3.459 -1.5589  2.3388  1.8977
12997TIP3   OH260405   3.793   6.008  17.065  0.1618  0.0418 -0.1318
12997TIP3    H160406   3.725   5.976  17.123 -1.5922 -1.0122 -2.6172
12997TIP3    H260407   3.875   5.980  17.106 -1.0217 -1.2540  1.4519
12998TIP3   OH260408   4.623   1.316  14.936 -0.1279  0.3125  0.0895
12998TIP3    H160409   4.577   1.296  15.017 -2.5839 -0.1339 -1.3053
12998TIP3    H260410   4.642   1.409  14.941  1.4954 -0.0586  1.9364
12999TIP3   OH260411   6.318   0.099   5.725  0.3108  1.0979  0.6320
12999TIP3    H160412   6.254   0.047   5.676  1.2194  0.5648 -0.0215
12999TIP3    H260413   6.343   0.042   5.798  0.4140  1.0956  0.5951
13000TIP3   OH260414   0.974   2.801   2.709 -0.1258  0.3368  0.4400
13000TIP3    H160415   0.901   2.832   2.763 -0.6246 -0.7173  0.3950
13000TIP3    H260416   0.951   2.825   2.620  0.3975  1.5164  0.6117
13001TIP3   OH260417   5.350   1.141  15.244  0.1261  0.8149  0.2191
13001TIP3    H160418   5.291   1.202  15.201  1.1707  1.3955 -0.4105
13001TIP3    H260419   5.359   1.068  15.182  1.8529  1.7804 -0.7226
13002TIP3   OH260420   0.510   6.403  16.159  0.2219  0.2374  0.1928
13002TIP3    H160421   0.428   6.391  16.206  0.0629 -0.2111 -0.1967
13002TIP3    H260422   0.560   6.324  16.176  0.8222  0.7534  0.9046
13003TIP3   OH260423   5.708   4.365   2.375 -0.2691  0.0197  0.5345
13003TIP3    H160424   5.749   4.358   2.289 -1.7616 -0.9509 -0.1445
13003TIP3    H260425   5.730   4.453   2.406  1.5952 -0.1716 -0.1223
13004TIP3   OH260426   0.696   2.133   3.488 -0.0430 -0.0001  0.0386
13004TIP3    H160427   0.789   2.132   3.463 -0.3160  0.8949 -1.0689
13004TIP3    H260428   0.696   2.106   3.580  1.5711  2.3266  0.8243
13005TIP3   OH260429   6.373   1.748  12.834  0.6517  0.3385 -0.1463
13005TIP3    H160430   6.354   1.686  12.905 -0.3642  0.0796 -0.6307
13005TIP3    H260431   6.383   1.694  12.756  0.5013  0.7280 -0.4411
13006TIP3   OH260432   0.625   4.633   1.285  0.2203  0.1171 -0.0519
13006TIP3    H160433   0.592   4.588   1.363 -1.2397 -1.4525 -1.4931
13006TIP3    H260434   0.558   4.620   1.219  0.7312  2.6631 -1.2194
13007TIP3   OH260435   6.554   0.353   3.378 -0.5578 -0.1918  0.0045
13007TIP3    H160436   6.530   0.365   3.286 -0.0518  0.8802  0.0037
13007TIP3    H260437   6.504   0.276   3.406 -3.5880  1.5620 -0.1582
13008TIP3   OH260438   5.158   5.748  12.038  0.1210  0.9181 -0.0385
13008TIP3    H160439   5.065   5.767  12.039 -0.1740 -0.4148  1.6895
13008TIP3    H260440   5.171   5.698  11.957 -1.1005 -0.7326  0.7281
13009TIP3   OH260441   5.754   4.043  17.370 -0.0631  0.5088  0.4338
13009TIP3    H160442   5.777   4.023  17.280 -2.1996  0.7225 -0.2055
13009TIP3    H260443   5.805   4.121  17.391  0.7073  0.2605 -0.4540
13010TIP3   OH260444   0.893   4.339   3.265 -0.1733  0.0665  0.1226
13010TIP3    H160445   0.928   4.428   3.267 -1.5357  0.6335  0.3982
13010TIP3    H260446   0.953   4.288   3.320  0.6412  0.8068 -0.0674
13011TIP3   OH260447   6.241   5.387   3.768 -0.3974 -0.0950 -0.0862
13011TIP3    H160448   6.257   5.480   3.781  3.0368 -0.4767 -0.6138
13011TIP3    H260449   6.324   5.353   3.736 -2.1058 -3.0234 -1.8485
13012TIP3   OH260450   6.558   5.860  12.591 -0.0026 -0.0532 -0.0065
13012TIP3    H160451   6.469   5.836  12.616  1.0458 -1.5455  2.5845
13012TIP3    H260452   6.610   5.781  12.604  2.2168  1.5103  1.4428
13013TIP3   OH260453   5.615   3.750   0.931 -0.3668  0.6589 -0.2379
13013TIP3    H160454   5.671   3.705   0.994  0.5334 -0.1590 -1.5691
13013TIP3    H260455   5.544   3.786   0.984 -1.7511 -3.2130  0.8556
13014TIP3   OH260456   3.278   2.540   2.435  0.4391  0.2251  0.6000
13014TIP3    H160457   3.301   2.530   2.343  2.2505  0.6808  0.9716
13014TIP3    H260458   3.241   2.629   2.440 -0.4995 -0.1235  0.1859
13015TIP3   OH260459   2.595   3.896  11.390  0.0403  0.1176  0.5040
13015TIP3    H160460   2.617   3.931  11.476  1.4166 -1.4284  0.8286
13015TIP3    H260461   2.669   3.919  11.334 -0.4776  0.4174 -0.0668
13016TIP3   OH260462   1.205   0.496   0.981  0.2680 -0.2855  0.1726
13016TIP3    H160463   1.258   0.484   1.060 -1.3909 -0.1599  1.3431
13016TIP3    H260464   1.180   0.588   0.983  0.4299 -0.2226 -0.6486
13017TIP3   OH260465   4.425   5.176   0.846  0.0140  0.0001  0.7673
13017TIP3    H160466   4.381   5.229   0.913  0.6404  0.4999  0.7877
13017TIP3    H260467   4.371   5.188   0.768  0.1848  0.7234  0.7543
13018TIP3   OH260468   2.298   5.471  15.089  0.5310 -0.0316 -0.4976
13018TIP3    H160469   2.225   5.529  15.108 -0.4971 -0.9649 -1.4626
13018TIP3    H260470   2.372   5.530  15.074 -0.1776  0.9555 -0.2380
13019TIP3   OH260471   1.097   3.144  15.574 -0.1973  0.1767 -0.2477
13019TIP3    H160472   1.065   3.220  15.621 -0.9710 -0.4023  0.1944
13019TIP3    H260473   1.190   3.160  15.562 -0.6907  2.1952 -2.0542
13020TIP3   OH260474   0.904   4.413  12.589 -0.2840 -0.4581  0.1491
13020TIP3    H160475   0.895   4.453  12.676  0.9720  1.8926 -0.7327
13020TIP3    H260476   0.904   4.486  12.528 -0.0903 -1.9829 -1.7967
13021TIP3   OH260477   6.351   4.083   4.231  0.5821 -0.9183  0.6977
13021TIP3    H160478   6.315   4.045   4.151 -0.7816 -1.5582  1.5683
13021TIP3    H260479   6.275   4.111   4.281  1.3785 -0.8952  1.9523
13022TIP3   OH260480   0.347   0.200  17.060 -0.1047  0.4335 -0.4734
13022TIP3    H160481   0.353   0.209  17.155 -0.8031  0.0754 -0.3901
13022TIP3    H260482   0.253   0.194  17.042 -0.0496  1.5865 -1.2931
13023TIP3   OH260483   3.656   6.281   0.808 -1.0151 -0.1996 -0.3651
13023TIP3    H160484   3.566   6.273   0.840 -1.0401 -1.0036 -0.6126
13023TIP3    H260485   3.711   6.264   0.885 -1.0669  0.4756 -0.1717
13024TIP3   OH260486   2.460   0.941  14.661 -0.1640  0.4214 -0.3505
13024TIP3    H160487   2.427   0.880  14.594 -0.1440  1.7160 -1.5713
13024TIP3    H260488   2.548   0.963  14.631  0.0238  0.6618  0.3715
13025TIP3   OH260489   6.497   1.499   4.757 -0.1471 -0.0682 -1.3158
13025TIP3    H160490   6.408   1.466   4.744 -0.6748  1.4305 -1.6911
13025TIP3    H260491   6.536   1.439   4.821 -1.2850 -0.9759 -1.4409
13026TIP3   OH260492   4.330   0.765  15.303  1.0051  0.1329 -0.1814
13026TIP3    H160493   4.245   0.808  15.293  1.0581 -0.2128 -3.1967
13026TIP3    H260494   4.326   0.723  15.388 -1.1542  1.5689  0.5221
13027TIP3   OH260495   4.211   6.516  14.808 -0.2464 -0.6686 -0.8705
13027TIP3    H160496   4.230   6.583  14.742  0.4722  0.0101 -0.0028
13027TIP3    H260497   4.286   6.519  14.868 -1.3893 -0.4389  0.6307
13028TIP3   OH260498   1.447   6.219   0.024  0.5286  0.3847  0.0272
13028TIP3    H160499   1.469   6.133   0.059 -2.0578 -0.5628 -0.4467
13028TIP3    H260500   1.398   6.262   0.094 -0.6384  0.3314 -0.7431
13029TIP3   OH260501   4.796   5.243  14.468  0.0508  0.5183 -0.2320
13029TIP3    H160502   4.883   5.284  14.468  0.2701  0.0756  0.6736
13029TIP3    H260503   4.782   5.217  14.377  0.8323  0.6549 -0.4021
13030TIP3   OH260504   4.652   2.792   3.148  0.1333  0.2488 -0.9748
13030TIP3    H160505   4.614   2.706   3.133  0.8638 -0.0590 -1.1323
13030TIP3    H260506   4.599   2.852   3.096 -0.2025 -0.1479 -1.0902
13031TIP3   OH260507   4.927   0.429   4.176  0.0120 -0.5769  0.1442
13031TIP3    H160508   4.955   0.464   4.092  0.0299 -2.1125 -0.5177
13031TIP3    H260509   4.836   0.402   4.162  0.4761 -2.2541  0.1314
13032TIP3   OH260510   0.515   0.196  11.015 -0.4297  0.4122  0.0807
13032TIP3    H160511   0.523   0.160  10.927 -0.4915 -0.6788  0.5042
13032TIP3    H260512   0.606   0.213  11.042 -0.3067 -0.5241  0.3027
13033TIP3   OH260513   2.071   0.032  12.784 -0.2203 -0.1841 -0.6829
13033TIP3    H160514   2.044   0.073  12.867 -1.2335 -0.7035 -0.7432
13033TIP3    H260515   2.033   0.088  12.716 -2.1343 -1.5054 -0.7661
13034TIP3   OH260516   3.772   5.145  13.997 -0.3436  0.4779  0.4757
13034TIP3    H160517   3.726   5.063  14.017 -1.8328  1.2857  0.5255
13034TIP3    H260518   3.841   5.150  14.063  0.5355 -1.2876 -0.2441
13035TIP3   OH260519   0.816   4.041   4.905  0.8157  0.5682  0.2628
13035TIP3    H160520   0.840   3.964   4.957  0.5996  0.5207  0.2924
13035TIP3    H260521   0.761   4.093   4.963 -0.0351  0.1604 -0.1520
13036TIP3   OH260522   4.545   5.695   2.077  0.2499 -0.4347  0.2471
13036TIP3    H160523   4.584   5.638   2.143 -0.6887 -0.4011  0.8434
13036TIP3    H260524   4.511   5.770   2.126 -1.1233 -0.7613 -0.1578
13037TIP3   OH260525   5.954   5.351  16.132  0.8271 -0.4110  0.1824
13037TIP3    H160526   5.931   5.367  16.041  0.2981 -0.2590  0.3413
13037TIP3    H260527   5.957   5.438  16.172  1.5686 -0.4310  0.1980
13038TIP3   OH260528   1.779   3.648  10.957  0.1994 -0.0884  0.1885
13038TIP3    H160529   1.708   3.607  11.006 -0.8785 -0.2270 -1.4139
13038TIP3    H260530   1.770   3.742  10.974  0.7589 -0.2321  1.3898
13039TIP3   OH260531   0.102   5.526  11.185 -0.0517  0.2703  0.0945
13039TIP3    H160532   0.132   5.479  11.107 -1.3158  0.8783 -0.7974
13039TIP3    H260533   0.154   5.607  11.186 -1.6499  1.4100 -1.5496
13040TIP3   OH260534   2.312   4.086   1.097 -0.3627 -0.2396 -0.0351
13040TIP3    H160535   2.313   4.141   1.018  2.1582  0.1692  0.2182
13040TIP3    H260536   2.367   4.011   1.075 -1.1024 -1.0489  0.7656
13041TIP3   OH260537   3.532   3.614   2.421  0.5124 -0.2149 -0.0473
13041TIP3    H160538   3.459   3.660   2.463  0.7321  0.3372 -0.2509
13041TIP3    H260539   3.495   3.530   2.395 -0.6019  0.7482 -1.7979
13042TIP3   OH260540   2.378   2.030  12.048 -0.3029  0.6014  0.0800
13042TIP3    H160541   2.439   2.092  12.010 -1.3774  1.5247 -0.1904
13042TIP3    H260542   2.303   2.083  12.075  0.2981 -0.0106  3.3668
13043TIP3   OH260543   1.060   3.661  14.099 -0.3320 -0.6616 -0.4882
13043TIP3    H160544   1.102   3.747  14.103 -0.3332 -0.7001  1.6408
13043TIP3    H260545   0.974   3.678  14.061 -0.8586  0.5529  1.1398
13044TIP3   OH260546   1.956   4.176  13.035 -0.1054  0.1314 -0.1639
13044TIP3    H160547   2.034   4.229  13.054 -0.2439  0.9001 -1.5526
13044TIP3    H260548   1.901   4.186  13.113 -0.4477  2.6944 -0.6328
13045TIP3   OH260549   3.784   4.538  11.905  0.3407 -0.2049 -0.3220
13045TIP3    H160550   3.793   4.575  11.818 -1.6340  4.9057  1.2605
13045TIP3    H260551   3.870   4.547  11.945  0.5240  0.2690 -0.8183
13046TIP3   OH260552   0.892   3.560   4.963 -0.3650  0.0979 -0.1930
13046TIP3    H160553   0.882   3.472   5.000  0.3026  0.5671  1.1764
13046TIP3    H260554   0.967   3.553   4.904 -0.1234 -0.1715  0.1478
13047TIP3   OH260555   2.171   2.380   1.315 -0.1293 -0.3915 -0.0227
13047TIP3    H160556   2.219   2.299   1.331  1.1380  0.0731 -1.3553
13047TIP3    H260557   2.168   2.423   1.401  1.4526 -0.6399  0.1769
13048TIP3   OH260558   6.114   5.553   4.522  0.5330  0.4528 -0.3263
13048TIP3    H160559   6.119   5.626   4.584 -0.3407  0.5422 -0.3442
13048TIP3    H260560   6.194   5.503   4.537  0.0603  0.1313  1.3002
13049TIP3   OH260561   3.558   2.391   2.272 -0.6417 -0.0537  0.0386
13049TIP3    H160562   3.624   2.427   2.213  0.3351  0.4599  1.3697
13049TIP3    H260563   3.476   2.433   2.247  0.0806  1.5062  0.1893
13050TIP3   OH260564   2.323   5.348  11.265  0.1643  0.6397  0.3126
13050TIP3    H160565   2.349   5.413  11.200  3.0748  0.7541  1.4099
13050TIP3    H260566   2.320   5.396  11.348  0.4688 -0.2420  0.8514
13051TIP3   OH260567   3.218   0.022   5.292 -0.3810  0.7117 -0.1062
13051TIP3    H160568   3.222  -0.066   5.253  1.4709  0.8254 -0.2518
13051TIP3    H260569   3.124   0.039   5.301 -0.8415 -0.3604 -2.1717
13052TIP3   OH260570   1.092   1.828  17.471  0.0087 -0.1615  0.0727
13052TIP3    H160571   1.039   1.897  17.509  0.6491 -0.8952  2.4712
13052TIP3    H260572   1.036   1.750  17.474 -1.1509  0.2968 -3.6763
13053TIP3   OH260573   0.621   2.319  13.170  0.2635  0.2895  0.1696
13053TIP3    H160574   0.713   2.324  13.196  0.2004  0.8412  0.3201
13053TIP3    H260575   0.595   2.230  13.190  0.2672  0.6324  1.8958
13054TIP3   OH260576   0.831   3.755  14.004 -0.3253  0.2117 -0.3982
13054TIP3    H160577   0.828   3.816  14.077 -0.8759 -0.4009  0.0958
13054TIP3    H260578   0.869   3.806  13.932 -0.3303  0.9901  0.1409
13055TIP3   OH260579   0.448   5.472   1.092 -0.2697  0.5478  0.0438
13055TIP3    H160580   0.522   5.529   1.114  0.4731 -0.2055 -0.4306
13055TIP3    H260581   0.402   5.460   1.175  0.5169  0.5044  0.4842
13056TIP3   OH260582   5.767   5.532   6.405 -0.4443  0.1215  0.1947
13056TIP3    H160583   5.815   5.601   6.359 -0.9859  0.7690  0.5701
13056TIP3    H260584   5.760   5.460   6.342 -1.4429  1.0947 -0.8651
13057TIP3   OH260585   4.984   1.124   3.497  0.1795 -0.1555 -0.1098
13057TIP3    H160586   5.001   1.179   3.420 -1.8593 -0.7065 -1.0153
13057TIP3    H260587   4.932   1.179   3.555  0.1577 -0.3577  0.0634
13058TIP3   OH260588   5.602   1.442  15.413 -0.0104  0.1711 -0.5182
13058TIP3    H160589   5.654   1.491  15.476  0.0195  1.0905 -1.2337
13058TIP3    H260590   5.595   1.355  15.450 -0.5382  0.8592  1.0687
13059TIP3   OH260591   5.446   3.266  16.732  0.2584  0.5367  0.2855
13059TIP3    H160592   5.455   3.312  16.648 -1.9579 -2.1504 -1.6083
13059TIP3    H260593   5.518   3.203  16.732  0.4387  0.7407  0.5714
13060TIP3   OH260594   1.350   2.001   1.854 -0.2165  0.4119  0.3725
13060TIP3    H160595   1.386   2.047   1.778 -0.4684 -0.3874 -0.2391
13060TIP3    H260596   1.374   2.056   1.928  1.5032  0.3460 -0.1018
13061TIP3   OH260597   3.001   0.542  14.247  0.4438 -0.4073 -0.3149
13061TIP3    H160598   2.970   0.633  14.239  2.0196  0.2089  0.1335
13061TIP3    H260599   2.924   0.493  14.273 -0.4567  0.8045 -0.5949
13062TIP3   OH260600   0.588   3.345  14.861 -0.2307  0.2942 -0.1277
13062TIP3    H160601   0.635   3.406  14.804 -1.2192  1.3098  0.1192
13062TIP3    H260602   0.613   3.370  14.949  0.9748 -1.0159 -0.0640
13063TIP3   OH260603   4.090   6.595   0.514 -0.3626 -0.3010 -0.3243
13063TIP3    H160604   3.995   6.591   0.523 -0.2351 -2.0845  0.7420
13063TIP3    H260605   4.105   6.643   0.433 -2.1898 -0.7501 -0.9615
13064TIP3   OH260606   4.379   0.836  16.481  0.1011 -0.6723  0.0156
13064TIP3    H160607   4.426   0.780  16.419 -0.3903 -3.3439  1.8915
13064TIP3    H260608   4.420   0.818  16.565 -2.7956 -1.5340  1.3881
13065TIP3   OH260609   0.229   1.374  12.225  0.0422 -0.6245  0.1314
13065TIP3    H160610   0.285   1.449  12.247  0.0756  0.0426 -2.0031
13065TIP3    H260611   0.285   1.298  12.242  1.0096 -0.0429 -0.3146
13066TIP3   OH260612   1.842   4.610   0.052  0.4048 -0.0827  0.7455
13066TIP3    H160613   1.906   4.596  -0.017 -1.0030 -3.1756 -0.1230
13066TIP3    H260614   1.854   4.535   0.111 -2.0863 -0.5290  0.7805
13067TIP3   OH260615   0.572   0.895  13.093  0.3409 -0.1462  0.4690
13067TIP3    H160616   0.623   0.952  13.151  1.1962 -1.0982  0.6677
13067TIP3    H260617   0.529   0.956  13.032  3.6535  0.6051 -1.3373
13068TIP3   OH260618   3.990   3.815   1.095 -0.4019 -0.4320  0.5267
13068TIP3    H160619   4.043   3.811   1.015 -0.6971 -2.6554  0.3781
13068TIP3    H260620   4.018   3.895   1.139  2.4532 -1.0615  0.0291
13069TIP3   OH260621   0.355   5.132  10.182  0.0684  0.5660 -0.1081
13069TIP3    H160622   0.389   5.043  10.171 -0.2962  0.2584  1.1082
13069TIP3    H260623   0.263   5.121  10.205 -0.2610  1.3078 -1.0176
13070TIP3   OH260624   4.783   3.798  16.521  0.8335 -0.0378  0.0767
13070TIP3    H160625   4.831   3.721  16.552 -1.8164 -1.0640  2.0614
13070TIP3    H260626   4.718   3.762  16.460 -1.3957  0.3038  2.1254
13071TIP3   OH260627   1.644   5.305   3.326  0.0751 -0.4011  0.2706
13071TIP3    H160628   1.609   5.216   3.328  0.3899 -0.5493 -0.3438
13071TIP3    H260629   1.739   5.293   3.335  0.0631 -0.0779  0.8674
13072TIP3   OH260630   0.714   6.198  15.042 -0.0823 -0.3086  0.2416
13072TIP3    H160631   0.742   6.290  15.040  2.4654 -0.9690  1.6935
13072TIP3    H260632   0.641   6.197  15.103 -0.5152  0.8388 -0.2276
13073TIP3   OH260633   6.653   5.173   0.181  0.0991 -0.4697  0.2845
13073TIP3    H160634   6.625   5.206   0.267  0.0259 -1.3990  0.6313
13073TIP3    H260635   6.682   5.251   0.134 -0.7892  0.1932  0.7941
13074TIP3   OH260636   2.886   6.653  16.454 -0.1593 -0.0024 -1.0597
13074TIP3    H160637   2.877   6.568  16.496 -1.1356  0.2595 -0.7064
13074TIP3    H260638   2.952   6.699  16.505  0.3237 -0.5192 -1.2146
13075TIP3   OH260639   1.536   3.090  14.519 -0.2302 -0.4563 -0.2298
13075TIP3    H160640   1.555   3.142  14.597 -1.5083  2.0159 -1.4431
13075TIP3    H260641   1.476   3.022  14.549 -2.3643  1.6768  0.6887
13076TIP3   OH260642   0.539   6.442  15.465 -0.0630 -0.2882  0.3144
13076TIP3    H160643   0.551   6.480  15.552  3.6810 -2.4426  0.9299
13076TIP3    H260644   0.470   6.376  15.478 -1.8030  1.5065  0.7699
13077TIP3   OH260645   3.536   2.506   3.682 -0.9035  0.2689  0.4646
13077TIP3    H160646   3.631   2.512   3.674 -0.6434  0.6703  3.1209
13077TIP3    H260647   3.505   2.596   3.671 -0.8756  0.3102  0.7335
13078TIP3   OH260648   1.002   1.665  15.487 -0.2030  0.0742  0.5056
13078TIP3    H160649   1.012   1.690  15.395  0.5148  2.0753  1.0687
13078TIP3    H260650   0.907   1.656  15.499 -0.2348 -4.1787 -1.3046
13079TIP3   OH260651   0.213   1.955   3.218  0.3185 -0.2275 -0.0876
13079TIP3    H160652   0.241   2.032   3.266  0.7308 -0.4343  0.0076
13079TIP3    H260653   0.197   1.889   3.286  0.4971 -0.3928 -0.2070
13080TIP3   OH260654   2.746   4.637  12.293 -0.3599  0.1697  0.2047
13080TIP3    H160655   2.822   4.673  12.338 -1.3466  1.7869  0.6861
13080TIP3    H260656   2.686   4.611  12.363 -1.0070  0.6615 -0.1553
13081TIP3   OH260657   2.736   0.333   1.978 -0.6383 -0.3564 -0.7747
13081TIP3    H160658   2.779   0.317   2.062 -3.7606  0.4393  1.1332
13081TIP3    H260659   2.700   0.422   1.985 -3.9285 -1.4706 -1.4422
13082TIP3   OH260660   5.476   2.221  16.321  0.5857 -0.0296 -0.2465
13082TIP3    H160661   5.536   2.147  16.329 -0.0412 -0.4507  0.7038
13082TIP3    H260662   5.391   2.186  16.344  0.0898  0.7461 -0.8297
13083TIP3   OH260663   5.119   3.655  16.388  0.0460 -0.2486  0.7766
13083TIP3    H160664   5.158   3.661  16.301  1.5204 -0.8845  1.3726
13083TIP3    H260665   5.061   3.579  16.383 -0.5443  0.2242  0.1274
13084TIP3   OH260666   5.904   3.492   3.464  0.0453  1.1184 -0.5369
13084TIP3    H160667   5.877   3.583   3.478  0.8227  1.3934 -0.7503
13084TIP3    H260668   5.937   3.491   3.374  1.5245  1.0154 -0.0275
13085TIP3   OH260669   0.896   0.449   3.389 -0.7837 -0.5617 -0.7284
13085TIP3    H160670   0.929   0.432   3.301  2.0657  1.1947 -0.1370
13085TIP3    H260671   0.965   0.416   3.447 -1.8886 -0.2662  0.8205
13086TIP3   OH260672   6.558   1.711  14.273  0.0736 -0.2443 -0.1165
13086TIP3    H160673   6.511   1.649  14.328 -1.4122 -0.3766 -1.4557
13086TIP3    H260674   6.491   1.749  14.217  1.5913 -0.8394 -2.5011
13087TIP3   OH260675   0.706   4.405  14.401 -0.0060  0.0376  0.1227
13087TIP3    H160676   0.730   4.477  14.342  0.3849 -0.3277 -0.1739
13087TIP3    H260677   0.785   4.350  14.404 -0.2692 -0.3255  0.4237
13088TIP3   OH260678   5.692   3.886   2.355  0.1414 -0.5156  0.6933
13088TIP3    H160679   5.676   3.793   2.338  2.2830 -0.7357 -0.3562
13088TIP3    H260680   5.608   3.928   2.335 -0.5241 -2.0675  0.0208
13089TIP3   OH260681   3.737   6.200  12.020  0.1356 -0.0187 -0.0504
13089TIP3    H160682   3.795   6.150  11.963  1.4518 -0.1117  1.3095
13089TIP3    H260683   3.663   6.141  12.037  1.3610 -1.3290  1.0191
13090TIP3   OH260684   1.391   3.934   2.315  0.0102 -0.1533  0.1439
13090TIP3    H160685   1.391   3.989   2.237  0.4067 -1.0570 -0.4999
13090TIP3    H260686   1.438   3.855   2.290 -2.4786 -1.7914  0.3495
13091TIP3   OH260687   4.231   2.241   6.698 -0.1922  0.3079  0.1253
13091TIP3    H160688   4.203   2.210   6.783 -0.8252  1.7676  0.4860
13091TIP3    H260689   4.180   2.321   6.684 -0.9214 -0.4561 -2.1040
13092TIP3   OH260690   5.837   5.959   3.469  0.2996 -0.0251  0.2308
13092TIP3    H160691   5.860   6.048   3.496 -0.1182 -0.1206  0.9180
13092TIP3    H260692   5.836   5.909   3.550 -0.1360 -0.5062 -0.0684
13093TIP3   OH260693   6.540   5.070   5.084 -0.5710 -0.1272  0.4968
13093TIP3    H160694   6.471   5.105   5.028 -2.3807 -3.3557  0.4148
13093TIP3    H260695   6.602   5.029   5.024  0.7639  1.6040  0.6430
13094TIP3   OH260696   1.033   1.661   3.362 -0.9792  0.2015  0.5438
13094TIP3    H160697   0.956   1.619   3.400 -2.5909  2.7903  0.3907
13094TIP3    H260698   1.034   1.749   3.400  0.6296  0.9885 -1.1443
13095TIP3   OH260699   2.705   5.011   0.349  0.0100 -0.4901  0.4923
13095TIP3    H160700   2.636   5.043   0.291  0.0368 -0.3342  0.5454
13095TIP3    H260701   2.670   5.025   0.437 -0.7983 -2.3899  0.5241
13096TIP3   OH260702   0.956   5.763  14.930  0.1194  0.3716  0.1823
13096TIP3    H160703   1.046   5.734  14.915  0.6757  0.5983  2.6378
13096TIP3    H260704   0.907   5.729  14.855  1.9642 -1.0583 -0.4538
13097TIP3   OH260705   6.218   4.266   3.847 -0.0670  0.1966  0.3183
13097TIP3    H160706   6.269   4.314   3.782 -0.8370 -0.4534 -0.8064
13097TIP3    H260707   6.146   4.325   3.869 -1.3729 -0.5859 -1.5338
13098TIP3   OH260708   1.629   1.899  15.469  0.3604 -0.2719  0.0599
13098TIP3    H160709   1.691   1.849  15.521  0.6123  0.4905  0.5017
13098TIP3    H260710   1.680   1.935  15.397  0.3821  0.1636  0.2930
13099TIP3   OH260711   4.107   3.117   3.459 -0.3369 -0.0830 -0.7214
13099TIP3    H160712   4.048   3.095   3.531  1.2536  1.7427  1.2617
13099TIP3    H260713   4.191   3.076   3.483  0.1053  0.1681 -1.7857
13100TIP3   OH260714   4.483   5.799   6.109 -0.2685  0.1107  0.4057
13100TIP3    H160715   4.417   5.831   6.171 -1.5057 -0.0942 -0.7577
13100TIP3    H260716   4.498   5.873   6.050 -1.1187 -0.5362 -0.6563
13101TIP3   OH260717   5.964   0.927  13.379 -0.2260  0.2940 -0.2221
13101TIP3    H160718   6.020   0.849  13.384  1.0348  1.2116  0.5276
13101TIP3    H260719   5.964   0.951  13.286  0.8700  0.4466 -0.1893
13102TIP3   OH260720   4.484   6.276   3.475 -0.2291  0.6935  0.2929
13102TIP3    H160721   4.461   6.208   3.411  0.3236  1.4755 -0.7552
13102TIP3    H260722   4.464   6.236   3.560  3.3101 -2.1508 -0.0106
13103TIP3   OH260723   6.259   0.383   0.160  0.1142  0.2410  0.0368
13103TIP3    H160724   6.337   0.342   0.122  1.2518  1.3448  1.1008
13103TIP3    H260725   6.211   0.310   0.198  0.3352 -0.5322 -1.1193
13104TIP3   OH260726   3.015   0.994   4.085 -0.2704  0.2239 -0.2541
13104TIP3    H160727   2.931   1.027   4.118  0.1282  0.5547  0.4354
13104TIP3    H260728   3.036   0.920   4.142 -0.1202  0.0985 -0.4690
13105TIP3   OH260729   4.470   1.834   6.392 -0.0142 -0.0866 -0.3417
13105TIP3    H160730   4.562   1.852   6.373  0.6233 -1.4605  1.1359
13105TIP3    H260731   4.437   1.914   6.431  0.9325  0.0221  0.2739
13106TIP3   OH260732   1.173   6.274  12.842  0.5815  0.4511  0.2003
13106TIP3    H160733   1.258   6.316  12.831  0.5237  0.6126  0.3765
13106TIP3    H260734   1.194   6.182  12.860  0.7345  0.5918  0.7512
13107TIP3   OH260735   3.456   1.266   4.140  0.6427  0.1735  0.6388
13107TIP3    H160736   3.393   1.268   4.068  0.7272  0.5900  0.5727
13107TIP3    H260737   3.540   1.285   4.098  1.1177 -2.0587  0.4346
13108TIP3   OH260738   2.317   4.873   4.843 -0.4735  0.0084 -0.9642
13108TIP3    H160739   2.278   4.788   4.860 -0.2365 -0.1591 -1.2629
13108TIP3    H260740   2.301   4.923   4.924  1.0628 -0.9423 -0.0304
13109TIP3   OH260741   1.143   1.632   0.367  0.7627  0.0792  0.1436
13109TIP3    H160742   1.136   1.657   0.459  1.2617 -1.7926  0.7291
13109TIP3    H260743   1.227   1.586   0.361 -0.7620 -2.8625 -0.4626
13110TIP3   OH260744   6.355   0.486  13.332 -0.3850 -0.4447  0.2349
13110TIP3    H160745   6.301   0.435  13.271 -1.7347  0.5361  0.5451
13110TIP3    H260746   6.307   0.569  13.341 -0.8815 -0.9804  3.5344
13111TIP3   OH260747   5.166   6.009  14.631 -0.0227 -0.4835  0.3341
13111TIP3    H160748   5.181   5.946  14.702  0.7992 -2.4879 -1.5130
13111TIP3    H260749   5.253   6.026  14.595 -0.2666  1.5811  0.6125
13112TIP3   OH260750   1.438   6.508   1.932  0.3540 -0.6982 -0.4459
13112TIP3    H160751   1.490   6.580   1.898  0.0111 -0.7748 -1.1407
13112TIP3    H260752   1.470   6.431   1.885  0.3513 -0.9165 -0.0963
13113TIP3   OH260753   0.697   5.692  17.371  0.2887  0.0441  0.1240
13113TIP3    H160754   0.610   5.716  17.340  0.2883  3.9797  2.4495
13113TIP3    H260755   0.757   5.738  17.312  0.7164 -0.9266 -0.2083
13114TIP3   OH260756   2.992   1.966   1.672  0.0547 -0.1425  0.0957
13114TIP3    H160757   2.951   1.956   1.758  0.7682  2.0290  0.7511
13114TIP3    H260758   2.938   1.912   1.614 -3.5100  2.1021  0.9725
13115TIP3   OH260759   3.856   3.012  11.371 -0.0821 -0.0229 -0.1765
13115TIP3    H160760   3.912   3.021  11.294  0.4540 -0.0326  0.2027
13115TIP3    H260761   3.849   3.101  11.406  1.9361 -0.3631  1.3028
13116TIP3   OH260762   5.469   0.926   5.220 -0.5051  0.5364  0.5513
13116TIP3    H160763   5.400   0.879   5.173  2.1317 -2.2249 -0.9141
13116TIP3    H260764   5.446   0.917   5.312 -2.4030  0.2969  0.0926
13117TIP3   OH260765   1.423   4.654   4.185 -0.3178  0.9361 -1.0015
13117TIP3    H160766   1.516   4.658   4.209 -0.3281  2.4559 -1.1269
13117TIP3    H260767   1.380   4.714   4.245 -1.4514 -0.7503 -0.0683
13118TIP3   OH260768   5.249   1.917   4.479 -0.0860  0.5551 -0.4499
13118TIP3    H160769   5.222   1.963   4.399  0.4373  0.2732 -0.7888
13118TIP3    H260770   5.172   1.866   4.504  0.3786 -0.9274 -1.8964
13119TIP3   OH260771   3.277   6.511  15.268 -0.1164  0.7154 -0.3293
13119TIP3    H160772   3.195   6.464  15.283 -0.7446  1.9260  0.1524
13119TIP3    H260773   3.325   6.503  15.351  0.2255  0.1000 -0.5760
13120TIP3   OH260774   3.235   4.016   2.910 -0.4221  0.5020  0.0799
13120TIP3    H160775   3.279   4.091   2.951  0.9578 -0.5528  0.6078
13120TIP3    H260776   3.306   3.955   2.889 -1.1844  0.4693 -2.8598
13121TIP3   OH260777   4.622   4.574  11.535 -0.2590 -1.0232 -0.2212
13121TIP3    H160778   4.680   4.647  11.514 -1.2117 -0.4011 -0.7714
13121TIP3    H260779   4.592   4.541  11.451 -0.8590 -1.2066  0.0569
13122TIP3   OH260780   6.137   2.929  17.221  0.4143  0.1874 -0.3140
13122TIP3    H160781   6.125   2.873  17.298 -1.2658  0.9224  0.0060
13122TIP3    H260782   6.206   2.991  17.246  0.3520 -0.0082  0.3534
13123TIP3   OH260783   3.041   0.151  16.861 -0.0315 -0.3610 -0.2046
13123TIP3    H160784   3.082   0.181  16.941  0.3861 -0.7391 -0.2767
13123TIP3    H260785   2.962   0.105  16.890 -0.0324 -0.2492 -0.0309
13124TIP3   OH260786   5.404   1.475   3.643 -0.1172  0.7229  0.0266
13124TIP3    H160787   5.471   1.412   3.617 -1.2541 -0.8877  0.8502
13124TIP3    H260788   5.323   1.424   3.649 -1.3087  2.4688 -0.2841
13125TIP3   OH260789   0.623   1.271  11.179  0.1508  0.4026  0.1420
13125TIP3    H160790   0.606   1.341  11.117  1.1480  0.5227 -0.0130
13125TIP3    H260791   0.538   1.253  11.219 -0.5917  0.0958 -1.4797
13126TIP3   OH260792   1.070   2.547   2.632  0.3593  0.1942  0.0742
13126TIP3    H160793   1.023   2.612   2.683 -0.9894 -1.3120  0.8532
13126TIP3    H260794   1.115   2.597   2.563 -1.6851  1.8001 -0.1782
13127TIP3   OH260795   4.656   6.499   1.396 -0.1610 -0.4963  0.3504
13127TIP3    H160796   4.588   6.535   1.454 -2.5251 -3.3513 -0.4410
13127TIP3    H260797   4.646   6.404   1.403  0.1235 -1.0144 -3.8861
13128TIP3   OH260798   0.270   2.078  17.019 -0.1360  0.0159  0.8453
13128TIP3    H160799   0.331   2.045  17.085  1.0358  0.0570 -0.1698
13128TIP3    H260800   0.316   2.150  16.977  0.7825 -2.2235 -2.4584
13129TIP3   OH260801   3.612   4.085  12.263  0.5229 -0.3522  0.1428
13129TIP3    H160802   3.665   4.006  12.249  0.4325 -0.4196  0.1829
13129TIP3    H260803   3.522   4.058  12.245  0.5237 -0.1862 -0.1181
13130TIP3   OH260804   1.477   0.781   3.114  0.0400 -0.7071 -0.0389
13130TIP3    H160805   1.391   0.810   3.083  0.8829  2.2177  0.0893
13130TIP3    H260806   1.539   0.823   3.055  1.4713 -0.3013  1.6838
13131TIP3   OH260807   3.954   5.697   1.720  0.8111 -0.2612  0.3710
13131TIP3    H160808   3.922   5.710   1.631  1.1128 -2.4270 -0.1165
13131TIP3    H260809   4.040   5.738   1.721  0.8554 -0.3221 -0.3734
13132TIP3   OH260810   5.755   3.072   4.910 -0.0157 -0.5294 -0.1315
13132TIP3    H160811   5.800   3.100   4.830  0.0902 -0.5741 -0.0876
13132TIP3    H260812   5.672   3.119   4.909 -0.0380 -0.5747 -0.2967
13133TIP3   OH260813   3.855   2.610   3.700 -0.0289 -0.4150  0.5514
13133TIP3    H160814   3.811   2.681   3.652  1.3837  0.8498  1.0446
13133TIP3    H260815   3.945   2.642   3.712  0.8737 -2.6264  0.1353
13134TIP3   OH260816   6.488   1.495   1.328 -0.5009 -0.5263  0.3744
13134TIP3    H160817   6.564   1.516   1.273 -1.5114  1.4866 -0.3507
13134TIP3    H260818   6.430   1.445   1.271 -0.9560  0.4103 -0.0070
13135TIP3   OH260819   2.985   4.061   5.649 -0.4082 -0.3034  0.2722
13135TIP3    H160820   2.952   4.066   5.739  3.0586  1.4188  1.6733
13135TIP3    H260821   3.021   3.972   5.642 -2.8108 -1.2841 -0.3628
13136TIP3   OH260822   0.025   4.150  16.945  0.6679  0.4594  0.1902
13136TIP3    H160823  -0.019   4.234  16.955 -1.2916 -0.5242  0.4111
13136TIP3    H260824   0.005   4.123  16.855  1.7619  0.4621 -0.0695
13137TIP3   OH260825   5.710   5.391   5.216  0.3223  0.0543  0.0044
13137TIP3    H160826   5.683   5.385   5.308 -1.4225 -0.4135 -0.5044
13137TIP3    H260827   5.658   5.463   5.181 -1.1094 -1.5367 -1.2692
13138TIP3   OH260828   6.128   3.203  14.354  0.4860 -0.3510  0.2219
13138TIP3    H160829   6.066   3.234  14.419  0.3142  0.3717 -0.2712
13138TIP3    H260830   6.148   3.281  14.301 -1.1266 -1.3507 -2.0424
13139TIP3   OH260831   4.320   3.826   3.141  0.2649  0.5809  0.0988
13139TIP3    H160832   4.318   3.740   3.182 -3.7274  0.2819 -0.2682
13139TIP3    H260833   4.288   3.886   3.209  0.9394  1.4067 -0.2893
13140TIP3   OH260834   0.605   2.500   0.809  0.7844  0.6062  0.4222
13140TIP3    H160835   0.514   2.525   0.819  0.8645  2.1382 -1.9378
13140TIP3    H260836   0.614   2.478   0.716  2.5577 -0.7228  0.8397
13141TIP3   OH260837   2.256   1.126   1.700 -0.2614 -0.2008 -0.2662
13141TIP3    H160838   2.286   1.043   1.738 -0.1172  0.0632  0.1979
13141TIP3    H260839   2.281   1.120   1.608  0.0236 -0.5459 -0.1691
13142TIP3   OH260840   4.571   6.030  12.013 -0.0510  0.3171  0.0048
13142TIP3    H160841   4.495   5.971  12.022 -0.1042 -0.2119 -2.8840
13142TIP3    H260842   4.603   6.014  11.924  2.9498  1.1838  0.8110
13143TIP3   OH260843   2.869   0.067  17.394  0.8037 -0.4591 -0.1865
13143TIP3    H160844   2.859   0.030  17.306 -0.4322  0.5084 -0.4795
13143TIP3    H260845   2.963   0.081  17.403  0.9341 -0.3547 -1.4625
13144TIP3   OH260846   2.134   5.968   2.562  0.1690 -0.2737 -0.3069
13144TIP3    H160847   2.140   6.051   2.608  0.9997 -0.7761  0.5383
13144TIP3    H260848   2.201   5.913   2.603  0.8095 -0.8211 -1.9839
13145TIP3   OH260849   2.979   2.108   4.334 -0.2300 -0.0629  0.2655
13145TIP3    H160850   2.950   2.197   4.314 -0.3480 -0.1411  0.0900
13145TIP3    H260851   2.955   2.095   4.426  1.3546  0.7160  0.8269
13146TIP3   OH260852   6.031   2.814  16.998 -0.6718  0.7636  0.5767
13146TIP3    H160853   5.962   2.766  17.043  0.3807 -1.3448  0.0431
13146TIP3    H260854   6.082   2.855  17.069  2.1565 -4.0849  1.7647
13147TIP3   OH260855   4.224   3.327  14.353  0.2335  0.3917  0.3513
13147TIP3    H160856   4.269   3.318  14.269  1.2864 -0.7536  1.0008
13147TIP3    H260857   4.291   3.359  14.412 -0.1048 -0.2101  1.0759
13148TIP3   OH260858   6.672   2.033   0.021  0.5114 -0.3248 -0.1427
13148TIP3    H160859   6.742   1.989  -0.029  0.6238 -1.2061  0.7649
13148TIP3    H260860   6.608   2.058  -0.045  0.1712 -2.3728 -0.6419
13149TIP3   OH260861   2.948   0.955   0.332  0.4082 -0.3358  0.1605
13149TIP3    H160862   2.871   0.915   0.372 -0.0941 -0.2315 -0.6639
13149TIP3    H260863   2.920   1.045   0.311 -0.2008 -1.0780 -2.6063
13150TIP3   OH260864   3.381   5.737  14.563 -0.1779 -0.9060 -0.6698
13150TIP3    H160865   3.324   5.704  14.632  1.2484 -1.9941  0.0383
13150TIP3    H260866   3.451   5.672  14.555  1.6159  0.9022 -0.6936
13151TIP3   OH260867   5.665   2.547  15.974  0.4871 -0.1081 -0.5502
13151TIP3    H160868   5.706   2.605  15.911  0.3395 -0.5610 -1.0728
13151TIP3    H260869   5.582   2.589  15.996 -0.1765 -0.6845 -1.8412
13152TIP3   OH260870   2.731   5.607  13.920  0.0778 -0.0605  0.4637
13152TIP3    H160871   2.672   5.544  13.878  0.0780  0.6021 -0.5566
13152TIP3    H260872   2.813   5.600  13.870 -0.6263  2.3434 -1.1803
13153TIP3   OH260873   3.329   0.851   3.781 -0.1245 -0.1991 -0.5426
13153TIP3    H160874   3.360   0.918   3.720 -0.7968  0.8693  0.2615
13153TIP3    H260875   3.385   0.775   3.763 -0.5746 -0.0689 -2.7683
13154TIP3   OH260876   4.876   4.816   0.068  0.2645  0.2372  0.2247
13154TIP3    H160877   4.938   4.814  -0.004  1.4733 -2.3335  1.1990
13154TIP3    H260878   4.878   4.727   0.104 -3.7363  0.0947  0.5616
13155TIP3   OH260879   1.060   0.720   3.634 -0.1243 -0.3157  0.4560
13155TIP3    H160880   0.971   0.705   3.602 -0.6946  3.3320 -0.1992
13155TIP3    H260881   1.052   0.718   3.730 -0.4285 -1.9682  0.4229
13156TIP3   OH260882   5.448   0.325  13.640  0.1471 -0.3857 -0.1487
13156TIP3    H160883   5.500   0.405  13.646  0.1679 -0.4066 -0.0518
13156TIP3    H260884   5.470   0.288  13.555  1.4202 -1.1760  0.4926
13157TIP3   OH260885   3.788   4.815   1.223 -0.2878 -0.2458  0.1476
13157TIP3    H160886   3.811   4.856   1.140 -0.7784 -0.6694 -0.2035
13157TIP3    H260887   3.854   4.847   1.285  0.5298 -0.5099 -0.5677
13158TIP3   OH260888   3.398   2.847  15.866 -0.4830  0.1079  0.8105
13158TIP3    H160889   3.439   2.895  15.794  1.5634 -2.1008  0.3617
13158TIP3    H260890   3.315   2.816  15.829 -0.1139  0.2001 -0.1446
13159TIP3   OH260891   2.046   6.429   3.143  0.3784 -0.2624  0.0329
13159TIP3    H160892   1.951   6.441   3.152  0.5150 -0.1654  1.8175
13159TIP3    H260893   2.066   6.355   3.200  1.7816  1.9132  2.5987
13160TIP3   OH260894   4.224   6.119  15.416  0.1209  0.1810  0.0089
13160TIP3    H160895   4.258   6.126  15.326 -0.7485  1.6728 -0.2488
13160TIP3    H260896   4.245   6.204  15.456  2.0616 -1.0620  1.8479
13161TIP3   OH260897   2.581   0.707   2.991  0.0790 -0.3131  0.2276
13161TIP3    H160898   2.511   0.719   2.927 -0.4381  1.7970  1.1353
13161TIP3    H260899   2.651   0.664   2.941 -0.6268  0.5173 -1.5529
13162TIP3   OH260900   5.943   6.079  12.789  0.3978 -0.0365  0.0424
13162TIP3    H160901   5.890   6.003  12.814  1.9686 -1.0117  0.6196
13162TIP3    H260902   5.882   6.153  12.788 -1.0933 -1.2165 -0.0900
13163TIP3   OH260903   0.170   2.055  16.077  0.0759  0.3992  0.5496
13163TIP3    H160904   0.233   2.041  16.149  1.8996  1.5995 -0.7128
13163TIP3    H260905   0.171   2.149  16.063 -2.8179  0.5764  1.0991
13164TIP3   OH260906   1.579   5.709   6.157  0.3972  0.0547 -0.3110
13164TIP3    H160907   1.541   5.643   6.215 -1.1169 -1.3987 -2.7647
13164TIP3    H260908   1.644   5.661   6.106  1.4170  1.1965 -0.1154
13165TIP3   OH260909   4.403   5.266   3.793 -0.6368 -0.3091  0.2472
13165TIP3    H160910   4.338   5.328   3.827 -0.6135  0.2244 -0.6493
13165TIP3    H260911   4.398   5.275   3.698 -0.0509 -1.0978  0.1269
13166TIP3   OH260912   1.418   3.355   5.544 -0.3139  0.1769  0.1794
13166TIP3    H160913   1.360   3.286   5.575  0.2649 -1.2741 -1.7768
13166TIP3    H260914   1.498   3.309   5.518  0.3096  1.6681 -0.6472
13167TIP3   OH260915   3.961   0.223   3.426 -0.1480  0.7005  0.1371
13167TIP3    H160916   4.019   0.263   3.361 -0.8791 -0.7523 -1.4908
13167TIP3    H260917   3.873   0.245   3.397 -0.5459 -1.3552 -0.3675
13168TIP3   OH260918   2.838   4.228   1.569 -0.1404 -0.2258 -0.6339
13168TIP3    H160919   2.808   4.139   1.551 -0.8445 -0.3031  0.8154
13168TIP3    H260920   2.932   4.219   1.584 -0.1143 -0.6410 -1.0240
13169TIP3   OH260921   1.166   2.129   1.199 -0.0041 -0.3242 -0.0009
13169TIP3    H160922   1.113   2.050   1.206 -2.9818  1.4492 -0.9143
13169TIP3    H260923   1.192   2.133   1.107 -0.5390  0.1306 -0.1385
13170TIP3   OH260924   2.215   1.938   0.292 -0.1317 -0.8887  0.1822
13170TIP3    H160925   2.138   1.885   0.315 -0.6620  0.2691  1.1598
13170TIP3    H260926   2.232   1.992   0.369  0.8427 -0.1443 -0.5203
13171TIP3   OH260927   6.228   4.343  13.492  0.5257  0.1880  0.0759
13171TIP3    H160928   6.187   4.371  13.411  1.0842 -0.5477 -0.4774
13171TIP3    H260929   6.305   4.292  13.464  0.3783 -0.5960  1.0413
13172TIP3   OH260930   5.308   0.214   4.047 -0.5483 -0.0395 -0.0326
13172TIP3    H160931   5.370   0.168   4.103 -0.0050  0.2167 -0.4220
13172TIP3    H260932   5.359   0.283   4.005 -1.1853  0.4309 -0.0511
13173TIP3   OH260933   3.300   2.607   1.764 -0.1396 -0.2912 -0.0390
13173TIP3    H160934   3.392   2.581   1.764  0.0549  0.2883  1.5232
13173TIP3    H260935   3.298   2.692   1.722 -0.1792 -0.8990 -1.3147
13174TIP3   OH260936   4.809   4.302   2.389  0.1147  0.1659  0.6325
13174TIP3    H160937   4.800   4.331   2.479 -0.9679 -1.4563  1.0949
13174TIP3    H260938   4.728   4.254   2.371 -0.1713  1.3567 -1.5671
13175TIP3   OH260939   6.518   6.501  10.719 -0.3089 -0.1391  0.0537
13175TIP3    H160940   6.589   6.487  10.655 -1.1838  0.5141 -1.0911
13175TIP3    H260941   6.509   6.596  10.724 -2.2129 -0.2214 -1.1023
13176TIP3   OH260942   2.130   0.706  13.239 -0.1231 -0.3422  0.2897
13176TIP3    H160943   2.206   0.758  13.268  0.7991  0.3510 -2.9735
13176TIP3    H260944   2.068   0.712  13.312  1.4403  2.2313  1.5628
13177TIP3   OH260945   1.041   0.803  10.962 -0.6288 -0.2100 -0.4788
13177TIP3    H160946   1.046   0.822  10.869  1.7767 -1.5011 -0.7092
13177TIP3    H260947   0.978   0.732  10.969  0.6880 -1.5522 -1.4732
13178TIP3   OH260948   1.282   2.064   4.431  0.0100  0.0007 -0.1146
13178TIP3    H160949   1.297   2.028   4.344  0.3229  0.6543 -0.3310
13178TIP3    H260950   1.282   1.987   4.489  0.6133 -0.3561 -0.5794
13179TIP3   OH260951   5.718   3.546  16.574 -0.0548  0.5478 -0.1030
13179TIP3    H160952   5.674   3.515  16.653  0.1953  0.9568  0.2008
13179TIP3    H260953   5.662   3.516  16.503  0.5382 -1.2128  0.1233
13180TIP3   OH260954   3.930   6.344   4.466  0.3382 -0.3597 -0.6767
13180TIP3    H160955   3.956   6.329   4.557  1.2551 -2.0039 -1.1726
13180TIP3    H260956   4.000   6.397   4.429 -0.7552  1.5736 -0.0722
13181TIP3   OH260957   0.791   4.643   5.804 -0.4337 -0.3002  0.0781
13181TIP3    H160958   0.811   4.736   5.793 -1.7260  0.0596  0.6378
13181TIP3    H260959   0.776   4.633   5.897  2.5652 -1.7066  0.5168
13182TIP3   OH260960   5.098   2.407  12.573 -0.2851  0.0774 -0.0525
13182TIP3    H160961   5.007   2.390  12.549 -0.4673 -0.2915  0.8921
13182TIP3    H260962   5.111   2.360  12.655  0.9536 -0.4214 -0.5203
13183TIP3   OH260963   1.226   5.796  16.865 -0.1286 -0.2404  0.6649
13183TIP3    H160964   1.176   5.722  16.901  0.3243 -0.7458  0.2668
13183TIP3    H260965   1.297   5.755  16.817  1.4052  0.4678  2.2189
13184TIP3   OH260966   5.873   4.691  11.767  0.9350 -0.0122 -0.3981
13184TIP3    H160967   5.838   4.780  11.762  1.9603  0.4583  0.4795
13184TIP3    H260968   5.866   4.658  11.677 -0.1261  0.6709 -0.5907
13185TIP3   OH260969   1.145   5.187  17.086  0.5961 -0.3708 -0.3985
13185TIP3    H160970   1.170   5.118  17.025 -0.4469 -0.4604 -0.7459
13185TIP3    H260971   1.122   5.140  17.167  1.2632 -0.3108 -0.1701
13186TIP3   OH260972   5.981   2.765   4.709  0.0131  0.0758 -0.3121
13186TIP3    H160973   5.894   2.778   4.672 -0.5295  0.0859  0.9159
13186TIP3    H260974   6.039   2.761   4.633 -0.6374  3.0410 -1.1044
13187TIP3   OH260975   1.764   4.831   1.841  0.5082 -0.1738 -0.4379
13187TIP3    H160976   1.797   4.888   1.911  3.1359 -0.6211 -1.1971
13187TIP3    H260977   1.731   4.754   1.887  0.9366  0.1139  0.3847
13188TIP3   OH260978   1.869   0.859   2.758 -0.2409  0.3415  0.2740
13188TIP3    H160979   1.918   0.941   2.748 -2.2294  1.5618 -0.0407
13188TIP3    H260980   1.836   0.841   2.669 -1.9822  0.6842  0.8012
13189TIP3   OH260981   6.651   4.595  11.446  0.3750  0.2175  0.2134
13189TIP3    H160982   6.672   4.648  11.523  0.1256 -1.6809  1.6692
13189TIP3    H260983   6.653   4.505  11.478 -1.8281 -0.5279 -1.4969
13190TIP3   OH260984   6.169   6.241  16.835  0.5328  0.2664  0.1422
13190TIP3    H160985   6.073   6.240  16.830  0.5159  0.8257  0.2908
13190TIP3    H260986   6.191   6.178  16.903  0.2120  0.9866  0.9205
13191TIP3   OH260987   1.527   2.016  13.179  0.3372 -0.1127 -0.1780
13191TIP3    H160988   1.588   1.961  13.228  0.1792  0.2535  0.4427
13191TIP3    H260989   1.583   2.081  13.136  0.3483  0.5919  0.8727
13192TIP3   OH260990   2.359   3.583   4.430  0.5631  0.4002 -0.1910
13192TIP3    H160991   2.264   3.596   4.431  0.0642 -2.5467  0.3850
13192TIP3    H260992   2.393   3.655   4.483 -1.2666  1.7563 -0.7236
13193TIP3   OH260993   0.680   4.975  11.971  0.4982  0.4827  0.3083
13193TIP3    H160994   0.637   4.915  12.032  0.9968  0.4301  0.6232
13193TIP3    H260995   0.762   4.931  11.948  1.5722  1.6461  1.6849
13194TIP3   OH260996   0.129   0.937   2.587 -0.0097 -0.4669  0.0878
13194TIP3    H160997   0.203   0.939   2.648 -0.2344 -1.1510  0.3981
13194TIP3    H260998   0.169   0.925   2.501  0.3803  1.5540 -0.0655
13195TIP3   OH260999   3.421   5.505  13.255  0.5451  0.5713 -0.0713
13195TIP3    H161000   3.373   5.569  13.307  0.2101  1.7897 -1.7880
13195TIP3    H261001   3.392   5.420  13.289 -0.5406  1.3143  0.9258
13196TIP3   OH261002   4.025   2.991  15.310  0.2721  0.1121 -0.2793
13196TIP3    H161003   4.009   3.046  15.233 -0.0170  0.4918  0.0494
13196TIP3    H261004   4.083   3.043  15.365  0.7628 -0.3056 -0.4010
13197TIP3   OH261005   5.626   2.663  11.703 -0.1556  0.1058  0.4360
13197TIP3    H161006   5.716   2.637  11.722 -0.3885 -0.6872  0.5175
13197TIP3    H261007   5.634   2.741  11.649  0.5602  0.9137  1.6631
13198TIP3   OH261008   1.722   0.785  10.915 -0.1022 -0.2042 -0.5095
13198TIP3    H161009   1.734   0.692  10.896 -1.1262 -0.6021  0.6873
13198TIP3    H261010   1.773   0.800  10.995  1.2828  0.6388 -1.4971
13199TIP3   OH261011   2.950   1.550   4.417 -0.8051  0.6818  0.1411
13199TIP3    H161012   2.871   1.540   4.363 -0.6600  2.1419 -0.3850
13199TIP3    H261013   2.927   1.617   4.482 -0.3798  0.2536  0.7474
13200TIP3   OH261014   0.724   0.369  15.971  0.1019 -0.1254 -0.3804
13200TIP3    H161015   0.807   0.415  15.978  0.1326 -0.2299 -0.0437
13200TIP3    H261016   0.747   0.280  15.944  0.3617 -0.9964  2.3934
13201TIP3   OH261017   1.784   3.989   3.512  0.2917  0.2712  0.2468
13201TIP3    H161018   1.717   4.013   3.576 -0.3067  0.0633 -0.2842
13201TIP3    H261019   1.805   4.071   3.467 -0.9163  0.0592 -0.7859
13202TIP3   OH261020   1.592   0.790   4.018  0.0852  0.0478 -0.3400
13202TIP3    H161021   1.688   0.795   4.013  0.3695 -2.1421  1.1393
13202TIP3    H261022   1.562   0.817   3.932  2.2313 -1.8629 -1.8322
13203TIP3   OH261023   3.831   4.228  15.467  0.1994 -0.5177 -0.0885
13203TIP3    H161024   3.751   4.194  15.428  0.0985 -0.9863  0.4993
13203TIP3    H261025   3.894   4.231  15.394 -0.3562 -0.1019 -0.5577
13204TIP3   OH261026   5.854   0.781  12.847 -0.4520 -0.2388 -0.2218
13204TIP3    H161027   5.801   0.805  12.771  0.8441  1.8454 -0.5574
13204TIP3    H261028   5.943   0.772  12.813  0.4062  2.0326  1.1563
13205TIP3   OH261029   1.555   6.385   5.534  0.1342  0.0919 -0.4577
13205TIP3    H161030   1.500   6.317   5.497  0.7939  0.4976 -2.2653
13205TIP3    H261031   1.500   6.427   5.600 -0.8336 -1.1232 -0.4617
13206TIP3   OH261032   4.476   2.888   0.041  0.1279  0.2309  0.7850
13206TIP3    H161033   4.513   2.943  -0.028  0.1729  1.0725  1.4619
13206TIP3    H261034   4.384   2.915   0.046  0.0174 -0.1401  0.7581
13207TIP3   OH261035   3.207   1.139   3.913 -0.4451  0.1994 -0.1605
13207TIP3    H161036   3.181   1.111   3.826 -0.8821 -0.0745  0.0550
13207TIP3    H261037   3.176   1.069   3.971  2.0938 -0.9563 -0.0295
13208TIP3   OH261038   1.132   4.253   3.836  0.2293  0.0548  0.3731
13208TIP3    H161039   1.115   4.313   3.908 -1.7533 -0.3547  0.2945
13208TIP3    H261040   1.132   4.166   3.876 -0.9613 -0.1822 -0.1036
13209TIP3   OH261041   4.315   1.746  11.983  0.2176 -0.0182  0.1826
13209TIP3    H161042   4.222   1.750  11.959  0.0490 -0.4431  0.7337
13209TIP3    H261043   4.321   1.670  12.041  1.2059 -0.9799 -1.1139
13210TIP3   OH261044   3.441   6.202   2.362  0.2195  0.4491 -0.2550
13210TIP3    H161045   3.515   6.157   2.321  1.0926  1.1092  0.5496
13210TIP3    H261046   3.477   6.287   2.389  0.0897 -0.4513  3.0700
13211TIP3   OH261047   1.976   1.381  14.516 -0.2115 -0.4676  0.0645
13211TIP3    H161048   2.058   1.384  14.565 -1.1551 -2.1514  1.8848
13211TIP3    H261049   1.923   1.315  14.561 -1.6250 -1.2660 -2.5508
13212TIP3   OH261050   4.983   1.895  11.654 -0.0036  0.2777 -0.5850
13212TIP3    H161051   4.896   1.861  11.678 -0.2107  0.6931 -0.7436
13212TIP3    H261052   4.978   1.989  11.670  0.8812  0.1233  0.7872
13213TIP3   OH261053   5.920   2.869  16.762 -0.7514  0.0737 -0.3303
13213TIP3    H161054   5.826   2.853  16.749 -0.8090 -0.0877  0.2593
13213TIP3    H261055   5.935   2.850  16.854  0.2445 -1.7369 -0.8270
13214TIP3   OH261056   5.621   5.289   2.342  0.7797  0.0779 -0.3830
13214TIP3    H161057   5.549   5.241   2.300 -1.8769  3.1716  0.2230
13214TIP3    H261058   5.625   5.255   2.431 -0.4021  0.2819 -0.2424
13215TIP3   OH261059   5.899   0.990  17.296 -0.2228 -0.0316  0.0978
13215TIP3    H161060   5.977   1.014  17.345 -0.3621  0.4685  0.0864
13215TIP3    H261061   5.930   0.970  17.208 -0.0356 -0.4162  0.2516
13216TIP3   OH261062   5.562   2.630   0.930  0.5451 -0.0237  0.7794
13216TIP3    H161063   5.606   2.656   0.849  0.7048 -1.7741  0.2584
13216TIP3    H261064   5.604   2.548   0.955 -1.6944 -1.2575  0.8153
13217TIP3   OH261065   6.493   4.362   4.330  0.5203  0.7279  0.3971
13217TIP3    H161066   6.508   4.272   4.303  1.1158  1.0569 -0.4355
13217TIP3    H261067   6.580   4.395   4.352  0.8807  2.0693 -2.5302
13218TIP3   OH261068   1.106   4.926  14.349 -0.1120  0.2712  0.1363
13218TIP3    H161069   1.074   4.958  14.432  0.8067 -0.8217  0.9511
13218TIP3    H261070   1.134   4.836  14.367 -1.8567 -0.7459 -1.8464
13219TIP3   OH261071   6.454   4.512  15.735  0.2732 -0.1621  0.5565
13219TIP3    H161072   6.539   4.556  15.729  0.2362 -0.2958 -2.2100
13219TIP3    H261073   6.391   4.582  15.752  0.8255 -0.0067  2.1600
13220TIP3   OH261074   1.607   6.366   0.880 -0.5374  0.3782  0.2267
13220TIP3    H161075   1.522   6.353   0.838  0.3326  1.0629 -1.8990
13220TIP3    H261076   1.653   6.283   0.868  0.2736  1.0387 -1.6976
13221TIP3   OH261077   3.926   0.250  16.337 -0.0019  0.0562 -0.1540
13221TIP3    H161078   3.856   0.250  16.272  1.0646  2.0072 -1.4207
13221TIP3    H261079   4.006   0.257  16.286  0.9802  0.2120  1.3300
13222TIP3   OH261080   3.672   5.952  14.083 -0.0427  0.4351  0.2669
13222TIP3    H161081   3.576   5.945  14.081 -0.3180  2.8417 -2.4583
13222TIP3    H261082   3.702   5.879  14.030 -0.4577  0.2702  0.2519
13223TIP3   OH261083   4.532   0.982   4.162 -0.0312  0.0306 -0.3406
13223TIP3    H161084   4.451   1.029   4.182 -1.4834 -1.7921 -1.6275
13223TIP3    H261085   4.600   1.033   4.206 -2.1621 -0.2639  3.7475
13224TIP3   OH261086   2.607   1.213   5.367  0.4558  0.0991  0.1023
13224TIP3    H161087   2.611   1.308   5.376  1.0064 -0.0928  2.4719
13224TIP3    H261088   2.532   1.187   5.420 -0.3805 -0.7462 -1.4235
13225TIP3   OH261089   1.714   2.943  11.659 -0.0610  0.9605  0.0178
13225TIP3    H161090   1.721   3.035  11.685  2.3244  0.6789  0.6486
13225TIP3    H261091   1.798   2.924  11.617 -1.1069 -0.5399 -1.5004
13226TIP3   OH261092   4.212   0.881  15.998 -0.0868 -0.2461 -0.4429
13226TIP3    H161093   4.250   0.967  16.014  1.6085 -0.7574 -1.4301
13226TIP3    H261094   4.119   0.897  15.986 -0.2586  1.0809  2.0194
13227TIP3   OH261095   0.243   4.751  14.052 -0.6203 -0.3137  0.2371
13227TIP3    H161096   0.272   4.715  14.136 -0.1801  1.1815  0.7516
13227TIP3    H261097   0.310   4.722  13.990  0.2954  0.4444  0.8342
13228TIP3   OH261098   0.132   1.568  10.382 -0.2937  0.3171 -0.5562
13228TIP3    H161099   0.126   1.482  10.339 -0.2390  1.1093 -2.2474
13228TIP3    H261100   0.045   1.582  10.418  0.2104 -1.2504  1.4719
13229TIP3   OH261101   5.497   3.716  13.745 -0.0545  0.1746 -0.3897
13229TIP3    H161102   5.442   3.674  13.679 -0.7016  2.4703 -1.3974
13229TIP3    H261103   5.439   3.733  13.818  0.7545 -2.7492  1.0799
13230TIP3   OH261104   2.919   5.931   1.976 -0.0341  0.2020 -0.7080
13230TIP3    H161105   2.842   5.918   2.032  0.6232 -0.1617  0.1203
13230TIP3    H261106   2.893   6.002   1.917 -0.7173  0.6287  0.0869
13231TIP3   OH261107   6.273   5.797  12.562 -0.3191 -0.1181  0.0406
13231TIP3    H161108   6.235   5.720  12.520 -0.2341  1.0609 -2.4003
13231TIP3    H261109   6.200   5.859  12.569  0.0417  0.3049  0.0910
13232TIP3   OH261110   0.161   3.497  16.905  0.0837 -1.1249 -0.3606
13232TIP3    H161111   0.165   3.426  16.969  0.0513 -0.8340 -0.0292
13232TIP3    H261112   0.169   3.577  16.958 -0.5745 -0.8607 -0.6550
13233TIP3   OH261113   5.074   4.336   4.161 -0.4404 -0.2782 -0.9087
13233TIP3    H161114   5.068   4.260   4.103 -0.7762 -0.3687 -0.7578
13233TIP3    H261115   4.994   4.332   4.214  0.2874 -0.7278  0.2042
13234TIP3   OH261116   0.523   5.137  10.829  0.0191  0.0763 -0.3225
13234TIP3    H161117   0.556   5.218  10.790  0.1779 -0.7535 -1.9992
13234TIP3    H261118   0.451   5.111  10.772 -0.2670 -0.7717  0.4065
13235TIP3   OH261119   4.222   5.939  16.631 -0.3803 -0.0501  0.3953
13235TIP3    H161120   4.188   5.952  16.720 -1.0303  0.6365  0.0479
13235TIP3    H261121   4.192   6.015  16.582 -0.9565 -0.9591 -0.7013
13236TIP3   OH261122   5.400   3.226  15.032 -0.2394 -0.0200 -0.1336
13236TIP3    H161123   5.398   3.219  15.127 -0.3600 -3.1717 -0.2776
13236TIP3    H261124   5.488   3.198  15.008  0.7176  3.2058 -0.9404
13237TIP3   OH261125   4.730   5.386  12.539  0.0005 -0.6217  0.3003
13237TIP3    H161126   4.781   5.432  12.472  2.7643  0.3046  2.7810
13237TIP3    H261127   4.684   5.456  12.586  0.7888 -0.8167  1.4038
13238TIP3   OH261128   2.145   5.742  13.430  0.4393 -0.4572  0.2419
13238TIP3    H161129   2.186   5.807  13.374  0.5096 -0.4784  0.2682
13238TIP3    H261130   2.217   5.710  13.485  0.5280 -0.9704 -0.1619
13239TIP3   OH261131   2.482   3.234   3.416 -0.3638  0.0906  0.2187
13239TIP3    H161132   2.474   3.309   3.474  0.4576  1.2233 -1.0863
13239TIP3    H261133   2.558   3.253   3.362  0.7641 -2.3665  0.8251
13240TIP3   OH261134   6.671   0.668   0.932 -0.2283  0.0942  0.0703
13240TIP3    H161135   6.714   0.583   0.946  0.2855  0.2772 -0.3873
13240TIP3    H261136   6.743   0.731   0.927 -0.4128  0.1855 -2.3463
13241TIP3   OH261137   0.361   5.739   4.231 -0.3184  0.4105 -0.1142
13241TIP3    H161138   0.368   5.768   4.139  0.2186  0.3450 -0.1007
13241TIP3    H261139   0.377   5.818   4.282 -0.6674  0.4566 -0.0744
13242TIP3   OH261140   0.698   4.427   5.671 -0.5027  0.4271 -0.4104
13242TIP3    H161141   0.724   4.345   5.714 -1.7653 -0.6657 -1.6139
13242TIP3    H261142   0.735   4.496   5.725 -0.3489 -0.9256  1.2826
13243TIP3   OH261143   1.397   3.604  16.842 -0.2233  0.1075 -0.0880
13243TIP3    H161144   1.310   3.617  16.805  0.0054  1.7783 -0.1464
13243TIP3    H261145   1.444   3.685  16.821  1.7357 -1.2194 -1.0756
13244TIP3   OH261146   2.760   4.975   4.084  0.1364 -0.0256  0.2805
13244TIP3    H161147   2.734   4.971   4.176  0.0663  0.7994  0.2986
13244TIP3    H261148   2.852   4.998   4.086  0.4260 -1.1092  0.1615
13245TIP3   OH261149   1.638   1.498  12.848  0.2972 -0.0881 -0.2920
13245TIP3    H161150   1.613   1.582  12.887  0.2226 -1.7295  3.6475
13245TIP3    H261151   1.555   1.451  12.836  0.2964  0.4110 -2.8740
13246TIP3   OH261152   1.731   3.297  16.841 -0.8796 -0.3402 -0.2839
13246TIP3    H161153   1.753   3.242  16.917 -1.1151 -1.2097 -0.8241
13246TIP3    H261154   1.780   3.378  16.855 -0.6352 -0.6305  0.6141
13247TIP3   OH261155   4.190   0.267  11.425 -0.0166  0.7553  0.0022
13247TIP3    H161156   4.261   0.202  11.424  0.8116  1.6165 -1.3372
13247TIP3    H261157   4.234   0.349  11.447 -1.0239  0.9161  1.5212
13248TIP3   OH261158   0.305   1.512  10.897 -0.6531 -0.0403 -0.1501
13248TIP3    H161159   0.234   1.549  10.949  0.7234  3.1718 -0.3257
13248TIP3    H261160   0.261   1.456  10.833 -2.5872 -1.7435  2.4569
13249TIP3   OH261161   2.994   2.238  17.162 -0.2592 -0.4800  0.7707
13249TIP3    H161162   2.945   2.163  17.127 -0.8060  0.4026 -0.4186
13249TIP3    H261163   2.936   2.277  17.227 -0.2899 -0.6162  0.8268
13250TIP3   OH261164   1.471   1.892   0.054 -0.3510 -0.0614  0.0141
13250TIP3    H161165   1.503   1.976   0.085 -0.9624 -0.5300  2.0943
13250TIP3    H261166   1.514   1.828   0.111 -2.4683 -0.8978  0.7915
13251TIP3   OH261167   5.694   0.756  15.917 -0.1966 -0.3480 -0.7030
13251TIP3    H161168   5.695   0.838  15.867 -1.0515 -1.0697 -1.9382
13251TIP3    H261169   5.605   0.751  15.952 -0.1051 -0.6905 -0.5240
13252TIP3   OH261170   5.916   3.962   2.118  1.0366  0.7850 -0.1214
13252TIP3    H161171   5.979   3.950   2.046  0.0064 -2.4931 -0.6507
13252TIP3    H261172   5.906   3.875   2.156 -1.4166  1.6553  1.5015
13253TIP3   OH261173   4.247   3.967   4.019 -0.0635  0.6720  0.8350
13253TIP3    H161174   4.342   3.978   4.029  0.0706 -0.0673  0.4859
13253TIP3    H261175   4.228   3.885   4.063 -0.0783 -0.6373 -1.4374
13254TIP3   OH261176   4.589   0.653   1.207 -0.3262 -0.1166 -0.6715
13254TIP3    H161177   4.549   0.672   1.122  0.5376  2.0240 -0.6629
13254TIP3    H261178   4.615   0.561   1.201 -2.5523 -0.7393 -1.7395
13255TIP3   OH261179   0.398   1.891   1.315  0.2223  0.7206  0.0616
13255TIP3    H161180   0.421   1.864   1.226  0.6493 -0.8939  0.6281
13255TIP3    H261181   0.482   1.894   1.361  0.0550  2.0005  0.3081
13256TIP3   OH261182   5.042   2.217   4.196  0.7366  0.4884  0.4290
13256TIP3    H161183   5.115   2.157   4.212 -0.0477 -0.4469  0.6336
13256TIP3    H261184   4.994   2.219   4.279 -0.3681 -0.1988 -0.1650
13257TIP3   OH261185   6.231   6.688   5.070 -0.2244  0.0581 -0.1969
13257TIP3    H161186   6.202   6.779   5.072  0.7143  0.3649 -0.3574
13257TIP3    H261187   6.325   6.692   5.087 -0.2689 -0.9249  0.3505
13258TIP3   OH261188   5.136   2.636   2.135 -0.0166 -0.3201  0.0998
13258TIP3    H161189   5.149   2.592   2.220  2.4570  0.9625  0.4538
13258TIP3    H261190   5.105   2.724   2.158  2.3004  0.6254 -0.1610
13259TIP3   OH261191   5.857   2.840  14.393  0.0382  0.3187  0.3505
13259TIP3    H161192   5.851   2.750  14.360 -1.0166 -0.7039  3.0535
13259TIP3    H261193   5.773   2.879  14.370 -0.4232 -0.1699  1.1384
13260TIP3   OH261194   3.127   3.043   1.402  0.0233  0.3328  0.0853
13260TIP3    H161195   3.169   3.126   1.425 -1.6026  1.0717  0.5005
13260TIP3    H261196   3.078   3.018   1.480 -1.6695  0.3850 -0.9141
13261TIP3   OH261197   3.046   5.710   3.219  0.2705 -0.3091 -0.4615
13261TIP3    H161198   3.141   5.694   3.221  0.1453 -1.0771 -0.1106
13261TIP3    H261199   3.020   5.710   3.311 -0.3132 -1.7606 -0.5987
13262TIP3   OH261200   5.178   1.161  17.130  0.3378  0.1427  0.2776
13262TIP3    H161201   5.098   1.116  17.157  0.4229  0.1896  0.6071
13262TIP3    H261202   5.155   1.203  17.047  0.5216 -1.2668 -0.5249
13263TIP3   OH261203   4.791   1.816  13.380  0.3461 -0.1091  0.1173
13263TIP3    H161204   4.830   1.903  13.372  1.6131 -0.7081 -0.5476
13263TIP3    H261205   4.735   1.807  13.303 -0.6697  0.5180  0.7581
13264TIP3   OH261206   3.841   4.928   3.882  0.1649 -0.1295  0.1117
13264TIP3    H161207   3.879   4.999   3.830  0.2763 -0.7884 -0.7319
13264TIP3    H261208   3.910   4.904   3.943  0.0832  0.5594  0.4893
13265TIP3   OH261209   4.369   3.664  12.201  0.2249 -0.0541 -0.0449
13265TIP3    H161210   4.393   3.655  12.109 -0.5383 -0.3983 -0.2189
13265TIP3    H261211   4.274   3.656  12.202  0.3409 -1.7832  0.9788
13266TIP3   OH261212   2.466   0.898  16.510 -0.4730  0.4592 -0.1306
13266TIP3    H161213   2.387   0.882  16.562 -0.0424  0.2863  0.4805
13266TIP3    H261214   2.451   0.850  16.429 -0.8259  0.0947  0.1450
13267TIP3   OH261215   2.295   3.206   3.910  0.1523 -0.0624  0.8302
13267TIP3    H161216   2.348   3.131   3.938 -0.0772 -0.7485 -0.5022
13267TIP3    H261217   2.253   3.177   3.829  0.3330  1.6347  0.0881
13268TIP3   OH261218   2.906   2.535  11.070  0.0437 -0.0922 -0.8803
13268TIP3    H161219   2.862   2.460  11.109 -0.7012  1.8005  2.3612
13268TIP3    H261220   2.844   2.570  11.007 -1.6504  0.3694  0.9296
13269TIP3   OH261221   6.106   5.237  10.905 -0.3371 -0.2455 -0.6194
13269TIP3    H161222   6.073   5.157  10.864 -0.3296 -0.1435 -0.8296
13269TIP3    H261223   6.034   5.267  10.960 -1.0923  0.6503 -2.0258
13270TIP3   OH261224   0.327   2.904   0.536 -0.4490  0.5866 -0.0043
13270TIP3    H161225   0.346   2.974   0.473 -0.0365  0.9111  0.4713
13270TIP3    H261226   0.289   2.949   0.611 -0.6572  0.2350  0.1059
13271TIP3   OH261227   2.743   1.229   0.554  0.0450 -1.0423  0.2816
13271TIP3    H161228   2.669   1.210   0.496  0.1592 -2.8372  0.6580
13271TIP3    H261229   2.703   1.262   0.634 -0.1626  0.5905 -0.4520
13272TIP3   OH261230   2.722   6.612   4.625  0.3844  0.0675 -0.1370
13272TIP3    H161231   2.709   6.528   4.669 -0.2797  0.1320 -0.1971
13272TIP3    H261232   2.742   6.589   4.535 -1.1915 -0.0168 -0.4961
13273TIP3   OH261233   1.624   3.867  13.581  0.4956  0.4100  0.4122
13273TIP3    H161234   1.616   3.817  13.662  1.1234 -0.1129  0.1576
13273TIP3    H261235   1.624   3.801  13.512 -0.1496  0.8595 -0.0334
13274TIP3   OH261236   6.672   5.823  14.129  0.0646 -0.1687  0.2523
13274TIP3    H161237   6.678   5.910  14.089 -0.9457  0.3113  1.1116
13274TIP3    H261238   6.659   5.764  14.055  2.0670  0.2164 -0.4747
13275TIP3   OH261239   1.013   4.203  12.406  0.2412  0.4537 -0.6133
13275TIP3    H161240   1.043   4.278  12.355 -0.9938  0.8806 -0.7674
13275TIP3    H261241   0.941   4.238  12.459  0.1148 -0.4607 -0.1608
13276TIP3   OH261242   2.782   0.887   5.884  0.0184 -0.6717 -0.0704
13276TIP3    H161243   2.716   0.953   5.907  2.2176  1.4006  0.7232
13276TIP3    H261244   2.803   0.845   5.967 -1.1673 -2.2821 -0.5313
13277TIP3   OH261245   0.248   4.099  16.447 -0.2393  0.1586  0.0892
13277TIP3    H161246   0.280   4.185  16.475 -1.3649  0.1672  1.4640
13277TIP3    H261247   0.153   4.108  16.445 -0.3615 -0.9808 -0.0156
13278TIP3   OH261248   0.859   5.893  16.820 -0.2225 -0.7091  0.3964
13278TIP3    H161249   0.830   5.807  16.851 -0.6435 -0.9335 -0.5994
13278TIP3    H261250   0.902   5.932  16.896 -0.0054 -1.8050  0.8512
13279TIP3   OH261251   5.092   4.502   0.761 -0.1070 -0.2801  0.3724
13279TIP3    H161252   5.151   4.455   0.821  0.4474 -0.5239 -0.3564
13279TIP3    H261253   5.090   4.449   0.682 -2.6282 -1.1723  0.9292
13280TIP3   OH261254   4.741   6.471  16.299  0.1835 -0.1874 -0.7415
13280TIP3    H161255   4.664   6.492  16.352 -0.9297  0.0394 -2.3714
13280TIP3    H261256   4.810   6.455  16.363 -1.0617  0.1663  0.7654
13281TIP3   OH261257   1.196   2.811   0.904 -0.0650  0.5916  0.3121
13281TIP3    H161258   1.135   2.749   0.864 -1.4942  2.0015  0.2071
13281TIP3    H261259   1.210   2.778   0.992 -1.1559  0.3387  0.4063
13282TIP3   OH261260   3.184   4.535  14.763  0.1149  0.8518 -0.6262
13282TIP3    H161261   3.267   4.514  14.805  0.1538  1.3180 -0.4598
13282TIP3    H261262   3.150   4.610  14.813  0.0437  1.2618 -1.2718
13283TIP3   OH261263   2.906   3.318  11.056  0.2572 -0.2046 -0.0610
13283TIP3    H161264   2.950   3.402  11.064  1.5839 -0.8934  0.2608
13283TIP3    H261265   2.818   3.339  11.025  0.2600  1.3513  0.8995
13284TIP3   OH261266   4.520   2.734  15.078  0.1677 -0.6687 -0.0103
13284TIP3    H161267   4.602   2.763  15.118  0.2655 -1.5439  0.4404
13284TIP3    H261268   4.470   2.696  15.151 -0.9223  0.4417 -0.1365
13285TIP3   OH261269   6.413   0.374   4.392  0.1931  0.2769  0.1532
13285TIP3    H161270   6.414   0.302   4.455 -0.7972  0.8258  0.8189
13285TIP3    H261271   6.424   0.453   4.445  4.4155  0.5796 -0.7928
13286TIP3   OH261272   0.949   0.856   0.200  0.4677  0.6662  0.3538
13286TIP3    H161273   0.901   0.938   0.197  0.7733  0.8143 -1.2775
13286TIP3    H261274   0.912   0.803   0.129  2.3135  0.5963 -0.6407
13287TIP3   OH261275   6.203   6.117  13.275 -0.3667 -0.1064 -0.3022
13287TIP3    H161276   6.226   6.025  13.288 -1.7105 -0.3070  0.8993
13287TIP3    H261277   6.272   6.151  13.217  0.2401 -1.8108 -0.6407
13288TIP3   OH261278   0.789   2.142   5.273 -0.1559 -0.2770 -1.0281
13288TIP3    H161279   0.696   2.137   5.299  0.4476 -0.4524  1.3181
13288TIP3    H261280   0.806   2.236   5.267 -0.8331 -0.2398 -3.0129
13289TIP3   OH261281   0.725   3.333  11.549 -0.1144  0.1438 -0.4923
13289TIP3    H161282   0.707   3.426  11.537  0.1006  0.2620  0.0538
13289TIP3    H261283   0.819   3.324  11.534  0.1667  0.3005  0.9978
13290TIP3   OH261284   5.058   6.204  12.053 -0.2854  0.4567  0.6968
13290TIP3    H161285   4.979   6.157  12.081  0.3873  0.0067  1.8893
13290TIP3    H261286   5.130   6.144  12.071  0.4040  1.1501  0.3153
13291TIP3   OH261287   5.767   5.047  15.458 -0.1461 -0.2407  0.2814
13291TIP3    H161288   5.754   5.030  15.551 -1.8340  1.6804  0.4414
13291TIP3    H261289   5.721   4.975  15.414 -2.7506  0.9251  0.9520
13292TIP3   OH261290   5.677   3.991   5.171  0.1635 -0.3306  0.5542
13292TIP3    H161291   5.617   3.926   5.135  1.0091 -1.8499  1.7892
13292TIP3    H261292   5.696   4.049   5.098 -2.3211 -0.1363 -0.0334
13293TIP3   OH261293   5.585   6.654   1.900 -0.5323  0.1427 -0.2401
13293TIP3    H161294   5.599   6.689   1.812 -0.6361 -0.6646 -0.5761
13293TIP3    H261295   5.645   6.580   1.907 -1.0750 -0.2661  0.0988
13294TIP3   OH261296   0.631   6.068   4.989  0.3242  0.2364 -0.1986
13294TIP3    H161297   0.625   6.120   5.069  0.2179  0.0914 -0.1115
13294TIP3    H261298   0.701   6.004   5.008  0.2950  0.1984 -0.2193
13295TIP3   OH261299   4.790   1.287  12.342  0.4777  0.5858 -0.1079
13295TIP3    H161300   4.821   1.375  12.361 -0.2127  1.0910 -1.2163
13295TIP3    H261301   4.819   1.270  12.252 -1.4921  0.6811 -0.8157
13296TIP3   OH261302   6.532   4.079  12.666  0.3430 -0.3313  0.6845
13296TIP3    H161303   6.564   4.022  12.595 -0.1653 -0.4578  0.5497
13296TIP3    H261304   6.481   4.020  12.722  0.5491 -0.1824  1.0256
13297TIP3   OH261305   0.257   1.133  17.153  0.0441 -0.2132 -0.4611
13297TIP3    H161306   0.220   1.179  17.077 -1.1052  0.6743  0.5994
13297TIP3    H261307   0.267   1.043  17.124  0.4552  0.2720 -1.9470
13298TIP3   OH261308   2.416   2.987   3.253  0.2416 -0.0822  0.4531
13298TIP3    H161309   2.419   3.064   3.311  0.1024 -0.3528  0.8231
13298TIP3    H261310   2.471   2.922   3.297 -1.3865 -0.9650  1.2717
13299TIP3   OH261311   1.648   0.279   0.159 -0.6126  0.0413  0.4499
13299TIP3    H161312   1.673   0.272   0.067  3.1605 -0.2974  1.3447
13299TIP3    H261313   1.646   0.189   0.190 -2.1648  0.1358  0.6876
13300TIP3   OH261314   5.096   6.185   5.137 -0.2966 -0.5694 -0.2031
13300TIP3    H161315   5.023   6.191   5.076  0.9444 -0.4595 -1.7409
13300TIP3    H261316   5.075   6.250   5.205 -0.9719  0.4507 -1.3420
13301TIP3   OH261317   5.893   4.011   4.119 -0.2113  0.3455 -0.3676
13301TIP3    H161318   5.906   3.920   4.093  1.4190  0.0348  1.3207
13301TIP3    H261319   5.805   4.013   4.157 -0.6887 -0.2596 -1.4130
13302TIP3   OH261320   1.299   1.423  14.715 -0.1203 -0.5224 -0.1233
13302TIP3    H161321   1.207   1.442  14.734 -0.0395  0.5694 -0.7149
13302TIP3    H261322   1.332   1.504  14.676  1.2249 -0.7422  0.5183
13303TIP3   OH261323   6.483   4.043  12.265 -0.6418 -0.3121  0.1101
13303TIP3    H161324   6.571   4.028  12.232 -0.2883  0.8246  0.5147
13303TIP3    H261325   6.437   4.085  12.192 -0.4485  0.3384  0.3577
13304TIP3   OH261326   3.010   2.169  12.083 -0.0191 -0.1330 -0.0535
13304TIP3    H161327   3.089   2.216  12.110  0.4034 -0.0089 -1.4388
13304TIP3    H261328   3.000   2.099  12.148  2.3658 -1.4049 -0.9629
13305TIP3   OH261329   0.360   1.078  11.997 -0.3897 -0.4274 -0.3812
13305TIP3    H161330   0.428   1.022  11.960 -0.4213  0.0889 -1.2339
13305TIP3    H261331   0.405   1.160  12.019 -0.8016  0.0598 -1.3128
13306TIP3   OH261332   3.716   2.608   3.337 -0.0755  0.1174  0.0370
13306TIP3    H161333   3.633   2.648   3.311 -0.2790 -0.3669 -0.0661
13306TIP3    H261334   3.765   2.599   3.256 -1.7748 -3.9103 -0.7910
13307TIP3   OH261335   1.129   3.006  15.187  0.3951 -0.2131 -0.1969
13307TIP3    H161336   1.210   3.029  15.140  1.3745 -0.8959  1.0968
13307TIP3    H261337   1.144   3.035  15.277 -0.2830 -1.4809  0.3484
13308TIP3   OH261338   5.406   3.600   3.823  0.2766 -0.0683 -0.6012
13308TIP3    H161339   5.316   3.573   3.806  0.3957  0.3164 -1.9091
13308TIP3    H261340   5.398   3.688   3.861  0.1411  0.9913 -2.9006
13309TIP3   OH261341   1.844   2.286  15.657  0.4577  0.1289 -0.2172
13309TIP3    H161342   1.914   2.332  15.705  1.8315 -0.2032 -1.8136
13309TIP3    H261343   1.774   2.276  15.722  1.5997  1.1016  1.2539
13310TIP3   OH261344   0.059   0.201  11.889 -0.1738  0.7880 -0.3430
13310TIP3    H161345   0.064   0.126  11.830 -1.0573 -0.9665  1.7071
13310TIP3    H261346   0.114   0.177  11.964  0.1342  2.5246  0.0379
13311TIP3   OH261347   6.053   5.203   0.558 -0.4910  0.4909 -0.8546
13311TIP3    H161348   6.003   5.121   0.559  0.4629 -0.1245  0.7906
13311TIP3    H261349   6.069   5.222   0.650 -0.4717  2.4231 -1.2211
13312TIP3   OH261350   2.811   2.790   2.438 -0.2822 -0.4530  0.2844
13312TIP3    H161351   2.795   2.866   2.383  0.9146 -1.1451 -1.1072
13312TIP3    H261352   2.728   2.741   2.436 -0.4854 -0.0952 -0.3233
13313TIP3   OH261353   1.663   0.330   0.504 -0.1209  0.4289 -0.2630
13313TIP3    H161354   1.747   0.363   0.472  1.2249 -0.9778  1.6529
13313TIP3    H261355   1.622   0.291   0.427  1.9403 -0.7518 -0.8253
13314TIP3   OH261356   2.022   5.161  12.254 -0.8111 -0.1922 -0.3955
13314TIP3    H161357   2.094   5.189  12.197 -0.6506  1.0129  0.3728
13314TIP3    H261358   2.062   5.100  12.316 -0.3695  0.7039  0.2183
13315TIP3   OH261359   1.658   2.036   1.998  0.1173  0.3077 -0.1855
13315TIP3    H161360   1.587   2.100   2.000  1.4583  1.9616 -1.6462
13315TIP3    H261361   1.733   2.083   2.036  0.6610 -1.1102  0.5722
13316TIP3   OH261362   1.455   0.468  15.941 -0.2667 -0.0143 -0.2160
13316TIP3    H161363   1.398   0.410  15.891  0.4490 -0.9739  0.0624
13316TIP3    H261364   1.401   0.545  15.958 -1.3987 -0.7929 -0.1782
13317TIP3   OH261365   0.915   5.787  17.162 -0.0539  0.8676  0.1916
13317TIP3    H161366   0.963   5.704  17.167  0.4730  1.1902  0.5466
13317TIP3    H261367   0.982   5.854  17.157 -0.4882  1.2498 -0.6457
13318TIP3   OH261368   2.715   0.804  12.933  0.4659  0.1227  0.3509
13318TIP3    H161369   2.761   0.753  12.866  0.4738  0.3643  0.1679
13318TIP3    H261370   2.768   0.795  13.011  0.2240 -0.5293  0.4495
13319TIP3   OH261371   3.654   1.460  12.832 -0.5658 -0.6158 -0.2259
13319TIP3    H161372   3.708   1.382  12.822 -1.5376 -1.4738  0.9356
13319TIP3    H261373   3.717   1.532  12.835  0.3644 -1.3554 -1.0454
13320TIP3   OH261374   0.920   1.371  10.973  0.0517  0.1083  0.6418
13320TIP3    H161375   0.901   1.432  11.044  0.1222 -0.1842  0.9127
13320TIP3    H261376   0.902   1.284  11.010  2.5501 -0.2666  1.1399
13321TIP3   OH261377   2.560   2.262  11.980 -0.2260  0.0010  0.1743
13321TIP3    H161378   2.634   2.257  12.040  1.3126  1.6429 -1.4798
13321TIP3    H261379   2.498   2.320  12.024  2.5796  4.6235 -1.2341
13322TIP3   OH261380   0.500   2.431  15.990  0.0216  0.2521  0.4265
13322TIP3    H161381   0.586   2.446  15.950  0.7588 -1.1457  1.4137
13322TIP3    H261382   0.438   2.449  15.919  1.0852  1.5542 -0.2290
13323TIP3   OH261383   1.026   0.020  12.982  0.3101  0.1430 -0.4054
13323TIP3    H161384   1.014  -0.075  12.982  0.7167  0.0830 -1.0403
13323TIP3    H261385   1.093   0.035  12.914 -1.4157  1.0744 -1.9891
13324TIP3   OH261386   5.270   1.043   4.606 -0.5336  0.0191  0.4009
13324TIP3    H161387   5.361   1.066   4.625 -0.8794  0.9999  0.9300
13324TIP3    H261388   5.238   1.003   4.687 -0.8301  0.4806  0.5115
13325TIP3   OH261389   2.870   6.345  15.473 -0.2623  0.2296  0.1720
13325TIP3    H161390   2.929   6.300  15.413 -1.0684 -0.9764  0.2506
13325TIP3    H261391   2.844   6.425  15.425 -1.1784 -0.8841 -1.2868
13326TIP3   OH261392   5.471   0.498  14.306  0.4580 -0.2989 -0.4460
13326TIP3    H161393   5.503   0.585  14.328  1.3871 -0.5616 -0.7171
13326TIP3    H261394   5.435   0.506  14.218  0.5053 -0.1741 -0.4534
13327TIP3   OH261395   4.221   0.603  12.293 -0.3902  0.1655 -0.2019
13327TIP3    H161396   4.238   0.547  12.217 -2.1951 -1.1970  0.3168
13327TIP3    H261397   4.248   0.690  12.266 -0.6995 -0.3406 -2.2952
13328TIP3   OH261398   1.162   1.733  13.646  0.1811  0.4413 -0.6439
13328TIP3    H161399   1.106   1.772  13.713  0.3526  2.5658 -1.6384
13328TIP3    H261400   1.207   1.662  13.691 -1.1279  0.5544  0.9585
13329TIP3   OH261401   0.707   4.042   2.585  0.9394  0.2119 -0.4053
13329TIP3    H161402   0.686   3.963   2.534  2.4704  0.5349 -1.6066
13329TIP3    H261403   0.728   4.010   2.672 -0.1861 -0.5152 -0.3726
13330TIP3   OH261404   0.726   3.714   1.673  0.5458 -0.0840 -0.1385
13330TIP3    H161405   0.693   3.661   1.600 -2.9686  0.9710  0.4831
13330TIP3    H261406   0.676   3.795   1.667 -0.0314 -0.0301  3.5573
13331TIP3   OH261407   5.757   0.189   6.742 -0.5747 -0.3121  0.3867
13331TIP3    H161408   5.784   0.268   6.788 -2.4142 -0.1241  1.2267
13331TIP3    H261409   5.779   0.117   6.801 -0.9319 -0.2442  0.6039
13332TIP3   OH261410   1.777   6.117   0.174 -0.6879  0.7020  0.1593
13332TIP3    H161411   1.787   6.186   0.109  1.2823  0.1957 -0.1413
13332TIP3    H261412   1.789   6.036   0.125  1.3228  0.3232  1.1671
13333TIP3   OH261413   2.069   4.374  11.443 -0.8890 -0.5717  0.2601
13333TIP3    H161414   2.007   4.409  11.379 -0.6356 -0.3273  0.1458
13333TIP3    H261415   2.146   4.431  11.436 -1.7462  0.9709  2.4621
13334TIP3   OH261416   5.345   4.852  12.853  0.3664  0.5318 -0.8794
13334TIP3    H161417   5.260   4.851  12.810  0.4884  2.1160 -1.2393
13334TIP3    H261418   5.400   4.907  12.796  1.6327 -0.4509 -0.6560
13335TIP3   OH261419   1.293   5.249  11.888  0.4264  0.2882 -0.0333
13335TIP3    H161420   1.364   5.224  11.947  0.8468  0.2454 -0.5526
13335TIP3    H261421   1.336   5.263  11.803 -0.0980  0.8376 -0.2108
13336TIP3   OH261422   5.733   0.105  14.816 -0.1399  0.6495 -0.3682
13336TIP3    H161423   5.665   0.144  14.870 -0.7856 -1.1563  0.2026
13336TIP3    H261424   5.696   0.023  14.785  1.6272 -0.2222 -0.3461
13337TIP3   OH261425   3.544   3.093  13.293  0.2418  0.1044  0.1634
13337TIP3    H161426   3.608   3.125  13.229 -0.4591  0.3313 -0.4311
13337TIP3    H261427   3.591   3.096  13.377  1.4336 -0.9366 -0.4363
13338TIP3   OH261428   4.452   4.588   2.113  0.2828  0.7132  0.3645
13338TIP3    H161429   4.541   4.552   2.119  0.4904  1.0616 -0.4337
13338TIP3    H261430   4.438   4.602   2.020  0.6724  3.7308  0.6551
13339TIP3   OH261431   2.179   4.517   0.955 -0.4260  0.3812  0.0145
13339TIP3    H161432   2.198   4.514   1.049 -2.3132  0.0921  0.4245
13339TIP3    H261433   2.227   4.594   0.924 -0.8512  1.2937  1.4998
13340TIP3   OH261434   4.179   2.369   4.116  0.4845  0.8779  0.1892
13340TIP3    H161435   4.089   2.340   4.106  0.7906 -0.0380 -0.0523
13340TIP3    H261436   4.186   2.447   4.061 -0.1984  1.0404  0.3351
13341TIP3   OH261437   2.022   1.229  10.919 -0.4595 -0.0051  0.6116
13341TIP3    H161438   1.959   1.302  10.922  1.1392  1.4421  0.6360
13341TIP3    H261439   2.086   1.256  10.853  1.9960  0.2215  2.9115
13342TIP3   OH261440   0.028   3.134  13.242 -0.2985  0.2203  0.3994
13342TIP3    H161441  -0.046   3.107  13.296  0.2766 -0.3333  0.9339
13342TIP3    H261442   0.056   3.053  13.199 -0.3457  0.5348 -0.2307
13343TIP3   OH261443   0.222   6.243  14.344 -0.6564 -0.0939 -0.2684
13343TIP3    H161444   0.223   6.271  14.253  1.2689  1.8047  0.2473
13343TIP3    H261445   0.279   6.167  14.347 -0.9125 -0.3015 -0.6754
13344TIP3   OH261446   4.913   1.524  12.393  0.1293 -0.4878 -0.6099
13344TIP3    H161447   5.000   1.556  12.415  0.0020 -0.6694  0.1873
13344TIP3    H261448   4.867   1.600  12.356  0.7213 -0.4767 -1.3452
13345TIP3   OH261449   3.174   2.442  17.201  0.4369 -0.6306 -0.6574
13345TIP3    H161450   3.211   2.431  17.289 -0.1096  2.3184  0.0500
13345TIP3    H261451   3.114   2.368  17.191 -0.9239 -0.0678  2.2859
13346TIP3   OH261452   6.118   4.077  15.484  0.0659  0.0980  0.3396
13346TIP3    H161453   6.204   4.076  15.443 -0.1379  1.2376 -0.1534
13346TIP3    H261454   6.103   3.986  15.510  0.1481 -0.7469 -2.2526
13347TIP3   OH261455   2.072   2.742  17.005  0.4907 -0.3351  0.1940
13347TIP3    H161456   2.085   2.775  17.094 -1.3829 -0.3009  0.4897
13347TIP3    H261457   2.056   2.821  16.953 -0.5959 -0.5055  0.2557
13348TIP3   OH261458   2.988   6.425   3.188  0.4679  0.2726  0.0263
13348TIP3    H161459   2.939   6.345   3.167  0.7023 -0.0297  0.5931
13348TIP3    H261460   2.986   6.476   3.108 -0.9578  0.3606  0.0927
13349TIP3   OH261461   1.284   1.519   5.435 -0.5675 -0.5648 -0.0647
13349TIP3    H161462   1.309   1.525   5.527  0.1974 -0.3032 -0.2854
13349TIP3    H261463   1.365   1.501   5.389 -0.4901  1.6550 -0.9451
13350TIP3   OH261464   0.681   2.055   2.058  0.0705  0.4665 -0.3883
13350TIP3    H161465   0.591   2.022   2.057 -0.2638  1.3411 -0.5916
13350TIP3    H261466   0.681   2.126   1.994  0.5598  1.3525  0.5599
13351TIP3   OH261467   4.735   6.163  11.123  0.4797  0.0640 -0.7329
13351TIP3    H161468   4.700   6.102  11.058  0.7830 -1.0471  0.1167
13351TIP3    H261469   4.804   6.114  11.167  1.6233  1.4677 -0.8900
13352TIP3   OH261470   0.247   3.033   5.156 -0.2618 -0.5608  0.0452
13352TIP3    H161471   0.241   2.949   5.111 -0.0408 -0.3742 -0.3363
13352TIP3    H261472   0.309   3.018   5.228  0.1805 -0.5864 -0.3386
13353TIP3   OH261473   2.744   4.661   2.104 -0.2194 -0.0054  0.0721
13353TIP3    H161474   2.830   4.624   2.122  0.0520 -0.2802 -1.6612
13353TIP3    H261475   2.690   4.586   2.080 -0.8825  0.2022  0.8784
13354TIP3   OH261476   5.696   2.320   5.041  0.2947  0.1662  0.4863
13354TIP3    H161477   5.695   2.238   5.090  3.3875 -1.2200 -1.4660
13354TIP3    H261478   5.622   2.313   4.981  0.6604 -1.3824  0.1679
13355TIP3   OH261479   0.436   5.906   4.921  0.3017  0.2991  0.3276
13355TIP3    H161480   0.429   5.910   4.826  0.4361  0.0811  0.3083
13355TIP3    H261481   0.497   5.975   4.944 -0.0504  0.6285  0.2919
13356TIP3   OH261482   0.774   5.289   2.427 -0.5117  0.6423 -0.2165
13356TIP3    H161483   0.844   5.311   2.488 -2.1974  2.3400  1.2004
13356TIP3    H261484   0.739   5.207   2.459  0.6667 -0.1475 -0.8522
13357TIP3   OH261485   1.153   6.026  15.336 -0.0284 -0.6794 -0.1398
13357TIP3    H161486   1.223   6.090  15.328  0.5774 -1.0753  1.5115
13357TIP3    H261487   1.168   5.965  15.264  0.7632 -0.2391 -0.3593
13358TIP3   OH261488   1.448   2.726   5.703 -0.1929 -0.0480 -0.0767
13358TIP3    H161489   1.406   2.646   5.734  1.0165 -0.4729  0.5488
13358TIP3    H261490   1.445   2.786   5.777 -1.6442  0.7353 -0.7382
13359TIP3   OH261491   2.367   0.398  13.251  0.1481  0.0117  0.0146
13359TIP3    H161492   2.352   0.327  13.314 -0.8942  0.6344  0.4870
13359TIP3    H261493   2.322   0.473  13.288  3.8453  1.8839  1.1547
13360TIP3   OH261494   6.362   2.464  11.716 -0.3084  0.4257 -0.5137
13360TIP3    H161495   6.375   2.420  11.800  1.6902  2.0213  0.0982
13360TIP3    H261496   6.386   2.399  11.650 -0.1088 -0.2710  0.2345
13361TIP3   OH261497   6.542   3.203   0.509  0.1959  0.4312  0.3014
13361TIP3    H161498   6.550   3.246   0.594 -0.8739  0.3661  0.4445
13361TIP3    H261499   6.506   3.117   0.529  2.1707 -0.5346  0.0087
13362TIP3   OH261500   5.195   3.898   2.903  0.0906 -0.0929 -0.3320
13362TIP3    H161501   5.139   3.824   2.926 -0.2354  0.9760  2.8482
13362TIP3    H261502   5.183   3.960   2.975  1.2244  2.5771 -2.2735
13363TIP3   OH261503   3.366   2.599   0.876  0.1669 -0.2710  0.4952
13363TIP3    H161504   3.416   2.660   0.930  1.5822 -0.6650 -0.3231
13363TIP3    H261505   3.352   2.523   0.931 -0.8062  0.4006  1.2112
13364TIP3   OH261506   2.350   0.435   0.341  0.0725 -0.1018  0.4915
13364TIP3    H161507   2.335   0.521   0.302  2.7115  0.1853 -0.1263
13364TIP3    H261508   2.396   0.385   0.273  3.7499 -0.0039  2.5958
13365TIP3   OH261509   2.858   5.661   4.401 -0.0443 -0.1616  0.0219
13365TIP3    H161510   2.820   5.748   4.386  2.4061  0.8176 -1.0496
13365TIP3    H261511   2.802   5.602   4.351 -1.5714  0.8121  0.5039
13366TIP3   OH261512   6.039   1.970  13.950 -0.3009 -0.0115 -0.1114
13366TIP3    H161513   5.995   2.020  13.881 -0.1590  0.1448 -0.0885
13366TIP3    H261514   6.126   1.953  13.916 -0.4053 -0.3859 -0.1867
13367TIP3   OH261515   0.913   2.890   1.130  1.0843  0.0404 -0.2055
13367TIP3    H161516   0.921   2.795   1.142 -0.3813 -0.0717  0.0408
13367TIP3    H261517   0.862   2.900   1.050 -1.6719  0.5090  1.4765
13368TIP3   OH261518   3.388   2.591   4.856  0.2182 -0.5422  0.1948
13368TIP3    H161519   3.445   2.516   4.873  0.5362 -0.6099 -1.1099
13368TIP3    H261520   3.431   2.640   4.786 -0.9655 -0.2074 -0.3364
13369TIP3   OH261521   1.773   4.248   3.779 -0.0432  0.2107 -0.3993
13369TIP3    H161522   1.745   4.339   3.790 -0.3063  0.1375 -0.4648
13369TIP3    H261523   1.847   4.253   3.718  0.9165  0.5419  0.7456
13370TIP3   OH261524   6.337   6.536  13.900  0.4489 -0.4101  0.1543
13370TIP3    H161525   6.297   6.585  13.972  1.7159  1.7991 -0.5213
13370TIP3    H261526   6.266   6.484  13.863 -0.6052 -0.2934  1.9251
13371TIP3   OH261527   1.600   6.616   6.103 -0.0023  0.4093  0.5239
13371TIP3    H161528   1.619   6.675   6.176  1.4915 -0.7159  1.1156
13371TIP3    H261529   1.598   6.673   6.026  1.3097  1.2818  1.0771
13372TIP3   OH261530   2.096   5.191  17.398 -0.2543 -0.1617 -0.4724
13372TIP3    H161531   2.167   5.191  17.334  0.9187 -0.2409  0.7915
13372TIP3    H261532   2.046   5.270  17.378 -0.7446 -0.8941 -2.3387
13373TIP3   OH261533   4.132   5.973   3.532  0.0545  0.2699  0.2151
13373TIP3    H161534   4.184   5.975   3.451  3.6830 -0.2608  2.2830
13373TIP3    H261535   4.099   6.062   3.542 -1.3561  0.1137 -2.2547
13374TIP3   OH261536   0.398   0.939  13.977 -0.9797  0.0022 -0.1493
13374TIP3    H161537   0.458   0.865  13.970  1.1039  1.7397 -2.5011
13374TIP3    H261538   0.374   0.960  13.886 -2.1960  1.6826  0.4904
13375TIP3   OH261539   1.842   4.398   2.824  0.2156  0.4388 -0.5079
13375TIP3    H161540   1.906   4.339   2.786  2.3166  1.5600  1.0404
13375TIP3    H261541   1.807   4.447   2.750  1.4907  0.0897 -1.3805
13376TIP3   OH261542   2.832   6.712  14.653  0.0806 -0.0052  0.8082
13376TIP3    H161543   2.827   6.652  14.728 -0.1504  0.3794  1.0996
13376TIP3    H261544   2.924   6.708  14.626 -0.0206 -0.8403  0.5308
13377TIP3   OH261545   3.745   3.394   3.219  0.2340 -0.2703  0.2464
13377TIP3    H161546   3.702   3.465   3.171 -0.0666  0.4821  1.5844
13377TIP3    H261547   3.683   3.370   3.288 -0.2801 -2.8116 -1.0008
13378TIP3   OH261548   3.865   4.012  13.350 -0.9038 -0.0993 -0.2222
13378TIP3    H161549   3.781   4.053  13.368 -0.4938  1.2851 -1.3091
13378TIP3    H261550   3.915   4.078  13.302  0.3814 -1.3162 -0.6442
13379TIP3   OH261551   2.833   0.643   6.060 -0.1846  0.6612 -0.2228
13379TIP3    H161552   2.834   0.575   5.992 -0.2353  0.4341  0.0001
13379TIP3    H261553   2.769   0.611   6.124  0.8343  0.1923  0.6124
13380TIP3   OH261554   4.935   1.522   0.448  0.6222  0.4885 -0.0062
13380TIP3    H161555   5.028   1.501   0.449  0.8772  1.5609 -0.4033
13380TIP3    H261556   4.913   1.529   0.355  0.3841  1.2619  0.1053
13381TIP3   OH261557   4.842   3.155   2.568 -0.2790 -0.6619 -0.3726
13381TIP3    H161558   4.848   3.096   2.493  0.9977 -0.1964 -0.6620
13381TIP3    H261559   4.907   3.123   2.630  0.9286  0.7909 -0.8180
13382TIP3   OH261560   6.274   0.561   5.502 -0.2308  0.3828  0.4763
13382TIP3    H161561   6.204   0.585   5.442  0.5757  1.3701 -0.1023
13382TIP3    H261562   6.280   0.635   5.564 -0.4854 -0.2323  1.2524
13383TIP3   OH261563   3.380   2.210   5.292  0.5990 -0.0237 -0.6826
13383TIP3    H161564   3.310   2.146   5.283 -0.1571  0.6910 -0.0630
13383TIP3    H261565   3.364   2.273   5.221  0.1121  0.5871 -0.0450
13384TIP3   OH261566   5.154   0.411   4.679  0.6394 -0.1108 -0.5631
13384TIP3    H161567   5.086   0.394   4.614  1.4154  0.1644 -1.4662
13384TIP3    H261568   5.234   0.426   4.628  1.3896 -0.4298  0.4733
13385TIP3   OH261569   5.623   4.233   5.403 -0.5782  0.0790  0.3455
13385TIP3    H161570   5.715   4.255   5.416 -0.8998  0.4267  2.3408
13385TIP3    H261571   5.625   4.147   5.360  0.6749 -0.0013  0.5327
13386TIP3   OH261572   5.555   3.501  14.148 -0.5768 -0.0138  0.5429
13386TIP3    H161573   5.571   3.524  14.240 -1.4279  1.2708  0.4029
13386TIP3    H261574   5.630   3.538  14.101 -0.5690  0.0849  0.6319
13387TIP3   OH261575   1.799   5.330   2.353 -0.1049  0.3529  0.1630
13387TIP3    H161576   1.771   5.318   2.444 -0.0397  3.6263  0.7334
13387TIP3    H261577   1.734   5.283   2.301 -2.4754  1.6522  1.7690
13388TIP3   OH261578   1.917   3.274  17.493  0.0231  0.5814 -0.4098
13388TIP3    H161579   1.879   3.238  17.573  0.4402  0.5410 -0.2262
13388TIP3    H261580   1.929   3.367  17.512  1.0325  0.3918 -0.0589
13389TIP3   OH261581   5.723   1.983  15.751 -0.3056 -0.3803  0.2827
13389TIP3    H161582   5.629   1.984  15.770 -0.2610 -0.3524  0.5038
13389TIP3    H261583   5.741   2.069  15.714 -1.2307 -1.8024 -4.0648
13390TIP3   OH261584   0.187   3.881  15.314  0.5550  0.0301  0.0055
13390TIP3    H161585   0.156   3.791  15.323  2.0754 -0.3643  2.0036
13390TIP3    H261586   0.124   3.923  15.255 -0.1908 -2.3208 -0.9860
13391TIP3   OH261587   5.963   2.230   5.329 -0.2068  0.2329 -0.1588
13391TIP3    H161588   5.890   2.210   5.270  0.4704 -1.6664 -0.3944
13391TIP3    H261589   5.935   2.310   5.374 -2.1132 -0.0480 -0.7458
13392TIP3   OH261590   5.414   1.349   0.953  0.4281  0.3841 -0.2922
13392TIP3    H161591   5.374   1.353   0.866  2.4681 -1.4679 -1.4419
13392TIP3    H261592   5.379   1.424   1.000 -2.1093  0.4633 -2.0981
13393TIP3   OH261593   0.103   6.425   3.049 -0.3290 -0.0996  0.6169
13393TIP3    H161594   0.164   6.383   3.110  2.2287 -0.5571 -2.0522
13393TIP3    H261595   0.137   6.513   3.038  0.4175 -0.6034 -1.5150
13394TIP3   OH261596   4.292   3.518   3.534 -0.4868 -0.2488  0.2605
13394TIP3    H161597   4.311   3.570   3.457  1.7750  0.3987  1.1592
13394TIP3    H261598   4.271   3.582   3.602 -1.1731 -0.7312  0.5152
13395TIP3   OH261599   3.467   4.958  16.406  0.2800 -0.2899  0.1696
13395TIP3    H161600   3.394   4.916  16.359 -0.2387  1.0622 -0.2942
13395TIP3    H261601   3.453   4.934  16.497 -0.5558 -0.3484  0.0429
13396TIP3   OH261602   1.021   1.495   4.634 -0.2373 -0.1072 -0.4812
13396TIP3    H161603   1.079   1.567   4.609 -0.1569 -0.7408 -2.1994
13396TIP3    H261604   0.948   1.538   4.677  1.3225  0.7296  1.5077
13397TIP3   OH261605   0.527   4.892   3.845 -0.0864  0.4920  0.2681
13397TIP3    H161606   0.478   4.886   3.927 -0.0493  1.0104  0.3310
13397TIP3    H261607   0.599   4.952   3.865  1.3084 -1.1920  0.5381
13398TIP3   OH261608   5.476   1.148  12.660  0.5700  0.1920  0.2345
13398TIP3    H161609   5.536   1.115  12.593 -1.5076 -0.6109 -1.3373
13398TIP3    H261610   5.408   1.080  12.667 -0.6303  1.4388  1.2775
13399TIP3   OH261611   4.296   3.517   0.784  0.1478  0.4848 -0.3758
13399TIP3    H161612   4.307   3.475   0.699 -0.2458 -0.3612 -0.0230
13399TIP3    H261613   4.282   3.444   0.845  0.9637  1.0395  0.5073
13400TIP3   OH261614   5.205   4.494   1.834  0.5803 -0.2653  0.6269
13400TIP3    H161615   5.121   4.489   1.787  0.8773  0.4895 -0.0059
13400TIP3    H261616   5.270   4.467   1.769  0.9145 -0.0337  0.8652
13401TIP3   OH261617   4.226   2.873  10.967  0.5582  0.6693  0.1171
13401TIP3    H161618   4.316   2.876  11.001  0.6482  1.3752 -0.1690
13401TIP3    H261619   4.178   2.820  11.031  1.3985 -0.5906 -0.2563
13402TIP3   OH261620   5.464   5.797  11.291 -0.6622  0.9166 -0.0409
13402TIP3    H161621   5.447   5.826  11.381 -0.9407 -0.8428  0.5074
13402TIP3    H261622   5.388   5.829  11.241 -1.2880  0.5550  0.6645
13403TIP3   OH261623   2.339   1.693   1.521 -0.2448  0.4951 -0.2482
13403TIP3    H161624   2.258   1.652   1.552 -0.5431  0.8205 -0.5772
13403TIP3    H261625   2.339   1.676   1.426  1.0595 -1.2047  0.0053
13404TIP3   OH261626   4.902   4.727   1.625  0.8239 -0.0989 -0.7068
13404TIP3    H161627   4.883   4.811   1.583 -0.4035 -0.3441 -0.6798
13404TIP3    H261628   4.831   4.669   1.597 -0.2355 -0.1895  1.9090
13405TIP3   OH261629   5.478   4.155  13.644 -1.0326  0.1256 -0.3457
13405TIP3    H161630   5.569   4.140  13.669 -1.7503 -0.1683  2.4779
13405TIP3    H261631   5.433   4.074  13.668 -2.2674  0.7895 -0.3546
13406TIP3   OH261632   0.008   0.309   1.012 -0.0113  0.4143  0.0802
13406TIP3    H161633   0.041   0.383   1.062 -0.9947  1.2813 -0.5252
13406TIP3    H261634  -0.087   0.313   1.024 -0.1030 -0.5438 -0.2455
13407TIP3   OH261635   2.926   6.577   0.007 -0.0890 -0.5243  0.3793
13407TIP3    H161636   2.936   6.576  -0.088 -1.1825  1.1292  0.2019
13407TIP3    H261637   2.832   6.589   0.021  0.2221  0.6621  1.6422
13408TIP3   OH261638   1.490   2.136  15.555  0.1073  0.5900 -0.1087
13408TIP3    H161639   1.491   2.046  15.522 -1.3532  0.7217 -0.5874
13408TIP3    H261640   1.496   2.190  15.476 -0.8096  0.9020  0.0218
13409TIP3   OH261641   3.866   2.549   6.069  0.0016  0.4622  0.1323
13409TIP3    H161642   3.795   2.586   6.122 -0.1566 -0.9892  1.0087
13409TIP3    H261643   3.945   2.564   6.121  0.2255  1.3045 -0.4367
13410TIP3   OH261644   6.657   0.154   2.415  0.5805 -0.1470 -0.4814
13410TIP3    H161645   6.587   0.095   2.441 -0.9545  1.8562  0.2019
13410TIP3    H261646   6.699   0.179   2.497 -2.2689  3.7395  0.1073
13411TIP3   OH261647   4.621   1.786   3.187 -0.2209  0.5680  0.3945
13411TIP3    H161648   4.670   1.752   3.112 -0.8341  0.2624  0.1248
13411TIP3    H261649   4.531   1.755   3.174 -0.1275 -0.3917  1.7982
13412TIP3   OH261650   3.986   4.221  15.235  0.3407 -0.4498  0.4420
13412TIP3    H161651   4.059   4.185  15.185  1.2250  0.0696  1.3340
13412TIP3    H261652   3.936   4.272  15.171  0.8943 -0.6036 -0.1187
13413TIP3   OH261653   0.406   3.452   1.432  0.3600 -1.3074 -0.0460
13413TIP3    H161654   0.408   3.547   1.437 -2.4724 -1.1673  0.3086
13413TIP3    H261655   0.465   3.423   1.501 -0.7935  0.2570  1.6871
13414TIP3   OH261656   6.601   4.187   5.022 -0.0026  0.1309 -0.1606
13414TIP3    H161657   6.677   4.158   5.072 -1.0131 -1.8270  0.3237
13414TIP3    H261658   6.526   4.162   5.076 -1.1015 -1.0998 -2.1464
13415TIP3   OH261659   4.052   4.092   1.180 -0.9414 -0.8486  0.4362
13415TIP3    H161660   3.965   4.076   1.217 -0.4598 -0.8242  1.6212
13415TIP3    H261661   4.113   4.073   1.251 -0.0629  0.9383  0.2357
13416TIP3   OH261662   6.599   5.932  14.894 -0.5629 -0.5511 -0.0417
13416TIP3    H161663   6.649   6.000  14.940  0.5734 -0.3304 -1.5084
13416TIP3    H261664   6.666   5.877  14.853 -1.5220 -0.9409 -1.1275
13417TIP3   OH261665   3.808   2.025   1.100  0.6570 -0.2975  0.0496
13417TIP3    H161666   3.833   1.998   1.012  0.8489  0.1833 -0.0485
13417TIP3    H261667   3.772   2.113   1.089 -1.6358 -1.1588  0.1151
13418TIP3   OH261668   5.679   0.224   4.935  0.2319  0.2580 -0.3444
13418TIP3    H161669   5.758   0.212   4.987 -0.2453  1.1977  0.6697
13418TIP3    H261670   5.640   0.137   4.929 -0.8193  0.3750  2.8156
13419TIP3   OH261671   2.762   5.810  17.365  0.2364  0.5143 -0.0333
13419TIP3    H161672   2.805   5.868  17.428  1.7190 -0.8212  0.2282
13419TIP3    H261673   2.832   5.780  17.308  0.0792 -3.0374  1.3964
13420TIP3   OH261674   4.177   4.744   4.447  0.3859 -0.1596  0.0934
13420TIP3    H161675   4.176   4.743   4.351 -1.1626 -0.4953  0.0893
13420TIP3    H261676   4.259   4.788   4.470  0.8283 -0.1669 -1.3761
13421TIP3   OH261677   3.041   5.140  14.286  0.0697 -0.0508  0.1115
13421TIP3    H161678   2.997   5.081  14.347  0.4316 -0.9976 -0.5241
13421TIP3    H261679   3.090   5.082  14.227 -1.2998  0.7240 -1.9184
13422TIP3   OH261680   2.528   2.583   3.547 -0.7925 -0.1060 -0.1812
13422TIP3    H161681   2.565   2.513   3.492  1.6156  1.2858 -0.4706
13422TIP3    H261682   2.445   2.605   3.505 -0.5138 -1.2335 -1.4150
13423TIP3   OH261683   6.715   4.813   4.722  0.4913 -0.5777 -0.0909
13423TIP3    H161684   6.758   4.765   4.652  2.6713  0.5305  0.3809
13423TIP3    H261685   6.647   4.864   4.679  1.7325  0.0151 -1.4373
13424TIP3   OH261686   4.998   3.311   0.387  0.9727 -0.6130 -0.1483
13424TIP3    H161687   4.995   3.368   0.310  0.1831 -0.3279  0.0817
13424TIP3    H261688   4.907   3.303   0.414  1.0732 -1.9475 -0.1342
13425TIP3   OH261689   2.429   5.666  13.709 -0.0130  0.2287  0.4172
13425TIP3    H161690   2.436   5.657  13.614 -0.8465  0.5481  0.3198
13425TIP3    H261691   2.484   5.596  13.744 -0.6992 -0.6865 -0.3064
13426TIP3   OH261692   0.750   1.997  15.873  0.2181 -0.0004 -0.1576
13426TIP3    H161693   0.680   2.063  15.879 -0.1973 -0.3434 -0.9678
13426TIP3    H261694   0.704   1.916  15.853  0.9487  0.1469 -2.9176
13427TIP3   OH261695   2.371   6.086  12.508 -0.2087 -0.2006  0.1647
13427TIP3    H161696   2.276   6.077  12.509 -0.1280 -1.2092 -0.3502
13427TIP3    H261697   2.404   5.996  12.503  0.8394 -0.0685  3.0721
13428TIP3   OH261698   0.938   1.476  12.537  0.3547  0.1718 -0.0636
13428TIP3    H161699   0.983   1.481  12.453  0.2371  3.2866 -0.0534
13428TIP3    H261700   0.999   1.514  12.600 -0.4705  0.0753  0.8246
13429TIP3   OH261701   0.998   2.891  17.398 -0.1944 -0.3170  0.0777
13429TIP3    H161702   0.987   2.800  17.369 -0.0979 -0.0390 -0.8692
13429TIP3    H261703   1.023   2.938  17.319 -2.7927  1.0331 -0.0702
13430TIP3   OH261704   5.609   2.964   1.187  0.2261 -0.6864  0.3918
13430TIP3    H161705   5.587   2.872   1.201  1.2388 -1.0888 -0.5312
13430TIP3    H261706   5.549   2.993   1.118 -0.6000 -0.4249  1.1992
13431TIP3   OH261707   1.947   4.372  16.567 -0.1185  0.2637 -0.0166
13431TIP3    H161708   1.907   4.436  16.626 -1.6235  0.8158 -1.5423
13431TIP3    H261709   1.877   4.310  16.547  0.6383 -0.4629 -0.4760
13432TIP3   OH261710   2.198   0.800   2.631  0.3893  0.0128 -0.2167
13432TIP3    H161711   2.112   0.763   2.651  0.7178 -0.3309  0.5886
13432TIP3    H261712   2.255   0.724   2.621  0.5459  0.2326 -1.0174
13433TIP3   OH261713   2.416   2.033   0.732  0.7094 -0.1091  0.2608
13433TIP3    H161714   2.387   2.070   0.648 -1.9260  0.3781  1.2959
13433TIP3    H261715   2.469   1.957   0.707 -0.7196 -0.5177 -1.8895
13434TIP3   OH261716   0.488   1.299  17.448  0.1641  0.0062  0.2811
13434TIP3    H161717   0.471   1.356  17.522  1.2082  0.6521  0.0456
13434TIP3    H261718   0.414   1.314  17.389  0.4022  1.1062  0.2375
13435TIP3   OH261719   0.465   2.032  14.867 -0.5747  0.8936  0.0452
13435TIP3    H161720   0.383   2.054  14.909  0.2092  0.6741  1.7656
13435TIP3    H261721   0.474   2.096  14.796 -2.9148 -0.0203 -1.1609
13436TIP3   OH261722   6.627   5.121  10.479  0.0256 -0.8680 -0.0789
13436TIP3    H161723   6.647   5.205  10.520  2.5501 -0.8037 -1.2663
13436TIP3    H261724   6.637   5.057  10.549 -0.9944 -0.2821  0.6181
13437TIP3   OH261725   3.223   3.194  15.924 -0.2670 -0.3875  0.0479
13437TIP3    H161726   3.273   3.168  15.847 -0.8234 -2.6698  0.3947
13437TIP3    H261727   3.132   3.194  15.895 -0.2571  2.1831 -0.1652
13438TIP3   OH261728   6.535   1.988  12.513  0.1669  0.4614 -0.1500
13438TIP3    H161729   6.519   2.014  12.604  0.8123  0.8311 -0.1389
13438TIP3    H261730   6.465   2.030  12.464 -1.7412 -1.7572  0.4472
13439TIP3   OH261731   1.236   0.005   0.981  0.2251 -1.2257  0.3560
13439TIP3    H161732   1.296  -0.019   0.910 -0.1407  1.2427 -0.8897
13439TIP3    H261733   1.273   0.085   1.018 -1.8963 -0.0077 -0.0018
13440TIP3   OH261734   6.712   5.920  11.176  0.3939  0.6800 -0.1277
13440TIP3    H161735   6.631   5.878  11.148  0.5082 -1.3929  2.2877
13440TIP3    H261736   6.687   5.971  11.253  1.5173 -0.9152  1.3487
13441TIP3   OH261737   5.683   5.251  14.259 -1.0079 -0.1159 -0.2441
13441TIP3    H161738   5.602   5.295  14.234 -0.0794  1.1634 -1.1254
13441TIP3    H261739   5.723   5.226  14.176  0.4664  1.0960  0.0542
13442TIP3   OH261740   1.791   2.885   2.119 -0.0608 -0.1243  0.1902
13442TIP3    H161741   1.851   2.906   2.047  1.3846  0.0017  1.3804
13442TIP3    H261742   1.826   2.933   2.194 -0.3999 -1.7302  1.4312
13443TIP3   OH261743   4.353   3.175  15.431  0.4324 -0.8945 -0.4934
13443TIP3    H161744   4.368   3.211  15.343  0.1289 -1.6924 -0.8883
13443TIP3    H261745   4.365   3.249  15.490 -0.7082 -0.0026 -1.3183
13444TIP3   OH261746   2.283   0.473   2.398  0.0667 -0.3618 -0.3621
13444TIP3    H161747   2.204   0.421   2.415 -2.1587  2.5686 -0.9982
13444TIP3    H261748   2.256   0.564   2.412  3.5075  0.7691 -0.1127
13445TIP3   OH261749   0.455   2.274  16.883  0.0098  0.0495 -0.0753
13445TIP3    H161750   0.495   2.361  16.891 -0.8503  0.5649 -1.2317
13445TIP3    H261751   0.366   2.291  16.851 -0.2941 -1.2441  0.0311
13446TIP3   OH261752   4.390   1.631   3.126 -0.3913 -0.3861 -0.8472
13446TIP3    H161753   4.349   1.619   3.040 -0.9163  0.4535 -0.7322
13446TIP3    H261754   4.318   1.624   3.188  0.0860 -1.6097 -0.4085
13447TIP3   OH261755   0.743   4.709   4.745  0.0844 -0.5345 -0.4460
13447TIP3    H161756   0.822   4.689   4.795  1.3832  1.6312 -1.4666
13447TIP3    H261757   0.678   4.736   4.810  0.9748 -0.0713  0.2626
13448TIP3   OH261758   5.427   3.599  11.762 -0.2907 -0.2720  0.3922
13448TIP3    H161759   5.430   3.660  11.689 -0.5400 -1.0318 -0.2749
13448TIP3    H261760   5.506   3.546  11.753 -0.3979 -0.4706  0.5784
13449TIP3   OH261761   4.312   4.534   4.786  0.1694 -0.3559  0.1624
13449TIP3    H161762   4.293   4.494   4.701 -0.0910 -0.6558  0.3587
13449TIP3    H261763   4.228   4.538   4.830  0.6716 -2.8276  1.5331
13450TIP3   OH261764   0.963   5.454  13.317 -0.0525 -0.1120  0.0987
13450TIP3    H161765   1.027   5.448  13.388  0.0400 -0.6570 -0.0205
13450TIP3    H261766   0.906   5.378  13.331 -1.3618  0.9493  0.8485
13451TIP3   OH261767   3.943   2.848  17.181 -0.1839  0.4652  0.3182
13451TIP3    H161768   3.994   2.814  17.108  1.2441  1.3867  0.8247
13451TIP3    H261769   3.866   2.791  17.186  1.0298 -1.3226 -0.1867
13452TIP3   OH261770   4.204   3.028  12.334 -0.5450  0.1767 -0.3012
13452TIP3    H161771   4.167   3.116  12.325  0.2274  0.4498 -0.9454
13452TIP3    H261772   4.280   3.029  12.276 -0.4621 -0.8814 -0.2167
13453TIP3   OH261773   3.516   2.541  12.413 -0.8138 -0.8014  0.3355
13453TIP3    H161774   3.537   2.602  12.343  2.5605 -2.5048 -0.3681
13453TIP3    H261775   3.564   2.574  12.489 -0.8945 -1.3156  0.6159
13454TIP3   OH261776   3.504   1.784  16.759 -0.7205  0.8156 -0.0644
13454TIP3    H161777   3.418   1.811  16.792  0.3879  1.7856  2.2486
13454TIP3    H261778   3.553   1.865  16.748 -0.3247  0.3613 -2.3012
13455TIP3   OH261779   1.144   2.671   0.124 -0.4596  0.4405 -0.4935
13455TIP3    H161780   1.178   2.615   0.194  1.6678  4.6976  2.3973
13455TIP3    H261781   1.049   2.675   0.141 -0.0233  1.2963  2.3489
13456TIP3   OH261782   3.524   5.855  14.927  0.2932 -0.6383  0.1455
13456TIP3    H161783   3.514   5.849  15.022  0.4277 -1.9606  0.0930
13456TIP3    H261784   3.533   5.765  14.898  0.2840 -0.2499 -1.1316
13457TIP3   OH261785   5.197   2.731  12.145  0.6115  0.3447 -0.2081
13457TIP3    H161786   5.246   2.715  12.226  1.2728 -0.6419 -0.7790
13457TIP3    H261787   5.236   2.810  12.109  2.8822 -1.1829 -1.3858
13458TIP3   OH261788   1.332   0.681   3.989 -0.1479 -0.0054 -0.5216
13458TIP3    H161789   1.322   0.642   3.903  0.1056  0.4080 -0.7446
13458TIP3    H261790   1.419   0.653   4.019 -0.2232 -0.1239 -0.4129
13459TIP3   OH261791   6.142   5.301  10.556  0.3211  0.2407  0.2195
13459TIP3    H161792   6.124   5.380  10.505  0.4051 -2.6343 -4.9706
13459TIP3    H261793   6.226   5.270  10.522 -0.0426 -2.4486  1.5280
13460TIP3   OH261794   1.866   2.538   1.701 -0.1386  0.1545 -0.7580
13460TIP3    H161795   1.916   2.533   1.619  0.9183  1.3981 -0.2337
13460TIP3    H261796   1.781   2.573   1.674  0.8947  2.6227 -1.1489
13461TIP3   OH261797   1.731   3.437   1.170  0.7368 -0.2509  0.4428
13461TIP3    H161798   1.765   3.478   1.090 -1.4293  0.7280 -0.0226
13461TIP3    H261799   1.708   3.510   1.227  0.7179 -0.9221  1.3212
13462TIP3   OH261800   5.826   2.265   2.894  0.0291 -0.0811 -0.3397
13462TIP3    H161801   5.840   2.229   2.806 -1.1414 -1.9789  0.1939
13462TIP3    H261802   5.853   2.195   2.953 -0.9622  0.4431  0.7818
13463TIP3   OH261803   3.065   5.466  10.288  0.0037 -0.0336 -0.4015
13463TIP3    H161804   3.053   5.524  10.213  0.2473  0.8821  0.2507
13463TIP3    H261805   3.038   5.379  10.256 -0.2754  0.4133 -1.4171
13464TIP3   OH261806   2.275   5.962  15.207  0.2797 -0.2153 -0.5076
13464TIP3    H161807   2.214   6.034  15.214  0.5518 -0.0664  0.5007
13464TIP3    H261808   2.262   5.927  15.118 -2.2046 -1.0449  0.1244
13465TIP3   OH261809   5.123   0.396  16.556 -0.0493  0.6265  0.8101
13465TIP3    H161810   5.093   0.467  16.499 -0.1590 -0.1759 -0.1536
13465TIP3    H261811   5.071   0.407  16.636  0.0641  1.7334  0.7480
13466TIP3   OH261812   6.501   1.702   4.544 -0.1461  0.0941 -0.0938
13466TIP3    H161813   6.419   1.674   4.502 -0.6428  2.1947 -0.6311
13466TIP3    H261814   6.506   1.648   4.623 -1.3491 -1.0166 -0.7354
13467TIP3   OH261815   6.518   1.578  15.476  0.2855 -0.1916  0.2426
13467TIP3    H161816   6.468   1.534  15.408 -0.2391 -0.4851  0.8083
13467TIP3    H261817   6.606   1.540  15.470 -0.3082 -1.8248  1.1345
13468TIP3   OH261818   2.493   3.162   2.092 -0.2772 -0.1765  0.2243
13468TIP3    H161819   2.436   3.089   2.116 -0.0669 -0.3102  0.3170
13468TIP3    H261820   2.514   3.146   2.000  0.6886 -0.8544  0.5499
13469TIP3   OH261821   1.632   6.569   2.720  0.3864  0.5336  0.6235
13469TIP3    H161822   1.608   6.526   2.638  0.9601 -0.9890  1.2252
13469TIP3    H261823   1.659   6.657   2.694  0.6949  0.0274 -0.8374
13470TIP3   OH261824   5.833   5.141   2.220 -0.8535 -0.3488  0.4868
13470TIP3    H161825   5.909   5.178   2.264 -0.7243  2.2712 -1.6790
13470TIP3    H261826   5.763   5.205   2.236 -1.6179 -0.9039 -0.5461
13471TIP3   OH261827   5.434   1.661  15.822 -0.5651 -0.2269 -0.2701
13471TIP3    H161828   5.448   1.755  15.820  0.6748 -0.3985 -1.1263
13471TIP3    H261829   5.484   1.630  15.897 -1.1773 -0.1989  0.1644
13472TIP3   OH261830   0.583   3.693   3.338 -0.2856  0.0374 -0.5141
13472TIP3    H161831   0.670   3.732   3.345 -0.5398  0.4669  0.5214
13472TIP3    H261832   0.537   3.725   3.415 -1.4994  0.1608 -1.2640
13473TIP3   OH261833   4.241   3.866  14.514 -0.0689  0.1620 -0.6966
13473TIP3    H161834   4.243   3.904  14.426  2.9268  0.2481 -0.6865
13473TIP3    H261835   4.293   3.786  14.507  0.6996  0.4483  1.0961
13474TIP3   OH261836   3.612   3.643   3.188  0.3470 -0.1858 -0.5453
13474TIP3    H161837   3.646   3.723   3.226  0.9866 -0.5147 -0.4059
13474TIP3    H261838   3.541   3.617   3.247 -1.2598  1.3498 -1.7023
13475TIP3   OH261839   5.292   2.621   1.145  0.4540  0.1969  0.1571
13475TIP3    H161840   5.371   2.664   1.175  1.3803 -0.7768 -0.8113
13475TIP3    H261841   5.247   2.594   1.225  0.7236  1.3879  0.7260
13476TIP3   OH261842   2.753   4.956  12.080  0.4871 -0.1023  0.1731
13476TIP3    H161843   2.694   4.880  12.077 -2.6508  2.1811 -0.6762
13476TIP3    H261844   2.737   4.994  12.166  3.1496 -1.0420  1.2098
13477TIP3   OH261845   5.266   5.078  15.383  0.0666 -0.0917 -0.1517
13477TIP3    H161846   5.189   5.114  15.428  0.9249  0.0338  1.2929
13477TIP3    H261847   5.264   4.985  15.404  0.2226 -0.1130 -0.2340
13478TIP3   OH261848   2.027   6.258  16.370 -0.1206  0.2907 -0.2964
13478TIP3    H161849   2.113   6.279  16.407 -0.6808  0.0556  1.2323
13478TIP3    H261850   1.999   6.181  16.419 -1.4631  0.7373 -0.3183
13479TIP3   OH261851   6.261   6.417  10.683 -0.0936 -0.2319  0.4693
13479TIP3    H161852   6.348   6.452  10.667 -0.0121 -0.6142  0.0817
13479TIP3    H261853   6.202   6.476  10.636  0.0915 -0.9679 -0.7109
13480TIP3   OH261854   4.255   2.722  13.857  0.3000  0.1140 -0.4948
13480TIP3    H161855   4.332   2.743  13.910  0.6448  0.4562 -1.1112
13480TIP3    H261856   4.221   2.641  13.895 -0.1053  0.9233  0.9158
13481TIP3   OH261857   2.952   2.315  12.700 -0.3819 -0.4252 -0.4522
13481TIP3    H161858   2.950   2.239  12.758 -1.2226 -0.1396 -0.0829
13481TIP3    H261859   3.026   2.299  12.641  0.7744 -0.5074  0.9775
13482TIP3   OH261860   0.744   3.107   1.948  0.0729  0.0906 -0.1939
13482TIP3    H161861   0.696   3.027   1.966  0.8744 -0.0542  1.5135
13482TIP3    H261862   0.682   3.177   1.966 -0.5405 -0.1223 -1.4099
13483TIP3   OH261863   2.642   1.708   1.837 -0.0572 -0.2721 -0.1860
13483TIP3    H161864   2.564   1.749   1.872  0.7949 -0.3898  1.9967
13483TIP3    H261865   2.616   1.617   1.820 -0.6232 -0.0829 -0.3460
13484TIP3   OH261866   0.463   3.065   4.248 -0.4680 -0.0403 -0.4071
13484TIP3    H161867   0.371   3.092   4.242 -0.4114  0.1921 -0.2302
13484TIP3    H261868   0.511   3.131   4.200 -0.3548  0.0394 -0.1862
13485TIP3   OH261869   3.669   3.183   2.876 -0.1752 -0.2447  0.2170
13485TIP3    H161870   3.575   3.164   2.873 -0.2740  0.2903 -0.6923
13485TIP3    H261871   3.699   3.147   2.959 -0.8811 -1.8214 -0.1843
13486TIP3   OH261872   1.153   1.989  13.973  0.0307 -0.1572  0.3165
13486TIP3    H161873   1.070   2.009  14.017  0.3152  0.1482  0.7199
13486TIP3    H261874   1.130   1.985  13.880 -0.1505  1.5225  0.2587
13487TIP3   OH261875   5.049   4.771   5.101  0.6488 -0.3522 -0.1118
13487TIP3    H161876   5.037   4.751   5.008 -0.4026  0.2813 -0.1330
13487TIP3    H261877   4.997   4.851   5.115 -0.1927 -1.1041  1.2749
13488TIP3   OH261878   3.963   1.596   3.377  0.6228 -0.2554 -0.3086
13488TIP3    H161879   3.873   1.612   3.407 -0.0400 -1.2993 -1.6206
13488TIP3    H261880   3.977   1.660   3.308  1.7977  1.4985  1.4582
13489TIP3   OH261881   6.225   0.964   1.104 -0.5930 -0.0084  0.2637
13489TIP3    H161882   6.237   0.908   1.181  1.5079 -0.5105 -0.3519
13489TIP3    H261883   6.154   1.024   1.128  0.0827 -0.0600  2.6555
13490TIP3   OH261884   2.317   4.314   0.299 -0.3874  0.0870  0.1888
13490TIP3    H161885   2.366   4.393   0.277  1.7720 -0.8958  1.2116
13490TIP3    H261886   2.292   4.326   0.390  2.8471 -1.6757  1.4733
13491TIP3   OH261887   6.081   6.140  14.413 -0.3854 -0.4467 -0.0929
13491TIP3    H161888   6.028   6.182  14.480  0.9126 -1.6610  1.7921
13491TIP3    H261889   6.142   6.208  14.385  0.3262 -0.4211  1.4090
13492TIP3   OH261890   2.194   1.540   2.072 -0.0104 -0.3824 -0.4504
13492TIP3    H161891   2.158   1.597   2.139  1.5259 -0.1154  0.1852
13492TIP3    H261892   2.265   1.590   2.032  2.2267 -2.2236  0.9733
13493TIP3   OH261893   5.149   2.087  12.513  0.4851 -0.2000  0.4278
13493TIP3    H161894   5.194   2.153  12.459 -0.2696  0.0365  0.0820
13493TIP3    H261895   5.158   2.006  12.462 -1.7985  0.3615 -1.0074
13494TIP3   OH261896   0.096   4.051  12.552  0.5089  0.0211  0.1959
13494TIP3    H161897   0.030   3.983  12.543  1.2738 -0.7179  0.0869
13494TIP3    H261898   0.166   4.010  12.604  0.1486  1.3214  1.7898
13495TIP3   OH261899   5.822   2.203  14.920  0.1461  0.3141  0.3193
13495TIP3    H161900   5.743   2.192  14.972 -0.3797 -1.2770 -0.7500
13495TIP3    H261901   5.831   2.121  14.872  2.9175  0.1158  1.0068
13496TIP3   OH261902   3.824   3.497  12.124  0.0871  0.1678  0.0612
13496TIP3    H161903   3.740   3.477  12.082 -0.1428 -0.6401  0.8594
13496TIP3    H261904   3.812   3.467  12.215  0.6478  1.6224  0.6331
13497TIP3   OH261905   0.536   4.101   2.273  0.3499  0.3192 -0.4247
13497TIP3    H161906   0.561   4.190   2.251  3.2744 -0.2538  0.0936
13497TIP3    H261907   0.561   4.091   2.365  0.7370 -1.2295 -0.6681
13498TIP3   OH261908   4.737   6.571  15.828 -0.0664  0.1390  0.2153
13498TIP3    H161909   4.797   6.497  15.828 -0.2206 -0.0074 -0.9819
13498TIP3    H261910   4.687   6.562  15.909 -0.0358 -1.0195  0.1138
13499TIP3   OH261911   2.416   2.795   6.313 -0.2393 -0.3526 -0.0028
13499TIP3    H161912   2.408   2.700   6.322 -1.0617 -0.4922 -1.7212
13499TIP3    H261913   2.328   2.825   6.292  0.2464  0.6027 -0.7922
13500TIP3   OH261914   5.042   6.611   0.642 -0.0577  0.0662  0.5810
13500TIP3    H161915   5.022   6.655   0.560  1.0118  1.3879  0.9945
13500TIP3    H261916   5.084   6.528   0.615  1.8102  1.2109 -0.2575
13501TIP3   OH261917   5.735   2.771   3.687 -0.2869  1.1404 -0.1767
13501TIP3    H161918   5.736   2.863   3.659 -0.3829  1.8260  1.8958
13501TIP3    H261919   5.662   2.766   3.748 -0.0365 -0.2337  0.0362
13502TIP3   OH261920   3.701   4.938  14.417  0.0167  0.3341 -0.3693
13502TIP3    H161921   3.795   4.919  14.411 -0.0244 -0.3675  0.7990
13502TIP3    H261922   3.697   5.024  14.458  0.1659 -0.0703  0.5331
13503TIP3   OH261923   3.421   2.871  12.033 -0.3731  0.1728  0.4669
13503TIP3    H161924   3.372   2.952  12.047 -0.9523 -0.3712  1.8624
13503TIP3    H261925   3.396   2.816  12.107  0.2250 -1.1755 -0.3031
13504TIP3   OH261926   0.604   6.172  15.288 -0.6604 -0.4134 -0.5597
13504TIP3    H161927   0.646   6.170  15.374  0.0806 -2.6329 -0.8886
13504TIP3    H261928   0.516   6.206  15.304 -0.7097 -1.2806  1.1865
13505TIP3   OH261929   6.450   6.592   3.713 -0.0722 -0.3822 -0.5896
13505TIP3    H161930   6.466   6.675   3.758 -1.0080  0.1152 -1.1339
13505TIP3    H261931   6.374   6.610   3.657 -1.7417 -2.2154  0.9360
13506TIP3   OH261932   1.388   5.964   0.138 -0.4662  0.1007  0.3807
13506TIP3    H161933   1.379   6.015   0.219 -1.2400 -2.0155  1.7015
13506TIP3    H261934   1.301   5.930   0.121  0.0399 -0.8423 -0.4181
13507TIP3   OH261935   5.520   2.688   4.906  0.1251 -0.1503 -0.7657
13507TIP3    H161936   5.537   2.604   4.863  0.8392 -0.3289 -0.1544
13507TIP3    H261937   5.427   2.704   4.892  0.2018 -0.5460 -1.7664
13508TIP3   OH261938   3.629   5.719   5.176  0.1952 -0.2612  0.6698
13508TIP3    H161939   3.637   5.749   5.266  0.8538  1.5568  0.0368
13508TIP3    H261940   3.676   5.635   5.174 -0.9996 -1.0187  2.2927
13509TIP3   OH261941   2.963   2.551   5.646  0.2251  0.0235  0.3179
13509TIP3    H161942   2.985   2.509   5.729  0.2188  0.2369  0.4306
13509TIP3    H261943   2.902   2.621   5.670  2.4543  2.0480  0.5825
13510TIP3   OH261944   5.512   2.175   5.363 -0.2034  0.1662 -0.1143
13510TIP3    H161945   5.570   2.156   5.437 -0.7660  2.4021  0.9765
13510TIP3    H261946   5.570   2.178   5.287  0.4762 -1.5322  0.2936
13511TIP3   OH261947   6.566   4.833  11.116 -0.0410 -0.0034 -0.5507
13511TIP3    H161948   6.644   4.865  11.161 -0.5726  0.5646  0.0062
13511TIP3    H261949   6.557   4.890  11.040  1.2390 -1.3977 -1.7836
13512TIP3   OH261950   1.427   6.228  14.696 -0.2549  0.0826  0.3293
13512TIP3    H161951   1.385   6.163  14.640  1.2448  1.1472 -2.1922
13512TIP3    H261952   1.521   6.213  14.684  0.1177  1.0689  1.7615
13513TIP3   OH261953   4.761   2.675  11.523 -0.1040  0.2762  0.1652
13513TIP3    H161954   4.666   2.673  11.534 -0.1027  0.7996  0.3059
13513TIP3    H261955   4.793   2.610  11.585 -0.5318 -2.2809 -2.1214
13514TIP3   OH261956   3.309   1.273  14.477 -0.2624 -0.3476 -1.1493
13514TIP3    H161957   3.392   1.314  14.452  0.4615  0.6011  2.2689
13514TIP3    H261958   3.301   1.198  14.417  2.7307 -0.1155 -2.0314
13515TIP3   OH261959   1.533   0.488  11.994 -0.1905  0.4206 -0.4522
13515TIP3    H161960   1.625   0.513  11.998 -0.0490 -0.1320  0.1108
13515TIP3    H261961   1.530   0.402  12.038 -0.7141 -0.3378 -1.9136
13516TIP3   OH261962   4.843   6.617  11.883 -0.3757 -0.1129  0.1533
13516TIP3    H161963   4.832   6.541  11.941 -0.7233 -0.3072 -0.1588
13516TIP3    H261964   4.893   6.583  11.808  0.1162  0.1491  0.3603
13517TIP3   OH261965   0.781   4.107  14.635 -0.1970  0.2401  0.3781
13517TIP3    H161966   0.688   4.131  14.624  0.5847  3.3696 -0.4488
13517TIP3    H261967   0.821   4.131  14.551  1.9375  2.4626  1.9237
13518TIP3   OH261968   5.474   4.633  12.966  0.3822  0.3212  0.1797
13518TIP3    H161969   5.438   4.562  12.913  0.4088 -0.1393  0.7602
13518TIP3    H261970   5.424   4.711  12.941  1.6693  0.5365 -1.9173
13519TIP3   OH261971   0.967   3.471  16.887 -0.0127 -0.1430  0.2687
13519TIP3    H161972   0.918   3.529  16.945  1.0204 -0.3608  1.4065
13519TIP3    H261973   0.904   3.443  16.822 -0.9366  0.9767  0.6473
13520TIP3   OH261974   5.069   2.152  14.042  0.2522 -0.1871  0.2398
13520TIP3    H161975   5.017   2.172  13.964  0.4791 -0.5131  0.0029
13520TIP3    H261976   5.014   2.182  14.115  1.2814  2.9474 -0.1179
13521TIP3   OH261977   3.988   0.657  13.510  0.0377 -0.0564  0.4332
13521TIP3    H161978   4.032   0.579  13.545 -1.1611 -0.4402  1.1619
13521TIP3    H261979   4.057   0.707  13.468  1.1215 -0.7358  1.3464
13522TIP3   OH261980   2.958   0.196   1.411  0.2064 -0.3102  0.6679
13522TIP3    H161981   2.951   0.286   1.377  1.7165 -0.2036  0.5459
13522TIP3    H261982   3.027   0.201   1.477 -1.5303 -0.8693  2.6101
13523TIP3   OH261983   0.505   2.146   5.357 -0.2325 -0.4868 -0.0858
13523TIP3    H161984   0.422   2.118   5.397 -1.0963  0.5214 -1.1148
13523TIP3    H261985   0.515   2.237   5.384  0.5371 -0.5927  0.0068
13524TIP3   OH261986   2.947   1.609  11.715 -0.0546 -0.2668  0.2531
13524TIP3    H161987   2.856   1.579  11.724 -0.4021  0.7617  0.3398
13524TIP3    H261988   2.947   1.664  11.637  0.9616 -1.8620 -0.9276
13525TIP3   OH261989   0.922   2.248  13.890  0.2362 -0.5888 -0.4186
13525TIP3    H161990   0.882   2.286  13.811  0.8036  2.3694  0.6068
13525TIP3    H261991   1.016   2.248  13.871  0.4192  0.6249  0.4192
13526TIP3   OH261992   2.829   2.046  17.031 -0.1688  0.0276 -0.2545
13526TIP3    H161993   2.864   1.958  17.046  0.0379  0.1097 -0.2471
13526TIP3    H261994   2.782   2.040  16.948 -1.3208 -0.4357  0.3954
13527TIP3   OH261995   4.884   6.663   1.038 -0.3800  0.2128 -0.2264
13527TIP3    H161996   4.853   6.577   1.066 -0.5542  0.8927  1.8139
13527TIP3    H261997   4.977   6.650   1.018  0.0346 -0.1533  1.7137
13528TIP3   OH261998   2.804   6.316  15.754  0.6391  0.6654  0.2606
13528TIP3    H161999   2.874   6.259  15.789  0.5040  0.7342  0.6467
13528TIP3    H262000   2.828   6.328  15.662  1.3931  1.0656  0.4973
13529TIP3   OH262001   3.904   5.889   4.809  0.2698  0.1026  0.0996
13529TIP3    H162002   3.939   5.829   4.743  1.8375 -0.6737  1.5754
13529TIP3    H262003   3.845   5.946   4.760 -0.2146 -1.7482 -1.6027
13530TIP3   OH262004   2.914   4.884   0.902 -0.6677 -0.0882 -0.2485
13530TIP3    H162005   2.924   4.978   0.913 -0.0211 -0.0910 -0.7019
13530TIP3    H262006   2.927   4.847   0.990 -0.3107  0.2065 -0.1740
13531TIP3   OH262007   6.569   2.376  16.547 -0.3467  0.2757 -0.0564
13531TIP3    H162008   6.574   2.472  16.544 -1.4975  0.3425 -0.3961
13531TIP3    H262009   6.519   2.357  16.626 -0.0251 -0.0488  0.0692
13532TIP3   OH262010   3.794   4.069  16.109 -0.4476 -0.1990  0.1325
13532TIP3    H162011   3.711   4.113  16.130 -0.7748  0.2019 -1.7876
13532TIP3    H262012   3.846   4.136  16.065  0.5873 -0.6817  0.5956
13533TIP3   OH262013   2.751   1.267  11.503 -0.3446  0.2415 -0.4568
13533TIP3    H162014   2.682   1.300  11.446  0.8729  1.0162 -1.5591
13533TIP3    H262015   2.817   1.233  11.442  0.2185 -0.5494  0.5605
13534TIP3   OH262016   0.761   0.966  11.609  0.2771 -0.3267  0.2081
13534TIP3    H162017   0.753   1.060  11.628 -0.7617 -0.3922  0.1483
13534TIP3    H262018   0.706   0.952  11.532  1.1879 -0.8206 -0.3675
13535TIP3   OH262019   3.143   2.944   0.517 -0.0760 -0.2527  0.1190
13535TIP3    H162020   3.181   2.863   0.482 -0.8798  0.2371 -2.0794
13535TIP3    H262021   3.145   2.933   0.612  2.5561 -1.5701 -0.0182
13536TIP3   OH262022   1.996   2.846  15.665  0.2118  0.2015 -0.1153
13536TIP3    H162023   1.933   2.775  15.677  0.8492 -0.2124  0.8924
13536TIP3    H262024   2.034   2.859  15.752 -0.4029  2.2707 -0.1026
13537TIP3   OH262025   1.130   6.399  16.552 -0.3511 -0.2578 -0.2300
13537TIP3    H162026   1.188   6.323  16.546 -0.4236 -0.4217  0.9868
13537TIP3    H262027   1.186   6.474  16.531 -0.3172 -0.6350 -1.5932
13538TIP3   OH262028   4.081   3.097  17.175 -0.0408  0.3311 -0.3760
13538TIP3    H162029   4.013   3.164  17.165  0.2087  0.4640 -1.1555
13538TIP3    H262030   4.034   3.023  17.216  0.0717  1.5908  2.2353
13539TIP3   OH262031   3.909   2.694   4.085  0.3414 -0.0697 -0.0710
13539TIP3    H162032   3.906   2.666   4.176 -1.8086 -0.6640 -0.2789
13539TIP3    H262033   3.819   2.685   4.053  0.0753  4.0142 -1.1259
13540TIP3   OH262034   3.144   2.804   4.464 -0.1760 -0.4114  0.4517
13540TIP3    H162035   3.227   2.791   4.419  0.2824 -1.1325  1.4671
13540TIP3    H262036   3.118   2.894   4.442  1.0273 -0.0704  0.3872
13541TIP3   OH262037   5.861   0.229   6.104 -0.0143 -0.3207  0.3546
13541TIP3    H162038   5.836   0.170   6.176  0.9807  0.7508  1.6439
13541TIP3    H262039   5.892   0.308   6.149  4.5358 -1.0520 -1.0227
13542TIP3   OH262040   1.406   0.688   0.432 -0.0458  0.1467 -0.2673
13542TIP3    H162041   1.352   0.645   0.365 -0.4968  1.0489 -0.4885
13542TIP3    H262042   1.397   0.781   0.415 -0.5538  0.4231  1.3612
13543TIP3   OH262043   0.725   6.650  10.848 -0.1259 -0.4620 -0.1901
13543TIP3    H162044   0.755   6.738  10.870 -1.4692 -0.3441  1.3012
13543TIP3    H262045   0.633   6.661  10.825 -0.1120 -1.3792 -0.7160
13544TIP3   OH262046   1.253   6.619  15.012 -0.0321  0.9608  0.4295
13544TIP3    H162047   1.167   6.607  15.053 -0.3524  1.5040 -0.0777
13544TIP3    H262048   1.313   6.571  15.069 -1.2718 -3.8566 -1.7197
13545TIP3   OH262049   2.277   1.532  10.789  0.1884  0.5009 -0.3278
13545TIP3    H162050   2.359   1.515  10.741  0.1025  0.6084 -0.5154
13545TIP3    H262051   2.221   1.458  10.767  0.9005 -0.5803  1.3274
13546TIP3   OH262052   5.294   3.841   0.075 -0.5640  0.1652  1.1193
13546TIP3    H162053   5.364   3.776   0.082 -1.2129 -0.5269  1.2608
13546TIP3    H262054   5.262   3.851   0.165 -0.9408  0.1550  0.9860
13547TIP3   OH262055   0.754   3.440  11.943 -0.1668  0.2280  0.0736
13547TIP3    H162056   0.835   3.415  11.988  0.8617  2.4370 -0.4220
13547TIP3    H262057   0.691   3.373  11.969  1.7528 -1.5004  0.5955
13548TIP3   OH262058   2.286   1.191  14.582  0.2939  0.0052  0.4011
13548TIP3    H162059   2.274   1.099  14.603 -1.1972 -0.2955 -1.4171
13548TIP3    H262060   2.376   1.198  14.551 -0.5961 -1.7527 -3.1186
13549TIP3   OH262061   2.993   4.869   1.834 -0.1553 -0.1707  0.1259
13549TIP3    H162062   2.930   4.883   1.904 -0.5443  1.4470 -0.4991
13549TIP3    H262063   3.077   4.862   1.879 -0.7710 -3.3413  1.0621
13550TIP3   OH262064   5.406   5.125   4.104 -0.4713 -0.5146 -0.0711
13550TIP3    H162065   5.492   5.161   4.082 -0.7697 -0.2307 -0.8078
13550TIP3    H262066   5.345   5.176   4.052 -1.2617  0.4425  1.7098
13551TIP3   OH262067   4.508   6.682  15.283  0.1341 -0.2812 -0.0813
13551TIP3    H162068   4.506   6.665  15.188  0.4676  0.7932 -0.2981
13551TIP3    H262069   4.557   6.608  15.320  0.0838 -0.6636 -0.7597
13552TIP3   OH262070   1.975   6.711  16.402 -0.1232 -0.6502  0.6840
13552TIP3    H162071   1.937   6.794  16.431  0.2587 -0.1300 -0.2732
13552TIP3    H262072   1.911   6.645  16.429 -0.7816  0.0308  0.8170
13553TIP3   OH262073   6.543   6.481  15.595 -0.3712 -0.3462 -0.3094
13553TIP3    H162074   6.515   6.521  15.677 -2.1377 -2.2548  0.1021
13553TIP3    H262075   6.503   6.394  15.595 -0.4200 -0.4498 -3.1837
13554TIP3   OH262076   3.137   5.045  16.481 -0.4361 -0.4516 -0.5424
13554TIP3    H162077   3.097   5.102  16.547  1.5497 -0.3323  0.6493
13554TIP3    H262078   3.198   4.990  16.531  1.3454 -0.1827 -2.3013
13555TIP3   OH262079   5.438   4.205   3.948  0.0209 -0.4211  0.2584
13555TIP3    H162080   5.498   4.133   3.930 -0.2413 -0.8427  1.0515
13555TIP3    H262081   5.486   4.283   3.922  0.1899 -0.8946 -0.9342
13556TIP3   OH262082   3.037   5.691  14.065  0.2631 -0.1347  0.0218
13556TIP3    H162083   3.009   5.658  14.150 -1.6305  0.4603 -0.3246
13556TIP3    H262084   2.985   5.770  14.052 -1.0672 -1.3347 -2.5929
13557TIP3   OH262085   2.782   5.281   4.203  0.3505 -0.1920  0.1143
13557TIP3    H162086   2.843   5.354   4.195  0.3789 -0.1102  0.9445
13557TIP3    H262087   2.827   5.219   4.260  1.0868 -1.6995 -2.0107
13558TIP3   OH262088   3.669   1.733   5.235  0.6653  0.4314 -0.0565
13558TIP3    H162089   3.589   1.783   5.250  0.4725 -0.0959  0.7338
13558TIP3    H262090   3.643   1.662   5.176  0.3370 -0.2314  0.8544
13559TIP3   OH262091   3.269   0.854   0.799  0.2141 -0.4586  0.0702
13559TIP3    H162092   3.348   0.848   0.854 -0.2096 -3.1303  0.5141
13559TIP3    H262093   3.216   0.922   0.840  2.3990  1.7991 -0.5244
13560TIP3   OH262094   1.489   2.527  15.506  0.1318 -0.5811 -0.8927
13560TIP3    H162095   1.541   2.498  15.581  0.1363 -0.8756 -1.0065
13560TIP3    H262096   1.459   2.614  15.529 -1.2135 -1.2899  0.1339
13561TIP3   OH262097   0.046   5.142  14.673 -0.1528  0.0103 -0.0201
13561TIP3    H162098   0.082   5.057  14.698  0.1338  0.5150  1.3317
13561TIP3    H262099   0.120   5.202  14.676 -0.7592  0.7363  1.2121
13562TIP3   OH262100   5.380   4.660  14.124  0.1640  0.5563 -0.0550
13562TIP3    H162101   5.398   4.567  14.109  2.0082  0.8749 -0.0619
13562TIP3    H262102   5.288   4.671  14.097  0.4357 -0.8968 -1.8252
13563TIP3   OH262103   2.429   4.920   2.870  0.2311 -0.3717 -0.1461
13563TIP3    H162104   2.405   5.011   2.850  0.1138 -0.4323 -0.2827
13563TIP3    H262105   2.503   4.928   2.930  0.6732 -0.1872 -0.7023
13564TIP3   OH262106   5.191   3.084   5.970  0.1238  0.1755  0.3231
13564TIP3    H162107   5.216   3.021   5.902  0.2405  0.6675 -0.0971
13564TIP3    H262108   5.194   3.169   5.926  0.0403  0.4833  0.9046
13565TIP3   OH262109   6.209   0.599  16.262  0.1192 -0.3400  0.5774
13565TIP3    H162110   6.127   0.561  16.230 -1.1910  0.3046  2.9154
13565TIP3    H262111   6.198   0.694  16.249  0.6115 -0.2680  0.6665
13566TIP3   OH262112   6.346   3.777   1.205 -0.0207  0.0325  0.4020
13566TIP3    H162113   6.301   3.697   1.232 -2.2702  0.4800 -1.6401
13566TIP3    H262114   6.405   3.797   1.278  1.1747 -3.8055  0.7088
13567TIP3   OH262115   3.397   4.025  16.826  0.6154 -0.2942  0.2577
13567TIP3    H162116   3.483   4.014  16.784  0.8294  0.7001  0.4128
13567TIP3    H262117   3.363   4.107  16.789  0.3462  0.0433  1.2411
13568TIP3   OH262118   3.560   0.010   4.777 -0.4761  0.6744 -0.0316
13568TIP3    H162119   3.488  -0.052   4.765 -1.3001  1.5722  0.1981
13568TIP3    H262120   3.545   0.049   4.863 -0.0325  1.2758 -0.2172
13569TIP3   OH262121   5.096   5.729  15.569 -0.0902 -0.8826 -0.0758
13569TIP3    H162122   5.124   5.637  15.571  1.1971 -0.5547 -1.4107
13569TIP3    H262123   5.166   5.774  15.523  0.1188  1.0853  1.9693
13570TIP3   OH262124   6.375   0.046   2.677  0.7016 -0.0193 -0.5925
13570TIP3    H162125   6.436   0.099   2.728  1.8002  0.2266 -2.0737
13570TIP3    H262126   6.430  -0.020   2.636 -0.0560  0.0443 -1.7617
13571TIP3   OH262127   0.061   0.554  14.885  0.0693 -0.3639  0.2761
13571TIP3    H162128   0.149   0.581  14.859  0.7494 -2.7861 -0.1783
13571TIP3    H262129   0.067   0.542  14.980 -0.0742  0.4202  0.3929
13572TIP3   OH262130   1.864   3.216  11.020 -0.6664  0.3654  0.0335
13572TIP3    H162131   1.938   3.264  10.982  1.0257 -0.8537  1.6012
13572TIP3    H262132   1.841   3.152  10.953  0.7897 -0.2813  0.1075
13573TIP3   OH262133   5.719   4.695   6.122 -0.2167 -0.2939 -0.3580
13573TIP3    H162134   5.752   4.784   6.134  2.9284 -1.6083  2.5654
13573TIP3    H262135   5.660   4.680   6.196 -1.2672 -0.4790 -1.2060
13574TIP3   OH262136   4.564   2.563   0.406  0.6601 -0.0461 -0.0422
13574TIP3    H162137   4.636   2.563   0.343  0.1622  0.0211 -0.6223
13574TIP3    H262138   4.535   2.654   0.410  0.4108 -0.1243 -0.0442
13575TIP3   OH262139   1.759   2.442  12.297 -0.7289 -0.1123 -0.4865
13575TIP3    H162140   1.832   2.417  12.353 -1.4435 -0.4963  0.2992
13575TIP3    H262141   1.730   2.360  12.256 -0.1082  0.1862 -1.5751
13576TIP3   OH262142   4.422   2.343  11.783  0.2345  0.3551  0.3948
13576TIP3    H162143   4.511   2.335  11.819 -0.0796 -0.1656  1.0670
13576TIP3    H262144   4.386   2.255  11.787 -0.2777  0.5390  0.0052
13577TIP3   OH262145   2.753   3.334   4.044  0.1120  0.5537  0.1875
13577TIP3    H162146   2.696   3.258   4.058  1.6342 -0.7413 -0.3651
13577TIP3    H262147   2.826   3.320   4.104 -0.2126  2.3048  1.0547
13578TIP3   OH262148   4.216   2.966   0.053 -0.2247 -0.0697  1.0051
13578TIP3    H162149   4.149   2.918   0.005  0.5340 -0.8795  0.7221
13578TIP3    H262150   4.168   3.017   0.118 -1.3548  1.6777 -1.0711
13579TIP3   OH262151   5.387   1.656  14.445 -0.7392  0.1412  0.4565
13579TIP3    H162152   5.402   1.644  14.539 -1.5118 -0.0488  0.5632
13579TIP3    H262153   5.437   1.734  14.423 -2.0095  1.2728  1.4220
13580TIP3   OH262154   3.667   4.048  13.624 -0.2840 -0.9372 -0.1567
13580TIP3    H162155   3.694   4.131  13.585 -0.7925 -1.5287 -1.8167
13580TIP3    H262156   3.585   4.026  13.579  0.2356 -2.7153 -0.2889
13581TIP3   OH262157   3.879   4.638  14.514 -0.1130 -0.0564  0.4147
13581TIP3    H162158   3.963   4.600  14.540 -0.5456 -2.1556 -1.0017
13581TIP3    H262159   3.821   4.563  14.504 -1.1827  0.9788 -2.0101
13582TIP3   OH262160   3.500   5.009  12.436  0.5576 -0.4466  0.2078
13582TIP3    H162161   3.506   5.096  12.476  0.2988 -0.3933  0.1314
13582TIP3    H262162   3.539   4.950  12.500 -0.1039 -0.4004  0.6541
13583TIP3   OH262163   4.715   5.704  14.233  0.3075 -0.3253  0.4765
13583TIP3    H162164   4.797   5.750  14.249  0.1429 -0.4666  1.8574
13583TIP3    H262165   4.675   5.695  14.320 -0.6484 -1.2260 -0.0307
13584TIP3   OH262166   1.314   4.003   3.590  0.2400 -0.3687 -0.3948
13584TIP3    H162167   1.362   4.041   3.664 -0.1837 -1.0029  0.2161
13584TIP3    H262168   1.244   3.953   3.630  0.6788 -1.6723 -1.1887
13585TIP3   OH262169   4.494   3.248   6.068  0.0794  0.3757 -0.0894
13585TIP3    H162170   4.575   3.290   6.038  1.0968 -1.3321  0.0979
13585TIP3    H262171   4.499   3.252   6.164  0.5432 -0.7527 -0.0517
13586TIP3   OH262172   1.621   1.474  17.480 -0.2090 -0.1679 -0.1572
13586TIP3    H162173   1.620   1.420  17.559 -1.5184 -0.2017 -0.1758
13586TIP3    H262174   1.529   1.498  17.466  0.0238 -0.0214 -1.5677
13587TIP3   OH262175   0.477   0.249   2.325 -0.4511 -0.0103  0.4554
13587TIP3    H162176   0.457   0.286   2.411  0.6181  0.2383  0.6149
13587TIP3    H262177   0.558   0.199   2.339 -1.1540 -1.3558 -0.0468
13588TIP3   OH262178   5.457   3.149  13.597 -0.0248 -0.0564  0.1262
13588TIP3    H162179   5.469   3.211  13.525 -0.9942  2.5732  2.0653
13588TIP3    H262180   5.545   3.114  13.613  0.2226 -0.7055 -2.2349
13589TIP3   OH262181   1.650   4.806  17.590  0.2816  0.0903  0.5389
13589TIP3    H162182   1.577   4.762  17.635 -1.7651  0.5678 -2.0523
13589TIP3    H262183   1.722   4.743  17.595 -1.8063 -2.6781 -0.9280
13590TIP3   OH262184   3.138   3.499  14.887 -0.0114 -0.4022  0.2568
13590TIP3    H162185   3.182   3.546  14.816  1.7528 -0.3105  1.3339
13590TIP3    H262186   3.060   3.551  14.905 -0.3447 -0.2729 -1.4002
13591TIP3   OH262187   0.846   0.168   4.429 -0.3938  0.0445 -0.4283
13591TIP3    H162188   0.924   0.133   4.472 -0.6166  0.8159  0.6443
13591TIP3    H262189   0.876   0.245   4.382 -0.3984 -0.0227 -0.5426
13592TIP3   OH262190   0.986   6.495  13.517 -0.4407 -0.0228  0.0249
13592TIP3    H162191   1.074   6.531  13.506 -1.1180  1.2092 -1.6311
13592TIP3    H262192   0.961   6.519  13.607  0.8445 -0.2848  0.4699
13593TIP3   OH262193   4.000   4.721   0.991  0.0988  0.4310  0.4603
13593TIP3    H162194   3.959   4.807   0.995  1.3906  1.2751 -2.1729
13593TIP3    H262195   4.094   4.740   0.984  0.2830 -1.0263 -2.1747
13594TIP3   OH262196   1.244   1.329   1.684  0.2135  0.1618 -0.0120
13594TIP3    H162197   1.224   1.365   1.770  1.2399  0.9612 -0.0920
13594TIP3    H262198   1.334   1.356   1.666  0.2837 -0.6606 -0.9981
13595TIP3   OH262199   2.724   2.625   1.096 -0.3456  0.5132 -0.0046
13595TIP3    H162200   2.663   2.584   1.158  1.0169 -2.2042 -0.3159
13595TIP3    H262201   2.809   2.590   1.120  1.1314  3.7799  0.0792
13596TIP3   OH262202   4.462   6.305  11.196 -0.4129  0.1615  0.0532
13596TIP3    H162203   4.493   6.214  11.203 -2.4514 -0.8092 -2.0123
13596TIP3    H262204   4.524   6.356  11.248  2.3762 -2.0630 -0.8250
13597TIP3   OH262205   5.428   4.322  15.650  0.2161 -0.1344 -0.2880
13597TIP3    H162206   5.458   4.312  15.559 -1.0917 -2.5380 -0.5184
13597TIP3    H262207   5.333   4.323  15.644 -0.0413  4.4023  0.7159
13598TIP3   OH262208   0.568   0.156  16.058 -0.3610  0.3082 -0.1401
13598TIP3    H162209   0.573   0.125  16.148 -2.4602  0.9589  0.2700
13598TIP3    H262210   0.613   0.240  16.059 -1.1361  0.7309  0.5443
13599TIP3   OH262211   3.115   3.045   2.605  0.3831  0.6860  0.1250
13599TIP3    H162212   3.052   3.080   2.668 -0.0061 -0.3179  0.3100
13599TIP3    H262213   3.200   3.056   2.647  0.0977 -0.2716  0.9824
13600TIP3   OH262214   3.494   5.773   1.708 -0.2559 -0.5131 -0.2819
13600TIP3    H162215   3.574   5.798   1.662 -1.4359 -0.2476 -2.3431
13600TIP3    H262216   3.458   5.700   1.656 -1.8657  0.0665 -0.0431
13601TIP3   OH262217   0.385   1.829  17.125 -0.0380 -0.2351 -0.5135
13601TIP3    H162218   0.461   1.807  17.180 -0.0483  0.8716 -0.0364
13601TIP3    H262219   0.311   1.785  17.168 -0.2417  1.5144  1.0530
13602TIP3   OH262220   4.322   5.654  13.706 -0.4059 -0.2058 -0.2196
13602TIP3    H162221   4.358   5.742  13.700 -1.2550  0.3158  1.6129
13602TIP3    H262222   4.242   5.664  13.757 -0.9453 -1.9274 -0.6683
13603TIP3   OH262223   1.808   4.097  12.235 -0.0177 -0.2733 -0.5310
13603TIP3    H162224   1.812   4.095  12.330  0.9980  0.9430 -0.5314
13603TIP3    H262225   1.840   4.183  12.211 -0.5425 -0.4529 -1.9753
13604TIP3   OH262226   5.457   4.170   3.008 -0.3183 -0.7907  0.2615
13604TIP3    H162227   5.372   4.131   3.030 -0.6897 -1.2716 -1.7933
13604TIP3    H262228   5.435   4.256   2.972  0.3189  0.2734  2.2315
13605TIP3   OH262229   4.148   2.136  12.292  0.0657  0.3696 -0.4452
13605TIP3    H162230   4.149   2.200  12.364  0.1450  0.5828 -0.6372
13605TIP3    H262231   4.178   2.185  12.216 -0.5372  0.2795 -0.7429
13606TIP3   OH262232   0.832   4.052   0.945  0.1593  0.7842  0.7298
13606TIP3    H162233   0.918   4.070   0.905  1.0844 -1.3113  1.6393
13606TIP3    H262234   0.850   4.043   1.038 -0.9418 -0.2965  0.8586
13607TIP3   OH262235   3.528   3.963  14.841  0.8929  0.6004  0.3609
13607TIP3    H162236   3.504   3.911  14.764  0.4960 -1.7909  1.9715
13607TIP3    H262237   3.457   4.026  14.850  0.4426  0.2669 -0.6844
13608TIP3   OH262238   3.818   4.349  11.576 -0.1094  0.1631 -0.4490
13608TIP3    H162239   3.840   4.371  11.485  1.9266  1.3735  0.2570
13608TIP3    H262240   3.848   4.424  11.627 -0.3636 -0.8757  1.3177
13609TIP3   OH262241   2.849   1.525  16.348 -0.1142 -0.1482 -0.3622
13609TIP3    H162242   2.847   1.508  16.442  0.1487  0.6960 -0.1954
13609TIP3    H262243   2.799   1.606  16.337 -1.3735 -0.9926 -1.1318
13610TIP3   OH262244   5.963   6.181  13.123 -0.3416  0.5375  0.0731
13610TIP3    H162245   5.983   6.258  13.070  1.3246 -1.1496 -1.9456
13610TIP3    H262246   6.030   6.181  13.192  0.7973  0.0023 -0.9912
13611TIP3   OH262247   6.275   6.357   5.822  0.0133 -0.4383 -0.1063
13611TIP3    H162248   6.355   6.392   5.783  0.3248 -0.4863  0.4794
13611TIP3    H262249   6.302   6.325   5.908 -0.6395 -0.4469  0.1012
13612TIP3   OH262250   5.848   6.560   3.353  0.0059  0.8627 -0.1607
13612TIP3    H162251   5.836   6.637   3.298 -0.4497 -0.4802 -2.0310
13612TIP3    H262252   5.896   6.498   3.299  0.1436 -0.2764  1.1954
13613TIP3   OH262253   2.479   5.774  11.700 -0.0864 -0.0993  0.2709
13613TIP3    H162254   2.436   5.859  11.707  0.4353  0.4097 -1.8886
13613TIP3    H262255   2.543   5.773  11.771 -0.6931  0.9372  0.8516
13614TIP3   OH262256   4.057   6.535  13.555  0.3049 -0.7907  0.3012
13614TIP3    H162257   4.138   6.568  13.515  0.2257 -2.6208 -1.5351
13614TIP3    H262258   4.018   6.479  13.488 -2.0883 -0.6335  1.4504
13615TIP3   OH262259   6.309   1.991  13.854 -0.2045  0.1122 -0.7166
13615TIP3    H162260   6.363   1.997  13.933 -0.4850  1.5982 -0.5914
13615TIP3    H262261   6.337   1.911  13.810 -0.7856 -1.3394  1.4176
13616TIP3   OH262262   4.328   3.416  14.892 -0.1550 -0.2351  0.8834
13616TIP3    H162263   4.384   3.493  14.903 -1.1609  0.6423  0.0638
13616TIP3    H262264   4.247   3.437  14.939  0.2967 -1.6493  2.3950
13617TIP3   OH262265   1.628   5.148   0.858 -0.0996  0.0739  0.6311
13617TIP3    H162266   1.600   5.217   0.797  0.5295 -0.2417 -0.0279
13617TIP3    H262267   1.625   5.189   0.944 -0.7036  0.6226  0.3586
13618TIP3   OH262268   4.036   0.474   3.611  0.5362  0.3308  0.3483
13618TIP3    H162269   4.007   0.539   3.548 -0.0051  0.4222  0.6897
13618TIP3    H262270   3.974   0.480   3.683  0.3697 -0.6959  0.3055
13619TIP3   OH262271   2.066   0.201   0.278  0.1977 -0.1282 -0.7611
13619TIP3    H162272   2.161   0.204   0.274  0.2103  0.6792 -0.1045
13619TIP3    H262273   2.038   0.211   0.187  0.7340 -0.0602 -0.9211
13620TIP3   OH262274   4.796   4.489   4.755 -0.1878  0.6907  0.1752
13620TIP3    H162275   4.843   4.546   4.694  1.1205  1.5287  1.8718
13620TIP3    H262276   4.832   4.402   4.741 -1.3724  0.4377 -1.6280
13621TIP3   OH262277   3.229   4.894   3.824 -0.3447  0.0223 -0.5311
13621TIP3    H162278   3.260   4.972   3.777 -0.4371  0.5695  0.2819
13621TIP3    H262279   3.155   4.863   3.772 -0.9256  1.0571 -0.3653
13622TIP3   OH262280   2.513   5.178  15.515 -0.2003 -0.0876 -0.2026
13622TIP3    H162281   2.435   5.225  15.485 -1.6575 -2.3666 -0.2011
13622TIP3    H262282   2.533   5.217  15.600 -1.9396 -0.0866  0.2403
13623TIP3   OH262283   6.456   0.369  15.429  0.4022  0.2430  0.0435
13623TIP3    H162284   6.466   0.274  15.428  0.5977  0.2435  1.0737
13623TIP3    H262285   6.435   0.390  15.520  0.9749  1.2464 -0.0415
13624TIP3   OH262286   1.774   0.079  11.778 -0.0148 -0.1109  0.1734
13624TIP3    H162287   1.792   0.111  11.867 -2.8595  0.0756  0.8028
13624TIP3    H262288   1.707   0.011  11.790  1.5236 -2.0656 -1.6598
13625TIP3   OH262289   6.514   6.112   1.871 -0.1852 -0.2115 -0.1634
13625TIP3    H162290   6.567   6.032   1.866 -0.3506 -0.7567  3.7576
13625TIP3    H262291   6.572   6.177   1.910 -0.9673  0.6734 -0.4425
13626TIP3   OH262292   0.985   2.472   4.679  0.1812  0.6473  0.0833
13626TIP3    H162293   1.030   2.551   4.649 -1.9591  1.8211 -0.2492
13626TIP3    H262294   1.036   2.443   4.755  1.5687  1.7717 -0.3746
13627TIP3   OH262295   6.152   4.034   3.173 -0.2761 -0.7175 -0.1689
13627TIP3    H162296   6.129   4.026   3.081  0.0340 -1.1239 -0.2162
13627TIP3    H262297   6.185   4.123   3.182 -1.7784 -0.1452 -0.1089
13628TIP3   OH262298   4.591   3.478   2.915 -0.1371  0.4736 -0.1606
13628TIP3    H162299   4.659   3.531   2.957 -0.0177  0.3064 -0.1398
13628TIP3    H262300   4.575   3.407   2.977  1.1413 -0.6490 -1.0456
13629TIP3   OH262301   2.931   3.049  11.971  0.6036  0.5697  0.3528
13629TIP3    H162302   2.990   3.005  11.908  0.1053 -0.3770  0.5308
13629TIP3    H262303   2.843   3.030  11.938  0.3582  0.7314  0.9144
13630TIP3   OH262304   0.780   2.058   0.580 -0.3188 -0.2859 -0.1633
13630TIP3    H162305   0.742   1.978   0.546 -0.0226 -0.5873  0.2124
13630TIP3    H262306   0.859   2.030   0.627  0.8004  0.3948 -1.5413
13631TIP3   OH262307   1.774   0.348   6.185  0.2306  0.1713 -0.0219
13631TIP3    H162308   1.764   0.440   6.212 -0.3842 -0.4960  2.1599
13631TIP3    H262309   1.758   0.350   6.091  1.8141  2.5372 -0.3439
13632TIP3   OH262310   1.469   0.650  15.454  0.0197  0.0039  0.2671
13632TIP3    H162311   1.393   0.597  15.478 -0.0440  0.4640  1.1387
13632TIP3    H262312   1.482   0.633  15.361 -1.9730  0.9406 -0.2420
13633TIP3   OH262313   5.059   0.892  12.146  0.2909  0.1465 -0.3120
13633TIP3    H162314   5.073   0.922  12.056  1.7240 -0.3734 -0.2900
13633TIP3    H262315   5.133   0.928  12.194 -1.6994  2.4553  1.2089
13634TIP3   OH262316   1.325   5.186   0.915  0.2223  0.0097 -0.4525
13634TIP3    H162317   1.373   5.194   0.833 -1.4106  1.8734 -1.3123
13634TIP3    H262318   1.240   5.227   0.897 -0.4453 -0.1536  1.9761
13635TIP3   OH262319   2.318   5.286   3.686 -0.7534 -0.1050  0.0518
13635TIP3    H162320   2.284   5.349   3.623  0.2007  0.6746  0.3021
13635TIP3    H262321   2.289   5.201   3.652  1.6659  0.0362 -2.7404
13636TIP3   OH262322   4.544   5.432  12.015  0.0589  0.0039  0.2177
13636TIP3    H162323   4.593   5.448  12.095  0.3636  0.0466  0.0233
13636TIP3    H262324   4.591   5.361  11.972  0.0691  0.1813 -0.0671
13637TIP3   OH262325   6.130   5.790   5.365  0.0901  0.1368 -0.2176
13637TIP3    H162326   6.217   5.826   5.348 -0.4547  1.7866  0.2864
13637TIP3    H262327   6.127   5.709   5.314  1.0968  1.2368 -2.1404
13638TIP3   OH262328   2.284   3.997   0.036  0.1981  0.0814  0.1706
13638TIP3    H162329   2.222   4.068   0.052 -1.8942 -1.6250  0.0767
13638TIP3    H262330   2.332   3.990   0.119 -0.2363  0.9668  0.5182
13639TIP3   OH262331   6.136   0.534  15.196  0.3357  0.5635  0.2259
13639TIP3    H162332   6.189   0.463  15.231  2.0396  0.6979 -1.9274
13639TIP3    H262333   6.081   0.493  15.129 -0.3209  0.9245  0.5250
13640TIP3   OH262334   3.305   6.704  17.018 -0.3870  0.6303 -0.1170
13640TIP3    H162335   3.314   6.766  16.946 -0.4476  1.9507  0.9732
13640TIP3    H262336   3.374   6.639  17.002  1.3734  2.3652  0.0405
13641TIP3   OH262337   4.435   3.721  17.351  0.2764  0.3306 -0.2217
13641TIP3    H162338   4.415   3.627  17.350 -1.3735  0.6005  1.8257
13641TIP3    H262339   4.361   3.761  17.397  0.6788  2.7329 -1.4893
13642TIP3   OH262340   1.220   1.387  15.767  0.3181  0.8073 -0.1640
13642TIP3    H162341   1.188   1.342  15.689  2.1942 -0.3490 -0.3408
13642TIP3    H262342   1.176   1.473  15.766  0.5478  0.9566 -2.6807
13643TIP3   OH262343   5.741   3.259   5.163 -0.2742  0.3484 -0.0163
13643TIP3    H162344   5.793   3.199   5.110 -0.2580  0.2804  0.0770
13643TIP3    H262345   5.776   3.345   5.143  2.3245  0.0800  2.7360
13644TIP3   OH262346   3.333   1.871   3.885  0.4794 -0.2536  0.3061
13644TIP3    H162347   3.344   1.778   3.869  2.0406 -0.1738  0.7252
13644TIP3    H262348   3.392   1.890   3.958  2.8687  1.6716 -1.9392
13645TIP3   OH262349   0.423   4.336   4.447  0.1658 -0.0977 -0.0393
13645TIP3    H162350   0.440   4.256   4.397  1.5567 -1.5274  2.5592
13645TIP3    H262351   0.492   4.396   4.420  1.2351 -1.0512  0.5352
13646TIP3   OH262352   3.660   3.766  13.682  0.6815 -0.9914  0.0403
13646TIP3    H162353   3.694   3.856  13.673  0.3215 -0.5058  2.6427
13646TIP3    H262354   3.568   3.773  13.658  0.9896 -1.0145 -1.2131
13647TIP3   OH262355   1.229   3.646   0.828  0.4732  0.4078  0.2553
13647TIP3    H162356   1.155   3.700   0.802 -0.9555 -1.3044  0.5676
13647TIP3    H262357   1.195   3.590   0.898  1.6899 -1.2910 -0.4313
13648TIP3   OH262358   0.339   2.607  17.221  0.3981 -0.4716  0.2062
13648TIP3    H162359   0.302   2.601  17.133  0.9019  0.7316 -0.1078
13648TIP3    H262360   0.265   2.588  17.279  0.1537 -1.6857 -0.4649
13649TIP3   OH262361   1.338   3.329  17.460  0.1037 -0.2453 -0.0909
13649TIP3    H162362   1.354   3.243  17.499  1.2296 -0.5807 -1.2057
13649TIP3    H262363   1.385   3.390  17.517  0.0590 -0.4783  0.1991
13650TIP3   OH262364   5.730   4.414  12.525  0.5882  0.2552  0.3894
13650TIP3    H162365   5.740   4.325  12.557 -1.8625  0.0384  0.7741
13650TIP3    H262366   5.769   4.469  12.593  2.7359 -0.5067 -0.1767
13651TIP3   OH262367   5.634   1.114  16.310 -0.0615 -0.3584  0.0633
13651TIP3    H162368   5.665   1.138  16.223  1.9787 -0.5580  0.6752
13651TIP3    H262369   5.665   1.185  16.367 -0.0640 -0.9665  0.8361
13652TIP3   OH262370   1.567   0.755  15.723 -0.2132 -0.0554  0.1522
13652TIP3    H162371   1.503   0.740  15.792 -0.3095  2.3903  0.6889
13652TIP3    H262372   1.522   0.728  15.643 -0.1145 -2.9022  0.9351
13653TIP3   OH262373   1.584   1.095  16.527  0.3286 -0.4356  0.5917
13653TIP3    H162374   1.604   1.104  16.620 -0.8073 -0.1824  0.8328
13653TIP3    H262375   1.509   1.153  16.513 -0.2484 -1.3416 -0.2183
13654TIP3   OH262376   3.746   5.049   5.509  0.1128  0.0031 -0.0028
13654TIP3    H162377   3.782   4.962   5.525  0.0086 -0.3070 -1.3383
13654TIP3    H262378   3.822   5.103   5.486  0.0610  0.0021 -0.1835
13655TIP3   OH262379   3.585   2.175   3.309  0.5685 -0.0475  0.5652
13655TIP3    H162380   3.527   2.209   3.377  0.6558  0.5919  0.3297
13655TIP3    H262381   3.548   2.208   3.227  1.1246  0.1706  0.3966
13656TIP3   OH262382   0.234   5.756   3.576 -0.3363  0.1421 -0.5392
13656TIP3    H162383   0.299   5.788   3.639 -2.0090 -0.1983  1.4322
13656TIP3    H262384   0.283   5.694   3.522  1.0525  0.0851  0.7108
13657TIP3   OH262385   2.864   2.589  13.082 -0.0596  0.1463 -0.3047
13657TIP3    H162386   2.813   2.612  13.160  0.1852 -1.3453  0.3386
13657TIP3    H262387   2.801   2.590  13.010 -0.3285  1.3602 -0.0645
13658TIP3   OH262388   3.522   6.076  15.760  0.4894  0.4110 -0.7338
13658TIP3    H162389   3.587   6.005  15.767  0.4864  0.4088 -0.7316
13658TIP3    H262390   3.561   6.148  15.810  1.2582  0.9838 -2.0904
13659TIP3   OH262391   2.595   6.301   0.639 -0.1670 -0.0164  0.1787
13659TIP3    H162392   2.624   6.210   0.640 -2.3171 -0.7861  1.5387
13659TIP3    H262393   2.663   6.349   0.686  1.2213 -0.7996 -0.9638
13660TIP3   OH262394   4.029   0.410  11.239  0.1860 -0.4813  0.3283
13660TIP3    H162395   4.093   0.350  11.278  1.9458 -0.1395 -1.8077
13660TIP3    H262396   4.076   0.492  11.228 -1.2137  0.3583  0.3485
13661TIP3   OH262397   0.847   0.008  16.324  0.0575  0.4796  0.1727
13661TIP3    H162398   0.813  -0.032  16.244  0.6109 -0.4090  0.3708
13661TIP3    H262399   0.929   0.049  16.298  0.0716  0.4818  0.2204
13662TIP3   OH262400   3.233   6.565   0.283  0.1160  0.3441 -0.0381
13662TIP3    H162401   3.248   6.478   0.320 -0.2189 -0.7035 -2.2003
13662TIP3    H262402   3.156   6.598   0.329  0.2367 -0.5039  0.7989
13663TIP3   OH262403   6.643   6.215   0.615  0.3749 -0.2797  0.6366
13663TIP3    H162404   6.711   6.277   0.587  1.0540 -0.5269  1.6564
13663TIP3    H262405   6.648   6.217   0.711 -0.4475 -0.9901  0.7018
13664TIP3   OH262406   1.487   6.692  17.250 -0.5807  0.5224  0.4975
13664TIP3    H162407   1.409   6.726  17.295  0.3222  0.9550  1.8210
13664TIP3    H262408   1.550   6.677  17.321  0.7292  0.7202 -0.5891
13665TIP3   OH262409   3.456   5.968  11.648 -0.3629  0.4934  0.8322
13665TIP3    H162410   3.508   6.044  11.677  1.5043 -0.6592  0.6469
13665TIP3    H262411   3.441   5.983  11.555  1.0340  0.0995  0.5216
13666TIP3   OH262412   3.745   2.537  15.574 -0.3341  0.4329  0.1494
13666TIP3    H162413   3.695   2.471  15.526  0.0954  0.6738 -0.6520
13666TIP3    H262414   3.796   2.582  15.507  1.4270 -0.2133  0.9792
13667TIP3   OH262415   5.055   5.914  14.956  0.4830 -0.6194  0.0638
13667TIP3    H162416   5.075   6.007  14.952 -0.7648 -0.3200  0.4505
13667TIP3    H262417   5.103   5.882  15.033  0.0038 -0.0640  0.5989
13668TIP3   OH262418   0.686   4.671   2.365  0.1891 -0.9872 -0.7669
13668TIP3    H162419   0.641   4.697   2.445 -0.4492 -0.8240 -1.1725
13668TIP3    H262420   0.758   4.615   2.395  1.5239  1.0838  0.1220
13669TIP3   OH262421   6.454   4.774  12.272  0.3010  0.1343 -0.3278
13669TIP3    H162422   6.418   4.855  12.237  0.4995  0.3086 -0.1323
13669TIP3    H262423   6.442   4.781  12.367 -1.5314 -0.9497 -0.4185
13670TIP3   OH262424   0.718   5.698   1.552  0.2149  0.1890 -0.6234
13670TIP3    H162425   0.792   5.697   1.612 -0.2297  2.0129  0.0398
13670TIP3    H262426   0.645   5.732   1.605 -0.7270 -0.1939 -1.6392
13671TIP3   OH262427   2.513   5.538  14.339  0.0507  0.3856 -0.3502
13671TIP3    H162428   2.549   5.450  14.348  1.8284  1.0861 -0.1276
13671TIP3    H262429   2.418   5.525  14.333  0.2696 -1.5219 -0.3070
13672TIP3   OH262430   3.788   0.273  16.560  0.0601 -0.6541  0.9729
13672TIP3    H162431   3.825   0.275  16.472  0.3776  0.3310  1.1078
13672TIP3    H262432   3.728   0.199  16.560 -2.0206  0.8828 -0.9289
13673TIP3   OH262433   2.509   6.555  13.273 -0.4948 -0.0831 -0.0281
13673TIP3    H162434   2.531   6.463  13.287  0.1578  0.2214  1.0678
13673TIP3    H262435   2.477   6.584  13.359 -2.8802  0.1326 -0.9300
13674TIP3   OH262436   3.360   1.054  16.707 -0.5895 -0.1191  0.6621
13674TIP3    H162437   3.326   1.112  16.639 -2.4467  0.3292  1.9285
13674TIP3    H262438   3.430   1.105  16.749 -1.7065  0.9372  1.2786
13675TIP3   OH262439   0.347   3.972  13.567 -0.7252 -0.4092 -0.0354
13675TIP3    H162440   0.278   4.008  13.622 -0.4542  1.0682 -0.6188
13675TIP3    H262441   0.423   3.965  13.626 -0.6788  0.3368 -0.0025
13676TIP3   OH262442   5.974   1.607  13.469  0.1039 -0.0753 -0.1054
13676TIP3    H162443   5.909   1.654  13.417 -1.4617 -1.6809  0.3231
13676TIP3    H262444   5.969   1.516  13.438  1.7682 -0.3504  0.3240
13677TIP3   OH262445   5.548   2.693   1.229  0.1237  0.1331  0.1146
13677TIP3    H162446   5.569   2.623   1.166 -4.2523  0.2401 -1.8497
13677TIP3    H262447   5.546   2.649   1.314  0.0339 -1.5378 -0.7070
13678TIP3   OH262448   3.821   3.011   4.722 -0.5539 -0.3324  0.2293
13678TIP3    H162449   3.807   2.920   4.693 -0.4670 -0.0611 -0.6983
13678TIP3    H262450   3.882   3.047   4.658 -0.0752  0.1940  0.9667
13679TIP3   OH262451   1.941   3.499  15.087  0.2915  0.2138 -0.4202
13679TIP3    H162452   1.875   3.524  15.023 -1.5408 -1.1189  0.8639
13679TIP3    H262453   1.947   3.404  15.080  0.7222  0.1302  0.7677
13680TIP3   OH262454   5.813   3.377   0.245  0.4503  0.3967  0.1473
13680TIP3    H162455   5.815   3.472   0.234 -0.4111  0.2095 -2.2241
13680TIP3    H262456   5.869   3.361   0.321  0.9898  2.7364  0.3377
13681TIP3   OH262457   1.530   3.502   4.551  0.5882 -0.1473 -0.7330
13681TIP3    H162458   1.444   3.467   4.528  0.0274  1.1880 -0.7188
13681TIP3    H262459   1.526   3.515   4.646  0.9110 -0.3382 -0.6905
13682TIP3   OH262460   4.646   1.473  15.636  0.3969 -0.3183 -0.3315
13682TIP3    H162461   4.623   1.385  15.606  1.8001 -0.8736  0.1536
13682TIP3    H262462   4.618   1.475  15.727 -0.3817  0.0443 -0.5660
13683TIP3   OH262463   4.603   4.492   0.101  0.6992  0.2043 -0.3642
13683TIP3    H162464   4.594   4.570   0.046  0.9670  1.0251  0.7261
13683TIP3    H262465   4.690   4.459   0.080  1.3980  1.3520  0.5941
13684TIP3   OH262466   6.608   3.336  12.264  0.5812 -0.5200 -0.4162
13684TIP3    H162467   6.572   3.425  12.271  1.6431 -0.0239 -1.1005
13684TIP3    H262468   6.532   3.281  12.243  0.1930  0.4996 -1.8466
13685TIP3   OH262469   0.525   2.136   0.203 -0.1544  0.0066 -0.2480
13685TIP3    H162470   0.548   2.175   0.119 -1.5333  0.2243 -0.5544
13685TIP3    H262471   0.587   2.065   0.215  2.2589  2.0550  0.1885
13686TIP3   OH262472   3.588   1.931  17.059  0.1490  0.3388  0.5095
13686TIP3    H162473   3.532   1.853  17.064  0.0801  0.4007  0.7591
13686TIP3    H262474   3.527   2.004  17.063 -0.1066  0.4679 -3.1593
13687TIP3   OH262475   4.180   0.091   1.360 -0.2718  0.4302 -0.2436
13687TIP3    H162476   4.163   0.019   1.420 -0.3977 -0.7133 -1.6071
13687TIP3    H262477   4.271   0.115   1.376 -0.4965  0.6210  0.8625
13688TIP3   OH262478   4.304   6.016  13.131  0.7650 -0.4092 -0.2793
13688TIP3    H162479   4.383   5.969  13.105  0.5457 -0.8000 -0.2407
13688TIP3    H262480   4.232   5.956  13.112  0.4734 -0.0586 -0.3106
13689TIP3   OH262481   0.616   5.048  15.084  0.2885 -0.1322  0.1805
13689TIP3    H162482   0.552   5.045  15.013  0.2716 -2.2252  0.2285
13689TIP3    H262483   0.679   4.979  15.063  1.2375  0.3402  1.3418
13690TIP3   OH262484   3.424   1.361   6.116 -0.0762  0.2882 -0.7451
13690TIP3    H162485   3.438   1.343   6.209  1.6222  0.4922 -0.9424
13690TIP3    H262486   3.330   1.379   6.110 -0.5825 -1.5784  0.5919
13691TIP3   OH262487   4.311   0.528   4.230  0.9380 -0.2742 -0.4911
13691TIP3    H162488   4.264   0.573   4.159  0.0301 -1.0520 -0.3957
13691TIP3    H262489   4.327   0.597   4.295 -0.4721 -0.0696 -0.3230
13692TIP3   OH262490   3.076   3.231   4.725  0.4504  0.0172  0.2754
13692TIP3    H162491   3.103   3.185   4.645  0.5937 -0.8119  0.7889
13692TIP3    H262492   3.159   3.254   4.768  0.3675 -0.3322  0.6260
13693TIP3   OH262493   0.700   3.335  13.292 -0.3163 -0.3659 -0.1873
13693TIP3    H162494   0.784   3.380  13.304 -0.8066  0.0898  2.0125
13693TIP3    H262495   0.723   3.252  13.251  1.1839 -0.1278  0.0990
13694TIP3   OH262496   1.883   1.613   5.653 -0.0086 -0.0836  0.5764
13694TIP3    H162497   1.912   1.579   5.568 -0.0395 -0.9125  0.8877
13694TIP3    H262498   1.877   1.708   5.640 -1.4575 -0.3198 -0.7774
13695TIP3   OH262499   4.405   5.983   4.055  0.1817 -0.1543  0.6342
13695TIP3    H162500   4.334   5.996   4.118 -2.1456 -0.2331 -1.8303
13695TIP3    H262501   4.434   6.071   4.033 -0.7551  0.0112 -0.0153
13696TIP3   OH262502   0.655   2.542  13.893  0.0573 -0.3630  0.5726
13696TIP3    H162503   0.729   2.539  13.954  0.6003 -1.0687 -0.0995
13696TIP3    H262504   0.577   2.540  13.949  0.5447 -0.0179  1.2728
13697TIP3   OH262505   0.538   3.924   1.641  0.7986  0.4605  0.3018
13697TIP3    H162506   0.581   3.998   1.684 -1.5041  2.7291 -1.0020
13697TIP3    H262507   0.473   3.894   1.705 -0.2108  1.5204 -0.1786
13698TIP3   OH262508   0.436   0.590   3.693  0.1997  0.4251 -1.1821
13698TIP3    H162509   0.404   0.518   3.639 -1.1017 -0.5597  0.7705
13698TIP3    H262510   0.392   0.578   3.777  0.2404  3.2885 -0.6491
13699TIP3   OH262511   2.006   2.735  11.770  0.4442  0.2424  0.8678
13699TIP3    H162512   1.961   2.794  11.710  1.4859 -1.5918 -1.8815
13699TIP3    H262513   2.078   2.787  11.806 -0.7752  1.6547  1.3591
13700TIP3   OH262514   1.009   3.549   4.084 -0.4506  0.1927 -0.8801
13700TIP3    H162515   0.966   3.537   3.999 -1.0409 -1.3301 -0.4042
13700TIP3    H262516   0.965   3.486   4.142 -0.8335  1.9404  0.8508
13701TIP3   OH262517   5.258   4.488   0.105 -0.1968  0.3431 -0.1015
13701TIP3    H162518   5.321   4.417   0.109 -0.1744  0.4166  1.2938
13701TIP3    H262519   5.306   4.561   0.067 -0.0985 -0.2415 -1.1376
13702TIP3   OH262520   5.590   0.978  13.081 -0.8749 -0.3046  0.0365
13702TIP3    H162521   5.494   0.978  13.088 -0.8165 -1.2302  1.1175
13702TIP3    H262522   5.608   1.028  13.001 -2.3129 -1.3146 -0.9758
13703TIP3   OH262523   5.950   1.227  12.164  0.6442 -0.0549 -0.0018
13703TIP3    H162524   5.977   1.153  12.111 -0.0315 -0.2501 -0.0805
13703TIP3    H262525   5.856   1.214  12.179  0.5011  0.8069 -0.0654
13704TIP3   OH262526   3.411   0.130   2.246  0.0356  0.0692 -0.0135
13704TIP3    H162527   3.413   0.212   2.197 -0.7614 -0.5071 -1.0540
13704TIP3    H262528   3.346   0.145   2.315 -0.6933  0.0691 -0.6836
13705TIP3   OH262529   0.255   5.538   2.612  0.0916  0.3852  0.3558
13705TIP3    H162530   0.193   5.605   2.641 -0.4820 -0.0643  0.1866
13705TIP3    H262531   0.282   5.493   2.692 -0.7193 -0.1935  0.3208
13706TIP3   OH262532   0.114   1.511   5.154 -0.4356  0.3992  0.6492
13706TIP3    H162533   0.108   1.552   5.067 -0.3391  1.3160  1.0627
13706TIP3    H262534   0.039   1.546   5.202  0.2445  0.9394  1.3531
13707TIP3   OH262535   3.418   4.562   6.185 -0.7991 -0.0586 -0.7350
13707TIP3    H162536   3.497   4.549   6.132  0.8288  0.3286  1.4379
13707TIP3    H262537   3.433   4.646   6.229 -1.0819 -1.2483  1.8361
13708TIP3   OH262538   4.449   3.934  16.641  0.4927  0.5824 -0.0739
13708TIP3    H162539   4.512   4.006  16.648  0.8155  0.2007  1.4355
13708TIP3    H262540   4.497   3.858  16.676 -0.9504  0.4052  1.6849
13709TIP3   OH262541   2.925   5.797   1.532 -0.1622  0.0091 -0.2474
13709TIP3    H162542   2.939   5.743   1.610 -1.6278 -1.2353 -0.7972
13709TIP3    H262543   2.831   5.793   1.516 -0.0118  0.9853 -1.5666
13710TIP3   OH262544   1.926   5.908   3.928  0.1973 -0.2718  0.5691
13710TIP3    H162545   1.919   5.818   3.958  0.0769  0.6358  3.5912
13710TIP3    H262546   2.008   5.940   3.966  1.3437  0.3812 -2.1980
13711TIP3   OH262547   0.877   1.898  11.840 -0.6273  0.4650 -0.0408
13711TIP3    H162548   0.791   1.856  11.841  0.6406 -2.3340  1.3368
13711TIP3    H262549   0.864   1.981  11.887 -2.5212 -0.0187  0.3590
13712TIP3   OH262550   5.534   0.234  11.190 -0.3723  0.2536  0.0222
13712TIP3    H162551   5.497   0.234  11.278 -0.5006  1.4867 -0.0173
13712TIP3    H262552   5.593   0.159  11.189 -0.4503  0.1619  1.1200
13713TIP3   OH262553   3.211   2.946  14.687 -0.0931  0.1976 -0.1484
13713TIP3    H162554   3.131   3.000  14.682 -0.3067 -0.2221 -1.6527
13713TIP3    H262555   3.275   2.993  14.633  0.2013 -0.2526 -0.1955
13714TIP3   OH262556   4.661   5.467   0.723 -0.2791 -0.8217 -0.6139
13714TIP3    H162557   4.599   5.484   0.652 -1.6236 -1.8632  0.2598
13714TIP3    H262558   4.637   5.529   0.791 -0.1028 -0.9701 -0.4144
13715TIP3   OH262559   2.021   4.930   4.478  0.0730  0.6881  0.3131
13715TIP3    H162560   1.926   4.921   4.471  0.2093  0.4496 -2.7530
13715TIP3    H262561   2.043   5.002   4.419  1.8312  0.4914  0.6685
13716TIP3   OH262562   5.233   4.814  16.588  0.7657  0.1642  0.3658
13716TIP3    H162563   5.185   4.737  16.618 -0.3527  0.3134 -0.9391
13716TIP3    H262564   5.324   4.788  16.587  0.2771 -1.6496 -1.4761
13717TIP3   OH262565   3.205   4.935   0.780 -0.3191 -0.2068 -0.6030
13717TIP3    H162566   3.298   4.953   0.767 -0.5264  1.0802 -0.4906
13717TIP3    H262567   3.164   5.022   0.780 -1.1676 -0.5072  2.0778
13718TIP3   OH262568   2.323   5.556   3.226 -0.1444  0.6675 -0.6084
13718TIP3    H162569   2.393   5.541   3.290 -1.2966  1.1399  0.8025
13718TIP3    H262570   2.267   5.622   3.266 -2.4002 -0.9735 -0.8717
13719TIP3   OH262571   6.321   1.615   3.238  0.1242 -0.2629 -0.1211
13719TIP3    H162572   6.361   1.529   3.248 -1.0163 -0.5179  3.9989
13719TIP3    H262573   6.227   1.601   3.250 -0.1129  1.5009  0.5233
13720TIP3   OH262574   4.919   1.494  13.104 -0.1931  0.3595  0.1652
13720TIP3    H162575   4.826   1.481  13.090  0.0200 -2.8070  0.9047
13720TIP3    H262576   4.962   1.448  13.032  0.7609 -0.7397  1.3747
13721TIP3   OH262577   1.250   5.027  16.834 -0.3314  0.1925 -0.2903
13721TIP3    H162578   1.220   5.061  16.750 -1.8692 -1.7331 -0.6120
13721TIP3    H262579   1.269   4.934  16.817  0.6003  0.0717  1.2059
13722TIP3   OH262580   2.706   1.010   3.625  0.3356  0.8939  0.0749
13722TIP3    H162581   2.675   1.028   3.713 -1.7307 -0.9022 -0.1803
13722TIP3    H262582   2.788   0.962   3.637 -0.1687  0.2456  1.0635
13723TIP3   OH262583   3.923   0.132  11.032 -0.1708  0.3879 -0.2442
13723TIP3    H162584   4.001   0.102  10.983  2.0067  1.1792  2.5025
13723TIP3    H262585   3.920   0.226  11.017 -0.6635  0.3479 -0.4018
13724TIP3   OH262586   1.688   5.920  14.421 -0.2787 -0.2427 -0.1286
13724TIP3    H162587   1.607   5.932  14.372  0.5996  1.1956 -1.2879
13724TIP3    H262588   1.676   5.970  14.501 -0.2700  0.5776 -0.6363
13725TIP3   OH262589   1.377   6.253  10.457 -0.2575  0.3199 -0.2934
13725TIP3    H162590   1.334   6.194  10.518  0.0392  0.1723 -0.2232
13725TIP3    H262591   1.306   6.299  10.413 -0.5181 -0.5835 -0.8445
13726TIP3   OH262592   3.618   3.513  13.515  0.0458  0.8998 -0.8993
13726TIP3    H162593   3.628   3.605  13.538 -0.1908  0.7346 -0.0984
13726TIP3    H262594   3.690   3.469  13.561 -1.1144  0.4098  0.5089
13727TIP3   OH262595   5.327   0.541   4.531  0.4521 -0.8245  0.3020
13727TIP3    H162596   5.372   0.610   4.580  1.5963 -2.2619  1.3698
13727TIP3    H262597   5.247   0.583   4.498  1.5131  1.2058  0.1894
13728TIP3   OH262598   1.964   1.754   1.356  0.2797 -0.0046  0.0642
13728TIP3    H162599   1.994   1.687   1.417 -1.8317 -0.7409  0.3607
13728TIP3    H262600   1.927   1.822   1.411  1.8905  1.2026 -0.2643
13729TIP3   OH262601   2.773   6.269  12.730  0.5157 -0.4474 -0.0554
13729TIP3    H162602   2.721   6.189  12.737 -1.7038  0.7266 -1.8188
13729TIP3    H262603   2.758   6.315  12.813 -1.5061 -0.0806 -0.5639
13730TIP3   OH262604   4.446   1.405   5.842 -0.1184  0.6596  0.2235
13730TIP3    H162605   4.471   1.457   5.766  0.5355 -0.3177 -0.2513
13730TIP3    H262606   4.368   1.356   5.814  1.6896 -1.8259 -0.8600
13731TIP3   OH262607   4.310   1.191   4.254  0.1867  0.5106 -0.5301
13731TIP3    H162608   4.361   1.267   4.282 -0.6123  0.4757  1.1400
13731TIP3    H262609   4.240   1.184   4.319 -1.2246 -0.1831 -2.0526
13732TIP3   OH262610   0.631   2.874  12.411  0.3039  0.5637  0.1918
13732TIP3    H162611   0.654   2.855  12.320 -1.2145 -0.0496 -0.0862
13732TIP3    H262612   0.709   2.917  12.446  1.2737 -0.0330 -1.1207
13733TIP3   OH262613   5.816   4.673   4.463 -0.0624  0.1480  0.5584
13733TIP3    H162614   5.781   4.747   4.513  1.3390  0.4309  1.1633
13733TIP3    H262615   5.821   4.601   4.526  0.0643 -0.0010  0.3806
13734TIP3   OH262616   5.747   4.347   2.632  0.6084 -0.0738 -0.1118
13734TIP3    H162617   5.828   4.398   2.640 -0.4072  1.6196  0.0166
13734TIP3    H262618   5.729   4.348   2.538 -0.3016  1.3611  0.0398
13735TIP3   OH262619   5.723   3.014  12.846  0.4475  0.0340 -0.4826
13735TIP3    H162620   5.659   3.033  12.914  0.4276 -1.7550  0.0420
13735TIP3    H262621   5.728   3.094  12.794  0.4584  1.4485  1.6110
13736TIP3   OH262622   2.213   4.412   2.406  0.0723 -0.0213  0.0130
13736TIP3    H162623   2.269   4.462   2.346 -0.6529  0.6889 -0.0951
13736TIP3    H262624   2.253   4.426   2.492 -1.6970  3.2735  0.4810
13737TIP3   OH262625   3.460   2.161   6.364  0.2034 -0.2154  0.2139
13737TIP3    H162626   3.544   2.205   6.368 -0.0426  0.2899 -0.1935
13737TIP3    H262627   3.416   2.197   6.287  0.0186 -1.1987 -0.1640
13738TIP3   OH262628   5.336   3.698   4.665 -0.0812  0.3353  0.8346
13738TIP3    H162629   5.372   3.613   4.693 -2.7625 -1.3508 -0.3767
13738TIP3    H262630   5.338   3.751   4.745  2.5592 -0.4550  1.4130
13739TIP3   OH262631   6.227   5.585  12.189 -0.3812 -0.5041  0.2169
13739TIP3    H162632   6.138   5.551  12.179  0.1508 -1.8427 -0.2904
13739TIP3    H262633   6.221   5.676  12.160 -2.0138  0.1143  2.2725
13740TIP3   OH262634   3.115   3.106   1.130 -0.0684 -1.2138  0.5610
13740TIP3    H162635   3.134   3.200   1.123 -1.3741 -1.0103 -0.6760
13740TIP3    H262636   3.089   3.094   1.221 -0.9021 -0.1569  0.4793
13741TIP3   OH262637   2.405   6.248  13.694 -0.2430  0.4848 -0.2952
13741TIP3    H162638   2.476   6.293  13.646 -1.1472  0.3836 -1.7895
13741TIP3    H262639   2.411   6.157  13.665  0.1038  0.1102  0.9250
13742TIP3   OH262640   0.214   4.635   1.111 -0.5355  0.1018 -0.0073
13742TIP3    H162641   0.220   4.695   1.185  1.3459  0.5349 -0.4635
13742TIP3    H262642   0.302   4.601   1.100 -1.4124 -2.3259 -0.1498
13743TIP3   OH262643   1.085   2.808   5.658 -0.0903  0.1311 -0.0560
13743TIP3    H162644   1.023   2.750   5.702  0.3224 -1.1698 -1.1549
13743TIP3    H262645   1.169   2.790   5.700  0.2276 -0.8208 -1.0622
13744TIP3   OH262646   1.646   3.892  11.303  0.6212 -0.7475 -0.1873
13744TIP3    H162647   1.581   3.874  11.236  0.6422 -1.1348 -0.1076
13744TIP3    H262648   1.594   3.906  11.383  0.6578 -1.6372  0.0019
13745TIP3   OH262649   6.069   0.641   2.201  0.1003  0.2943  0.0665
13745TIP3    H162650   6.077   0.547   2.219  1.4739  0.2450 -0.6885
13745TIP3    H262651   6.070   0.682   2.287  1.5497 -0.2534  0.3286
13746TIP3   OH262652   0.205   2.301   2.580 -0.6446 -0.0537  0.3248
13746TIP3    H162653   0.283   2.253   2.605  0.0165 -0.1001 -1.6124
13746TIP3    H262654   0.231   2.393   2.581 -0.6664 -0.0421  0.0674
13747TIP3   OH262655   5.661   6.063  15.865  0.1495 -0.1328 -0.2548
13747TIP3    H162656   5.622   6.121  15.930  1.5678  0.4084  0.1503
13747TIP3    H262657   5.729   6.116  15.823 -0.0720 -0.7905 -1.4922
13748TIP3   OH262658   4.497   2.524  17.336  0.1652 -0.0252  0.1488
13748TIP3    H162659   4.569   2.462  17.325 -0.8497 -1.2004 -0.1266
13748TIP3    H262660   4.481   2.559  17.249 -0.2202 -0.5122  0.0152
13749TIP3   OH262661   3.861   1.640   5.740 -0.0251  0.1574  0.0423
13749TIP3    H162662   3.790   1.637   5.804 -1.1288 -1.1780 -1.1818
13749TIP3    H262663   3.911   1.718   5.764 -0.5529 -0.1352  2.3318
13750TIP3   OH262664   4.989   3.754  15.620 -0.3404 -0.2971  0.2429
13750TIP3    H162665   4.920   3.774  15.558  0.7896 -0.8717 -1.2548
13750TIP3    H262666   4.993   3.831  15.677 -0.1802  1.1130 -1.5667
13751TIP3   OH262667   4.883   0.898   5.910  0.5013 -0.8417  0.0263
13751TIP3    H162668   4.818   0.830   5.891  0.8232 -0.6846 -1.8470
13751TIP3    H262669   4.909   0.883   6.001 -2.1532 -0.8929  0.8502
13752TIP3   OH262670   3.692   3.341   2.131 -0.3690 -0.2856  0.6558
13752TIP3    H162671   3.635   3.389   2.071  0.5167 -0.2016 -0.1487
13752TIP3    H262672   3.645   3.342   2.215 -0.5413  1.6959  0.5880
13753TIP3   OH262673   2.580   5.903  16.427  0.1637 -0.4220 -0.3860
13753TIP3    H162674   2.626   5.879  16.346  1.2749  0.3118 -0.0004
13753TIP3    H262675   2.613   5.842  16.492  1.2435  0.6041  0.0718
13754TIP3   OH262676   4.280   5.228  13.573 -0.0115 -0.2474  0.3483
13754TIP3    H162677   4.277   5.168  13.647  1.8482 -2.1540 -1.0068
13754TIP3    H262678   4.191   5.226  13.537 -0.6395 -0.1579  1.8214
13755TIP3   OH262679   4.162   6.356  11.215 -0.6144  0.1387  0.8513
13755TIP3    H162680   4.166   6.370  11.121  1.7397 -1.0737  0.6869
13755TIP3    H262681   4.253   6.337  11.240 -1.3717 -0.8230  3.1526
13756TIP3   OH262682   2.845   3.559   1.160  0.1574 -0.5817  0.0242
13756TIP3    H162683   2.841   3.469   1.126  1.1336 -0.4143 -0.5729
13756TIP3    H262684   2.937   3.583   1.151 -0.1282  0.5381  0.0501
13757TIP3   OH262685   4.367   4.214  14.874  0.3955 -0.2059 -0.0136
13757TIP3    H162686   4.365   4.285  14.809 -0.1081  0.3940  0.6400
13757TIP3    H262687   4.444   4.233  14.928 -0.6449  0.8242  1.1954
13758TIP3   OH262688   4.349   3.272   1.500  0.1040  0.0257  0.3627
13758TIP3    H162689   4.284   3.337   1.527  1.0808  0.6459  1.3676
13758TIP3    H262690   4.322   3.191   1.542 -0.4672  0.0690  0.0881
13759TIP3   OH262691   4.932   4.168   0.638 -0.7358 -0.1959  0.5176
13759TIP3    H162692   4.864   4.221   0.595  0.0513  0.8745  0.5394
13759TIP3    H262693   4.994   4.148   0.569  0.2321  1.0323  0.9848
13760TIP3   OH262694   1.237   4.950  12.943 -0.0181 -0.1446 -0.1519
13760TIP3    H162695   1.292   4.892  12.997  3.0082 -0.2264 -2.9946
13760TIP3    H262696   1.262   5.038  12.970 -0.3711 -0.1750  0.2773
13761TIP3   OH262697   4.822   1.891  12.854 -0.1743 -0.8760 -0.0111
13761TIP3    H162698   4.862   1.941  12.783 -1.5437  1.2467  0.5930
13761TIP3    H262699   4.818   1.953  12.927 -1.3121 -2.1163  1.0236
13762TIP3   OH262700   3.589   4.643  11.641 -0.8558 -0.0235  0.3430
13762TIP3    H162701   3.609   4.682  11.726 -0.7780 -1.1109  0.8334
13762TIP3    H262702   3.633   4.700  11.578 -0.1586  0.2836  1.0874
13763TIP3   OH262703   4.821   4.159  17.236  0.1160 -0.8057  0.2528
13763TIP3    H162704   4.903   4.110  17.233 -0.4162 -1.9397  2.2477
13763TIP3    H262705   4.833   4.222  17.307 -1.0995 -1.7666  1.3525
13764TIP3   OH262706   2.804   6.159  13.103 -0.5592 -0.8555 -0.5656
13764TIP3    H162707   2.795   6.246  13.066 -1.1986 -0.3417  0.7345
13764TIP3    H262708   2.842   6.106  13.032 -1.2486  0.1878 -1.7458
13765TIP3   OH262709   2.254   4.074   1.380 -0.2679  0.0142 -0.0422
13765TIP3    H162710   2.330   4.131   1.372 -0.6502  0.8705  1.8249
13765TIP3    H262711   2.211   4.079   1.295  1.0635  0.5020 -0.7217
13766TIP3   OH262712   4.078   3.266   2.647 -0.2841 -0.5115 -1.2245
13766TIP3    H162713   4.149   3.290   2.707  0.1724 -2.0775 -1.1049
13766TIP3    H262714   4.011   3.333   2.662  0.1823 -0.3556  0.4031
13767TIP3   OH262715   1.841   0.769   1.082  0.0189 -0.0732 -0.3396
13767TIP3    H162716   1.889   0.691   1.111  0.9331  0.7862  0.5665
13767TIP3    H262717   1.852   0.770   0.987  0.0912 -0.9887 -0.3461
13768TIP3   OH262718   0.047   5.253  13.042  0.2253  0.6019  0.0865
13768TIP3    H162719   0.051   5.346  13.062 -1.3710  0.2322  2.6803
13768TIP3    H262720  -0.047   5.234  13.036  0.5364 -0.6050 -1.9021
13769TIP3   OH262721   4.335   3.324   3.209  0.3338 -0.2366  0.4362
13769TIP3    H162722   4.322   3.294   3.119  1.4967  0.9836 -0.1926
13769TIP3    H262723   4.247   3.339   3.242 -0.1924 -2.4494  0.1570
13770TIP3   OH262724   1.778   2.749  13.545 -0.5661  0.0745 -0.6016
13770TIP3    H162725   1.781   2.681  13.478 -1.7492 -0.5102 -0.0946
13770TIP3    H262726   1.730   2.821  13.503 -0.3950  0.1129 -0.7307
13771TIP3   OH262727   5.599   5.809   3.579 -0.0833  0.0835  0.6501
13771TIP3    H162728   5.506   5.825   3.565  0.1895  1.8767  0.7077
13771TIP3    H262729   5.643   5.872   3.521  1.0858  0.0558  1.4775
13772TIP3   OH262730   3.696   0.685   1.110  0.0277 -0.1827 -0.5179
13772TIP3    H162731   3.771   0.744   1.104  0.0199  0.1379  1.7282
13772TIP3    H262732   3.731   0.601   1.079  0.5361  0.5242 -1.9994
13773TIP3   OH262733   5.482   2.062  11.591  0.4402  0.1916  0.1525
13773TIP3    H162734   5.512   1.971  11.582 -2.1422 -0.7976  0.6435
13773TIP3    H262735   5.398   2.055  11.637 -0.2450  2.7598 -0.5465
13774TIP3   OH262736   6.602   3.252   1.230  0.2604  0.0056 -0.0789
13774TIP3    H162737   6.673   3.196   1.195  0.9607  0.9959 -0.2845
13774TIP3    H262738   6.622   3.260   1.323 -1.0493 -1.8126  0.4176
13775TIP3   OH262739   4.129   6.623  11.352  0.1284  0.0321  0.1846
13775TIP3    H162740   4.152   6.532  11.336 -0.6327  0.0868 -1.4592
13775TIP3    H262741   4.178   6.672  11.285 -0.1330  0.7271  0.4942
13776TIP3   OH262742   0.620   2.570  10.539 -0.1741 -0.3715  0.0359
13776TIP3    H162743   0.654   2.535  10.457  1.1794  0.4075  0.2318
13776TIP3    H262744   0.547   2.626  10.514 -0.4166 -0.9343 -0.5324
13777TIP3   OH262745   0.431   1.050  16.374  0.1675 -0.7116  0.3581
13777TIP3    H162746   0.353   1.053  16.429  0.8093 -2.0309  1.3809
13777TIP3    H262747   0.438   1.139  16.339 -2.0681 -0.6822 -0.1838
13778TIP3   OH262748   6.569   1.083  15.838 -0.1905 -0.2494 -0.4512
13778TIP3    H162749   6.619   1.093  15.919 -0.9594 -0.0303  0.0011
13778TIP3    H262750   6.611   1.143  15.776 -0.5806  0.7485  0.2459
13779TIP3   OH262751   2.060   3.569   2.569 -0.3421  0.4807 -0.3909
13779TIP3    H162752   2.049   3.627   2.493 -0.4891 -0.4857 -1.1375
13779TIP3    H262753   1.999   3.603   2.634  0.3953  1.8295 -0.3855
13780TIP3   OH262754   6.609   2.716  11.445 -0.0471  0.0913  0.6795
13780TIP3    H162755   6.633   2.794  11.395  1.5923 -1.3827 -0.9774
13780TIP3    H262756   6.547   2.669  11.389 -0.2092 -0.3247  1.1941
13781TIP3   OH262757   0.909   6.679  14.108 -0.1216 -0.5887 -0.2778
13781TIP3    H162758   0.929   6.615  14.175  0.7822  0.5682  0.6047
13781TIP3    H262759   0.979   6.744  14.115 -1.0651  0.5584 -1.0492
13782TIP3   OH262760   5.648   6.698   1.639 -0.0509  0.5580 -0.1571
13782TIP3    H162761   5.714   6.632   1.618 -0.5043  0.0987 -0.1563
13782TIP3    H262762   5.690   6.782   1.617  0.4638  0.2623 -0.3220
13783TIP3   OH262763   5.517   6.139  10.905  0.3857  0.0255 -0.2781
13783TIP3    H162764   5.587   6.163  10.966  0.7760 -1.4669 -0.1014
13783TIP3    H262765   5.440   6.127  10.960  0.4416 -0.1263 -0.2324
13784TIP3   OH262766   4.805   5.517  16.218 -0.2792  0.0547 -0.2165
13784TIP3    H162767   4.813   5.475  16.133 -0.4967 -0.7823  0.1715
13784TIP3    H262768   4.885   5.492  16.265 -1.5638 -2.1682  0.9708
13785TIP3   OH262769   5.705   6.645   5.235  0.0605  0.5788 -0.4000
13785TIP3    H162770   5.792   6.607   5.236 -0.0595  0.3092 -0.2466
13785TIP3    H262771   5.711   6.716   5.171  0.6688  1.2192  0.3468
13786TIP3   OH262772   3.778   1.452   4.727  0.3020  0.3031 -0.3100
13786TIP3    H162773   3.755   1.538   4.764 -0.3721 -0.5064  1.2247
13786TIP3    H262774   3.769   1.391   4.800 -0.6435 -1.3157 -1.7051
13787TIP3   OH262775   4.916   4.415  16.123  0.1389  0.2510 -0.3678
13787TIP3    H162776   5.002   4.415  16.165  0.7804 -0.0831 -1.6253
13787TIP3    H262777   4.881   4.503  16.141  0.9763  0.5784 -0.2836
13788TIP3   OH262778   5.420   5.045   3.493  0.2644  0.3352  0.3521
13788TIP3    H162779   5.477   5.065   3.420 -1.1055 -2.8981 -1.7974
13788TIP3    H262780   5.459   4.969   3.535 -0.5461  0.3290  1.1379
13789TIP3   OH262781   1.309   3.417  14.409 -0.5710  0.4174  0.0970
13789TIP3    H162782   1.288   3.330  14.375  0.7851  0.5700 -1.2293
13789TIP3    H262783   1.403   3.426  14.394 -0.8411  2.4519 -0.6132
13790TIP3   OH262784   1.983   5.116  14.014  0.5081  0.5250  0.1104
13790TIP3    H162785   2.042   5.054  14.057  0.9377  3.1822  3.8105
13790TIP3    H262786   1.895   5.079  14.028  0.8801 -0.4776 -0.0930
13791TIP3   OH262787   0.117   5.844   4.537  0.1113 -0.3088 -0.0227
13791TIP3    H162788   0.112   5.756   4.574 -0.7110  0.0044  0.6258
13791TIP3    H262789   0.063   5.840   4.458  1.9418 -1.0024 -1.3279
13792TIP3   OH262790   4.637   6.201  17.103  0.5614  0.0759 -0.3358
13792TIP3    H162791   4.659   6.157  17.185 -1.8319  1.3083  1.0863
13792TIP3    H262792   4.548   6.235  17.118 -0.9834 -1.6382 -4.2395
13793TIP3   OH262793   0.239   0.809   3.824 -0.1314 -0.2949 -0.2687
13793TIP3    H162794   0.243   0.898   3.789 -0.0848 -0.6812 -1.2827
13793TIP3    H262795   0.260   0.819   3.917  1.6778  0.5538 -0.7113
13794TIP3   OH262796   6.586   5.397   3.957  0.5919  0.5800 -0.7078
13794TIP3    H162797   6.530   5.320   3.943  1.0076 -0.1367  1.2784
13794TIP3    H262798   6.674   5.368   3.930  0.4528  0.9406 -1.5846
13795TIP3   OH262799   2.501   2.751  13.589 -0.0871  0.1648  0.1872
13795TIP3    H162800   2.471   2.686  13.525  0.7329  1.3979 -1.5479
13795TIP3    H262801   2.581   2.713  13.627 -1.1615 -1.0487  1.3411
13796TIP3   OH262802   0.684   1.914  16.183 -0.3692  0.4316 -0.7085
13796TIP3    H162803   0.671   1.989  16.125 -0.1611  0.1361 -1.1376
13796TIP3    H262804   0.732   1.850  16.130  0.0510  0.2644 -0.1330
13797TIP3   OH262805   3.240   3.092   2.351  0.4544 -0.0967  0.1500
13797TIP3    H162806   3.175   3.079   2.420  1.1092 -1.0549  0.6014
13797TIP3    H262807   3.323   3.102   2.397  0.7466  0.3778 -0.4607
13798TIP3   OH262808   6.664   5.539  14.524  0.4060  0.6948  0.1341
13798TIP3    H162809   6.647   5.496  14.440  0.3947  1.4122 -0.2335
13798TIP3    H262810   6.699   5.625  14.501  0.6527  0.7965  0.8661
13799TIP3   OH262811   4.549   6.124  15.958  0.1667  0.4036  0.6038
13799TIP3    H162812   4.632   6.077  15.961  0.8793  1.5772  0.1333
13799TIP3    H262813   4.483   6.057  15.939  1.2472 -0.2873 -0.8635
13800TIP3   OH262814   4.672   5.076  12.853  0.5030  0.1049 -0.2516
13800TIP3    H162815   4.576   5.082  12.846  0.6289  0.9120 -1.8766
13800TIP3    H262816   4.699   5.166  12.873  0.9767  0.1187 -0.9289
13801TIP3   OH262817   2.804   3.231   6.272  0.1979 -0.4281  0.2527
13801TIP3    H162818   2.730   3.263   6.221  1.6953 -0.1102 -1.8208
13801TIP3    H262819   2.845   3.311   6.307 -0.1035 -0.5718  0.9554
13802TIP3   OH262820   3.164   6.409  16.111  1.0495  0.3961 -0.2255
13802TIP3    H162821   3.143   6.446  16.026  0.1731  1.9168  0.5945
13802TIP3    H262822   3.083   6.419  16.162  2.0239  1.0657  1.2781
13803TIP3   OH262823   3.584   6.353  11.430  0.6394  0.1380  0.3670
13803TIP3    H162824   3.625   6.324  11.349  0.8523 -0.3685  0.6519
13803TIP3    H262825   3.559   6.444  11.414  0.9812  0.1399 -0.1474
13804TIP3   OH262826   5.776   1.115  12.905  0.1053 -0.3793 -0.3129
13804TIP3    H162827   5.719   1.183  12.869  0.8680  0.4982  0.1077
13804TIP3    H262828   5.818   1.075  12.828 -0.9866 -0.9809 -0.6203
13805TIP3   OH262829   3.663   2.908  16.297  0.3050 -0.8856  0.1855
13805TIP3    H162830   3.708   2.828  16.324 -0.3653 -1.7834 -1.2539
13805TIP3    H262831   3.580   2.907  16.344  1.6702  0.8035  2.8914
13806TIP3   OH262832   3.277   1.395  12.020  0.4203  0.2185 -0.0663
13806TIP3    H162833   3.312   1.453  12.087  2.1946  0.2240 -0.9290
13806TIP3    H262834   3.221   1.334  12.068  0.8048  0.8647  1.2604
13807TIP3   OH262835   2.195   0.378  13.832  0.1440 -0.5607  0.0364
13807TIP3    H162836   2.278   0.402  13.791  0.1336  1.4238  1.0418
13807TIP3    H262837   2.220   0.334  13.913  0.1919 -1.0199 -0.2241
13808TIP3   OH262838   3.546   5.115   0.096 -0.6840  0.4868  0.4416
13808TIP3    H162839   3.460   5.073   0.107 -1.2523  1.4693 -0.1050
13808TIP3    H262840   3.569   5.100   0.004  0.0989 -0.4334  0.7760
13809TIP3   OH262841   3.855   1.692   2.062  0.4935 -0.1565  0.0401
13809TIP3    H162842   3.855   1.705   1.968 -1.7272  1.5027  0.1822
13809TIP3    H262843   3.837   1.598   2.073 -1.6524  0.0253 -1.2714
13810TIP3   OH262844   2.706   5.656  16.570  0.6224 -0.1198  0.0475
13810TIP3    H162845   2.661   5.616  16.645 -2.3226 -0.4796 -1.7495
13810TIP3    H262846   2.738   5.740  16.604 -1.4176  0.1526  1.5378
13811TIP3   OH262847   2.558   0.953   5.584 -0.1630  0.3678 -0.0997
13811TIP3    H162848   2.543   1.031   5.638 -0.8154 -0.1052  0.4238
13811TIP3    H262849   2.651   0.934   5.596  0.1215  1.3289 -0.6159
13812TIP3   OH262850   1.348   6.391  16.245 -0.2210 -0.3939 -0.8490
13812TIP3    H162851   1.421   6.367  16.302  0.5342  3.1924 -0.0661
13812TIP3    H262852   1.290   6.315  16.247  0.4581 -1.0571  3.6102
13813TIP3   OH262853   3.883   3.159   3.080 -0.3481  0.1513 -0.0937
13813TIP3    H162854   3.871   3.066   3.102  1.6634 -0.7682 -2.3769
13813TIP3    H262855   3.858   3.206   3.159 -0.4478 -2.4067  1.5116
13814TIP3   OH262856   6.302   5.398   2.370 -0.3947  0.5864  0.3864
13814TIP3    H162857   6.396   5.379   2.367 -0.5754 -0.2223 -0.6353
13814TIP3    H262858   6.281   5.431   2.283 -1.0322  0.9068  0.6537
13815TIP3   OH262859   5.692   5.739  14.264 -0.2382 -0.6494  0.2983
13815TIP3    H162860   5.723   5.671  14.324  2.1927 -0.7537 -0.9436
13815TIP3    H262861   5.728   5.820  14.300 -1.7141 -0.2130  0.8455
13816TIP3   OH262862   5.681   5.646  16.334 -0.4487  0.1089  0.1897
13816TIP3    H162863   5.713   5.696  16.259  2.0006 -1.8548 -0.1976
13816TIP3    H262864   5.760   5.619  16.381 -1.8674  0.4016  2.9366
13817TIP3   OH262865   4.392   1.568  12.165 -0.1138 -0.0783 -0.2752
13817TIP3    H162866   4.435   1.511  12.102 -2.2573 -1.0913 -0.9145
13817TIP3    H262867   4.369   1.511  12.238 -0.7289  0.3314 -0.1370
13818TIP3   OH262868   0.096   3.644   2.316  0.4614 -0.2495 -0.1726
13818TIP3    H162869   0.186   3.674   2.301 -0.0431  1.5604  0.1725
13818TIP3    H262870   0.099   3.550   2.298  2.3587 -0.1876 -0.4223
13819TIP3   OH262871   5.185   4.320   0.524  0.4717  0.1707 -0.3219
13819TIP3    H162872   5.275   4.343   0.499  0.6236  0.3099  0.3444
13819TIP3    H262873   5.168   4.238   0.476  0.5556  0.7173 -1.3124
13820TIP3   OH262874   5.156   5.802  10.862 -0.4629 -0.4177 -0.3414
13820TIP3    H162875   5.141   5.710  10.882 -0.3987 -0.1232  1.1730
13820TIP3    H262876   5.121   5.814  10.774 -0.0878 -1.9771 -0.7199
13821TIP3   OH262877   4.130   4.311  14.067  0.2283  0.6330 -0.0110
13821TIP3    H162878   4.102   4.288  14.155 -0.8205  2.4960  0.2015
13821TIP3    H262879   4.197   4.379  14.080 -0.3632  1.3610 -0.6195
13822TIP3   OH262880   4.207   0.200   3.604  0.7239  0.1924  0.0990
13822TIP3    H162881   4.114   0.183   3.590  0.3161  1.3584  1.1227
13822TIP3    H262882   4.208   0.280   3.658  2.3431  0.7199 -0.6607
13823TIP3   OH262883   6.218   0.212   4.713  0.0531 -0.4594  0.6510
13823TIP3    H162884   6.179   0.298   4.730 -0.4034 -0.3044 -0.9857
13823TIP3    H262885   6.158   0.150   4.754 -0.4340 -0.0726  0.5403
13824TIP3   OH262886   2.893   1.973  15.928  0.1288 -0.1091 -0.4945
13824TIP3    H162887   2.832   2.001  15.861 -0.4405 -1.8463 -0.7542
13824TIP3    H262888   2.847   1.904  15.975  2.1020 -1.9820 -1.1451
13825TIP3   OH262889   0.725   6.661  11.844  0.9939  0.1253  0.0790
13825TIP3    H162890   0.790   6.592  11.858  0.5231 -0.7170 -1.6746
13825TIP3    H262891   0.645   6.627  11.884  1.1486  0.3406  0.5772
13826TIP3   OH262892   1.994   1.777  14.022 -0.1732  0.2759 -0.0273
13826TIP3    H162893   2.046   1.702  14.051  1.7384  1.7319  0.5206
13826TIP3    H262894   1.904   1.745  14.020  0.6666 -2.2444 -0.6230
13827TIP3   OH262895   3.531   2.848   4.977 -0.0251 -0.1371 -0.6229
13827TIP3    H162896   3.512   2.765   5.021  0.3256 -0.0165 -0.2340
13827TIP3    H262897   3.461   2.907   5.003  0.7422  0.2528  0.6531
13828TIP3   OH262898   2.452   1.107  15.224  0.2672 -0.0053  0.5043
13828TIP3    H162899   2.518   1.135  15.288 -0.2476  0.6921  0.7413
13828TIP3    H262900   2.373   1.154  15.249  0.7206  2.6151 -2.3288
13829TIP3   OH262901   5.758   2.106   4.295  0.0517 -0.1426  0.2225
13829TIP3    H162902   5.673   2.130   4.332  0.4217 -1.4934  2.0709
13829TIP3    H262903   5.822   2.137   4.359  1.0484  1.4047 -1.4303
13830TIP3   OH262904   3.284   5.225   5.492 -0.2960  0.5782  1.3049
13830TIP3    H162905   3.287   5.209   5.586  0.3002  4.3252  2.0928
13830TIP3    H262906   3.200   5.269   5.478 -0.0003  0.8437  0.2611
13831TIP3   OH262907   6.287   5.879   1.136  0.0025 -0.6518  0.1565
13831TIP3    H162908   6.287   5.845   1.046  0.1987 -0.0403 -0.0798
13831TIP3    H262909   6.337   5.960   1.131 -1.1709  0.1263  0.5389
13832TIP3   OH262910   2.491   2.341  17.289  0.3584  0.5396  0.2768
13832TIP3    H162911   2.493   2.255  17.248 -1.9610  0.5689 -0.0272
13832TIP3    H262912   2.582   2.370  17.289  1.5802 -2.7395  2.2543
13833TIP3   OH262913   6.177   2.558  14.115  0.1338  0.0693  0.4100
13833TIP3    H162914   6.093   2.602  14.108  0.5843  0.8127 -0.5793
13833TIP3    H262915   6.210   2.583  14.202  0.0229  1.0657  0.1818
13834TIP3   OH262916   5.738   5.652  11.572 -0.0213  0.5575  0.7931
13834TIP3    H162917   5.676   5.612  11.510  0.5150 -1.1473  1.3088
13834TIP3    H262918   5.686   5.666  11.651 -0.0846  0.4252  0.7748
13835TIP3   OH262919   3.296   0.846   5.488  0.4641 -1.0574 -0.0443
13835TIP3    H162920   3.353   0.902   5.541  0.5236 -1.1865  0.0284
13835TIP3    H262921   3.345   0.765   5.477 -0.0022 -1.4471  0.6387
13836TIP3   OH262922   1.165   4.859  11.501 -0.4892  0.2868 -0.0162
13836TIP3    H162923   1.125   4.940  11.533 -3.0561 -0.4111 -1.1420
13836TIP3    H262924   1.209   4.884  11.419 -0.3738  0.7361  0.1825
13837TIP3   OH262925   6.111   6.104   2.621  0.0742 -0.9268 -0.0283
13837TIP3    H162926   6.149   6.137   2.539 -0.3102 -0.0597  0.1366
13837TIP3    H262927   6.017   6.117   2.612  0.0931 -0.0120  0.8929
13838TIP3   OH262928   4.505   0.689   1.743 -0.5737 -0.5260 -0.0615
13838TIP3    H162929   4.466   0.692   1.830 -0.1733  0.1674  0.1030
13838TIP3    H262930   4.556   0.607   1.742 -1.5695 -1.1610 -0.0925
13839TIP3   OH262931   6.446   4.155   6.337  0.1205 -0.4893  0.2977
13839TIP3    H162932   6.393   4.083   6.370 -0.3924  1.3288  3.9427
13839TIP3    H262933   6.527   4.150   6.386  0.6662  0.5632 -0.4564
13840TIP3   OH262934   5.010   0.086  13.609 -0.3640 -0.0137 -0.0565
13840TIP3    H162935   4.954   0.130  13.545 -2.2749 -2.0360  0.1133
13840TIP3    H262936   5.001  -0.007  13.589 -0.2239 -0.6428  2.4685
13841TIP3   OH262937   6.303   2.244   4.917 -0.0537 -0.6822 -0.1256
13841TIP3    H162938   6.210   2.240   4.936  0.0785 -1.5124  0.4368
13841TIP3    H262939   6.342   2.176   4.973  0.7634 -1.0123 -1.0502
13842TIP3   OH262940   3.829   1.120  11.618  0.1385  0.0655 -0.6428
13842TIP3    H162941   3.793   1.190  11.564 -0.9301 -0.7052 -0.9910
13842TIP3    H262942   3.852   1.051  11.555 -2.9876 -1.6687 -0.1224
13843TIP3   OH262943   2.551   6.087  17.378 -0.0188  0.3841  0.4770
13843TIP3    H162944   2.643   6.081  17.403  0.5185 -0.1942 -1.4666
13843TIP3    H262945   2.512   6.145  17.443  1.8733  1.1991  0.9367
13844TIP3   OH262946   4.612   5.553   3.414 -0.3809  0.1748  0.1753
13844TIP3    H162947   4.610   5.496   3.337  3.2413 -1.4260  1.0600
13844TIP3    H262948   4.553   5.512   3.476 -0.1361 -0.9429 -0.2984
13845TIP3   OH262949   1.324   4.506   2.841 -0.2571  0.5567 -0.0138
13845TIP3    H162950   1.293   4.420   2.870 -1.2050  0.7993 -0.2784
13845TIP3    H262951   1.414   4.511   2.873 -1.3882  1.0948  3.6549
13846TIP3   OH262952   0.722   3.433   0.497 -0.3550  0.5895  0.5289
13846TIP3    H162953   0.761   3.508   0.541  2.2368 -0.9849  1.0735
13846TIP3    H262954   0.724   3.363   0.562  0.2840 -0.8236 -0.9526
13847TIP3   OH262955   2.312   3.666  12.581 -0.2682 -0.0005  0.9495
13847TIP3    H162956   2.351   3.671  12.493 -2.2040 -0.6806  0.0011
13847TIP3    H262957   2.377   3.707  12.638  0.8370  0.9205 -0.8718
13848TIP3   OH262958   1.014   5.760  12.315  0.0426 -0.0219 -0.1755
13848TIP3    H162959   0.980   5.827  12.257  0.2313 -0.2481 -0.5483
13848TIP3    H262960   1.054   5.695  12.257 -2.1681 -1.6496 -0.0194
13849TIP3   OH262961   0.095   4.504  16.807  0.3221 -0.2627  0.2354
13849TIP3    H162962   0.110   4.526  16.899  0.6185  1.8556 -0.2487
13849TIP3    H262963   0.007   4.467  16.804 -0.0434  0.4810  1.2721
13850TIP3   OH262964   5.747   5.056  17.082  0.3952  0.2870 -0.3200
13850TIP3    H162965   5.780   5.029  16.996  1.4821 -0.4427  0.2970
13850TIP3    H262966   5.658   5.086  17.065  0.5414  0.0243 -1.6812
13851TIP3   OH262967   4.177   5.550  13.396 -0.1142 -0.3207  0.5359
13851TIP3    H162968   4.213   5.618  13.339 -0.2629  1.1776  2.1497
13851TIP3    H262969   4.082   5.565  13.393 -0.3061 -1.5732 -0.4117
13852TIP3   OH262970   5.148   2.126   4.665 -0.0374 -0.0566  0.1633
13852TIP3    H162971   5.201   2.068   4.610  0.9470  0.9036  0.0535
13852TIP3    H262972   5.138   2.078   4.747 -1.9324 -1.7203 -0.9417
13853TIP3   OH262973   2.551   1.191   5.738  0.3312  0.1579  0.1464
13853TIP3    H162974   2.609   1.204   5.813  1.1788  3.4017 -0.9095
13853TIP3    H262975   2.502   1.273   5.731 -0.6822 -0.5649 -2.0816
13854TIP3   OH262976   0.111   0.140  14.254  0.5720  0.5651  0.4486
13854TIP3    H162977   0.140   0.193  14.329 -0.6867 -0.3808  1.6408
13854TIP3    H262978   0.018   0.158  14.247 -0.1949 -2.3731  1.6982
13855TIP3   OH262979   1.262   6.373   4.452  0.5343 -0.0569 -0.1782
13855TIP3    H162980   1.300   6.446   4.403  0.6834  2.1891  2.9759
13855TIP3    H262981   1.186   6.410   4.495  0.4641 -1.8366  1.3584
13856TIP3   OH262982   4.907   0.771  16.574  0.5969 -0.0429  0.6322
13856TIP3    H162983   4.886   0.686  16.615  1.6999  0.5044  2.4462
13856TIP3    H262984   4.863   0.835  16.630  0.0881  0.6341 -0.5095
13857TIP3   OH262985   0.664   6.007   4.187 -0.1937  1.0104  0.0498
13857TIP3    H162986   0.742   5.963   4.152 -0.4672  0.5826 -0.0354
13857TIP3    H262987   0.662   6.092   4.144 -0.0081  0.8565 -0.2643
13858TIP3   OH262988   5.603   3.782  11.881  0.0625  0.0711 -0.4528
13858TIP3    H162989   5.643   3.868  11.895  1.2494 -0.4897 -0.3357
13858TIP3    H262990   5.603   3.771  11.786  1.4556 -0.4876 -0.4159
13859TIP3   OH262991   3.427   6.008  16.086  0.2504 -0.0394  0.1483
13859TIP3    H162992   3.337   5.982  16.105  0.1371  1.5589  2.1096
13859TIP3    H262993   3.424   6.103  16.080  1.8152  0.0468  0.3710
13860TIP3   OH262994   3.711   3.924   3.175  0.4532  0.2885 -0.6578
13860TIP3    H162995   3.793   3.898   3.217 -0.0549 -0.8236 -0.3229
13860TIP3    H262996   3.738   3.961   3.091  1.4749  2.3571  0.4864
13861TIP3   OH262997   4.161   4.530   1.185 -0.3837 -0.1424  0.2261
13861TIP3    H162998   4.164   4.595   1.255 -0.5788  1.2748 -1.0489
13861TIP3    H262999   4.215   4.566   1.115 -0.0023 -1.6381 -0.2986
13862TIP3   OH263000   5.675   2.422   1.078 -0.0355 -0.3979 -0.6061
13862TIP3    H163001   5.716   2.431   1.165 -1.8554  0.9210  0.1724
13862TIP3    H263002   5.696   2.332   1.052  0.0853 -1.0332  1.4529
13863TIP3   OH263003   0.635   2.755  12.139 -0.4410 -0.0245  0.5061
13863TIP3    H163004   0.599   2.708  12.064 -1.1728  0.5968  0.4503
13863TIP3    H263005   0.602   2.844  12.129  1.1000  0.5686  0.4826
13864TIP3   OH263006   6.542   5.586   2.568 -0.5473  0.0018 -0.8082
13864TIP3    H163007   6.559   5.672   2.528  1.4762  0.7405  1.4607
13864TIP3    H263008   6.463   5.599   2.620 -0.9736  0.0862 -1.4530
13865TIP3   OH263009   2.029   5.845   4.339  0.4472 -0.4331  0.4976
13865TIP3    H163010   1.945   5.862   4.381 -0.3834  0.0289 -1.2366
13865TIP3    H263011   2.094   5.879   4.400 -0.6264 -0.7508  1.8517
13866TIP3   OH263012   4.020   3.645   3.433  0.6578 -0.1226 -0.0702
13866TIP3    H163013   3.997   3.736   3.450  1.8051  0.4101 -1.2122
13866TIP3    H263014   4.009   3.634   3.339  2.0323 -0.7027 -0.1926
13867TIP3   OH263015   1.509   2.018   3.713  0.5394 -0.4207 -0.0638
13867TIP3    H163016   1.518   1.927   3.742  0.7402 -0.1710  0.6920
13867TIP3    H263017   1.571   2.067   3.768  0.6477  0.1341 -0.6651
13868TIP3   OH263018   0.014   1.144   2.180 -0.3966  0.4712 -0.1251
13868TIP3    H163019   0.062   1.140   2.263 -1.9930 -2.6712  0.8109
13868TIP3    H263020   0.067   1.093   2.119  0.0949  1.6267 -0.6935
13869TIP3   OH263021   0.117   2.800  14.275  0.5883 -0.0158 -0.2361
13869TIP3    H163022   0.077   2.884  14.298  2.2791  0.9389 -0.5542
13869TIP3    H263023   0.090   2.784  14.185 -1.5337 -0.9651  0.5181
13870TIP3   OH263024   1.139   6.213   4.876 -0.3143 -0.1030  0.1503
13870TIP3    H163025   1.142   6.308   4.863 -0.4613 -0.3073 -1.6017
13870TIP3    H263026   1.094   6.202   4.959 -0.5569  1.3545  0.2425
13871TIP3   OH263027   5.130   0.011   5.677  0.6947  0.1823  0.1128
13871TIP3    H163028   5.140  -0.084   5.682  0.5359  0.2030  0.9951
13871TIP3    H263029   5.216   0.046   5.699  0.1813  0.2609  2.2783
13872TIP3   OH263030   3.902   3.029  17.459  0.2176  0.1055 -0.1326
13872TIP3    H163031   3.986   3.075  17.468  1.0679 -1.3485 -0.3599
13872TIP3    H263032   3.915   2.970  17.385 -1.2894  0.4146 -0.6719
13873TIP3   OH263033   4.239   5.072   4.597 -0.4339 -0.0964  0.3627
13873TIP3    H163034   4.287   5.093   4.517 -0.7474  0.1051  0.2238
13873TIP3    H263035   4.253   5.148   4.653  0.6617 -0.6887  0.9223
13874TIP3   OH263036   0.178   6.335   2.132 -0.4274  0.3871 -0.3254
13874TIP3    H163037   0.193   6.357   2.224 -1.8223  1.1087 -0.2298
13874TIP3    H263038   0.128   6.253   2.135  1.1586 -0.6221 -0.5343
13875TIP3   OH263039   5.168   3.313   5.789 -0.4043  0.3847 -0.1736
13875TIP3    H163040   5.229   3.364   5.736  0.7181 -0.5135  0.1910
13875TIP3    H263041   5.101   3.375   5.817  0.0192  1.2682 -1.0936
13876TIP3   OH263042   0.759   6.094  10.663 -0.2606  0.0280 -0.1573
13876TIP3    H163043   0.664   6.100  10.677 -0.4054 -0.0460 -1.0307
13876TIP3    H263044   0.797   6.121  10.746 -1.0612 -1.0484  0.5915
13877TIP3   OH263045   5.373   2.543  14.702 -0.2161 -0.3099 -0.0451
13877TIP3    H163046   5.383   2.581  14.614 -0.2328  0.4490  0.2750
13877TIP3    H263047   5.358   2.618  14.759  0.2434 -0.7591  0.6790
13878TIP3   OH263048   6.615   6.203   4.571 -0.0447  0.0016  0.1114
13878TIP3    H163049   6.540   6.231   4.623 -0.4914 -1.6293  0.4096
13878TIP3    H263050   6.680   6.174   4.635  0.1722 -0.2017 -0.1937
13879TIP3   OH263051   4.755   0.521  13.745 -0.1397  0.3830  0.0582
13879TIP3    H163052   4.736   0.613  13.731  0.6039  0.2789 -1.9531
13879TIP3    H263053   4.851   0.515  13.741 -0.2315 -0.6689 -1.5134
13880TIP3   OH263054   2.611   3.440  15.172  0.2218 -0.6808  1.1028
13880TIP3    H163055   2.531   3.398  15.139 -0.8673  1.4782  0.8410
13880TIP3    H263056   2.667   3.446  15.094 -0.1996 -0.3529  0.8196
13881TIP3   OH263057   0.866   3.743  16.757  0.3579 -0.2986 -0.1934
13881TIP3    H163058   0.783   3.790  16.763  1.0597  1.1683 -1.0308
13881TIP3    H263059   0.851   3.676  16.690 -0.3800 -0.5897  0.2590
13882TIP3   OH263060   3.973   4.142   6.070  0.5168 -0.2147  0.0579
13882TIP3    H163061   4.035   4.168   6.138 -0.6763 -0.5353  1.3341
13882TIP3    H263062   3.895   4.194   6.088  0.0166 -0.6443 -0.7987
13883TIP3   OH263063   1.847   2.095   0.970  0.3790  0.3824  0.7962
13883TIP3    H163064   1.857   2.009   0.931  3.6033  0.5611  0.9558
13883TIP3    H263065   1.882   2.156   0.905  1.4053  1.1685  2.0288
13884TIP3   OH263066   4.572   1.136  15.745  0.8584 -0.3374 -0.0020
13884TIP3    H163067   4.487   1.108  15.713  0.1266  0.9972  0.6800
13884TIP3    H263068   4.622   1.055  15.757 -1.0745 -1.3559  1.7232
13885TIP3   OH263069   0.271   6.653   3.843 -0.3251  0.1790 -0.0995
13885TIP3    H163070   0.237   6.740   3.864  1.2479  0.5926  0.9016
13885TIP3    H263071   0.362   6.655   3.873  0.0823 -1.4372 -1.1189
13886TIP3   OH263072   5.252   1.172  14.428 -0.6248  0.0907  0.1113
13886TIP3    H163073   5.178   1.166  14.366 -0.3928 -0.4703 -0.1222
13886TIP3    H263074   5.266   1.266  14.440 -2.0939  0.2280  1.0255
13887TIP3   OH263075   5.114   4.629   3.855  0.1681 -0.1378  0.1192
13887TIP3    H163076   5.173   4.681   3.800  0.1086  0.2734  0.4432
13887TIP3    H263077   5.151   4.636   3.943  0.3291 -0.8927  0.1187
13888TIP3   OH263078   0.781   6.018   3.372 -0.1471  0.2832 -0.1966
13888TIP3    H163079   0.768   6.072   3.450 -0.7857  0.3488 -0.3375
13888TIP3    H263080   0.871   6.036   3.345 -0.4050  1.4622 -0.3690
13889TIP3   OH263081   2.722   1.680  12.471  0.0304  0.5143  0.4321
13889TIP3    H163082   2.759   1.716  12.551 -1.8143  0.8794  1.1841
13889TIP3    H263083   2.674   1.753  12.432  0.4731  0.1969 -0.7495
13890TIP3   OH263084   2.264   4.296   2.867 -0.2636  0.9093 -0.1102
13890TIP3    H163085   2.297   4.260   2.785  1.3853  0.1667  0.8509
13890TIP3    H263086   2.172   4.268   2.870  0.5632 -2.0511 -0.0785
13891TIP3   OH263087   4.812   5.120   2.288  0.1219  0.0155 -0.2246
13891TIP3    H163088   4.722   5.089   2.295  0.5680 -1.1838  0.4768
13891TIP3    H263089   4.809   5.210   2.321 -0.9566  0.2874 -1.0156
13892TIP3   OH263090   4.482   0.954   4.480  0.3971  0.4507 -0.0791
13892TIP3    H163091   4.473   1.046   4.505  0.1831  0.0301  1.5397
13892TIP3    H263092   4.566   0.928   4.517  0.6890  0.1083 -0.9612
13893TIP3   OH263093   6.689   6.269  16.688 -0.0655 -0.0931  0.4694
13893TIP3    H163094   6.717   6.259  16.598 -0.1548 -1.1882  0.5457
13893TIP3    H263095   6.737   6.201  16.736 -0.6698 -0.0960  1.0889
13894TIP3   OH263096   0.339   0.605  11.237  0.3067 -0.2286  0.0854
13894TIP3    H163097   0.261   0.661  11.236 -0.5870 -1.3577 -2.4467
13894TIP3    H263098   0.384   0.625  11.155  1.0487 -1.7075  0.0953
13895TIP3   OH263099   3.605   4.739  15.500 -0.4703 -0.3129 -0.2509
13895TIP3    H163100   3.621   4.659  15.450 -3.6334  0.3932 -2.7489
13895TIP3    H263101   3.584   4.709  15.588 -2.2136 -2.3868 -1.2683
13896TIP3   OH263102   3.552   2.304  14.207  0.3009 -1.3085  0.7103
13896TIP3    H163103   3.569   2.279  14.117 -1.4835  0.4834 -0.2128
13896TIP3    H263104   3.637   2.332  14.241  0.6951 -0.2447 -1.0458
13897TIP3   OH263105   0.958   3.808  11.859 -0.1969 -0.1311 -0.0343
13897TIP3    H163106   0.938   3.768  11.944  1.8481  1.9621  1.5604
13897TIP3    H263107   0.873   3.822  11.818 -1.1807 -2.3344  1.0781
13898TIP3   OH263108   6.205   4.575   4.044  0.3160 -0.1387  0.8807
13898TIP3    H163109   6.150   4.498   4.052 -0.1881 -0.2410 -2.1997
13898TIP3    H263110   6.180   4.631   4.117 -3.5231 -0.4352 -0.0159
13899TIP3   OH263111   2.620   3.122   2.794 -0.3561 -0.0325  0.3669
13899TIP3    H163112   2.595   3.065   2.722  0.8432  1.6294 -1.4784
13899TIP3    H263113   2.678   3.068   2.849 -1.2256 -1.2939  0.0796
13900TIP3   OH263114   3.469   0.106   5.370  0.1659 -0.3519  0.7472
13900TIP3    H163115   3.494   0.020   5.404 -0.3453 -0.5123  0.7267
13900TIP3    H263116   3.380   0.094   5.337 -0.5915  0.5876  2.3107
13901TIP3   OH263117   5.160   0.838   1.433  0.0512  0.2812 -0.8471
13901TIP3    H163118   5.171   0.909   1.496  0.5268 -0.2782 -0.2976
13901TIP3    H263119   5.243   0.834   1.386  1.6870 -2.6452  1.9707
13902TIP3   OH263120   4.379   6.421   3.849 -0.3048  0.0542 -0.1887
13902TIP3    H163121   4.378   6.326   3.861  0.8037  0.0610  0.0940
13902TIP3    H263122   4.297   6.440   3.803 -0.5565 -1.0315 -0.2265
13903TIP3   OH263123   5.105   4.882   2.208  0.4937  0.2946 -0.2730
13903TIP3    H163124   5.062   4.857   2.289  2.8534 -2.1364  0.3584
13903TIP3    H263125   5.038   4.872   2.141 -0.1828 -2.8461  0.7226
13904TIP3   OH263126   4.086   2.939   3.256 -0.0998  0.2928 -0.1443
13904TIP3    H163127   3.997   2.926   3.288  0.7298 -0.9191  1.8469
13904TIP3    H263128   4.126   3.001   3.318  1.0078 -0.6982  0.1780
13905TIP3   OH263129   3.479   4.736   2.969  1.2536 -0.4253 -0.3110
13905TIP3    H163130   3.471   4.779   3.054  1.6206  0.3339 -0.6433
13905TIP3    H263131   3.458   4.644   2.985  0.1981 -0.0771  0.3738
13906TIP3   OH263132   4.960   0.851   6.298  0.7707 -0.3580 -0.5596
13906TIP3    H163133   4.909   0.918   6.341 -0.7880 -0.6836 -1.8238
13906TIP3    H263134   5.049   0.888   6.292  1.0659 -0.2824  2.7539
13907TIP3   OH263135   2.114   1.094  12.237  0.4891 -0.5625  0.1026
13907TIP3    H163136   2.107   1.121  12.145  2.0388 -3.4413 -0.9931
13907TIP3    H263137   2.024   1.089  12.268  0.0062  2.4392 -0.5441
13908TIP3   OH263138   3.250   2.185  16.939 -0.2185  0.0613  0.2074
13908TIP3    H163139   3.250   2.166  17.032  0.4457 -1.9306 -0.1433
13908TIP3    H263140   3.337   2.158  16.909 -0.9910 -0.9834 -1.2477
13909TIP3   OH263141   5.594   4.494   2.039 -0.1266 -0.0456 -0.7164
13909TIP3    H163142   5.547   4.412   2.053  1.1345 -0.7939 -0.6646
13909TIP3    H263143   5.530   4.563   2.057 -1.3636 -1.0138 -1.2999
13910TIP3   OH263144   4.814   3.294  12.071 -0.0984  0.0797 -0.0821
13910TIP3    H163145   4.779   3.285  12.159 -1.9080  1.5141 -0.6012
13910TIP3    H263146   4.773   3.222  12.022  1.2920 -1.0224  0.3173
13911TIP3   OH263147   2.462   3.157  16.915  0.5173  0.0602 -0.1696
13911TIP3    H163148   2.439   3.205  16.835  0.0843  0.3881  0.1503
13911TIP3    H263149   2.449   3.065  16.891  0.0132  0.1758 -0.3629
13912TIP3   OH263150   0.271   4.067   5.404 -0.1494  0.3807 -0.0590
13912TIP3    H163151   0.250   4.137   5.466 -0.3733 -0.2981  0.6410
13912TIP3    H263152   0.337   4.014   5.448 -1.7852 -1.3045  0.4977
13913TIP3   OH263153   0.682   2.365  15.360 -0.7351  0.7834  0.1353
13913TIP3    H163154   0.655   2.278  15.389 -0.1542  0.2588 -0.8514
13913TIP3    H263155   0.608   2.397  15.308 -0.7328  0.6666  0.0607
13914TIP3   OH263156   4.376   4.280  12.824  0.3809 -0.0784  0.1901
13914TIP3    H163157   4.450   4.340  12.813  0.5430 -0.2574  0.2981
13914TIP3    H263158   4.389   4.214  12.757  1.0727 -0.8667  1.0748
13915TIP3   OH263159   5.757   5.162   2.597 -0.3394  0.0892 -0.0792
13915TIP3    H163160   5.836   5.119   2.630  0.9290  2.0105 -0.4392
13915TIP3    H263161   5.738   5.230   2.661 -0.0386  1.4318 -1.3513
13916TIP3   OH263162   4.390   6.291  12.779 -0.0221 -0.1852 -0.5572
13916TIP3    H163163   4.377   6.336  12.695 -0.6190 -0.9678 -0.8990
13916TIP3    H263164   4.418   6.203  12.755 -1.5210 -0.8507  0.0176
13917TIP3   OH263165   2.225   4.903  11.625  0.1672  0.7445  0.0497
13917TIP3    H163166   2.249   4.830  11.568 -4.8107 -1.5058  0.3264
13917TIP3    H263167   2.290   4.899  11.696  1.2929 -2.1080 -0.9664
13918TIP3   OH263168   2.557   6.009   5.482  0.2032  0.5777  0.3810
13918TIP3    H163169   2.469   6.047   5.486  0.1715  0.4879  0.5425
13918TIP3    H263170   2.549   5.938   5.418  0.1974  0.6688  0.2792
13919TIP3   OH263171   3.128   4.807   2.501 -0.2269 -0.3871  0.1888
13919TIP3    H163172   3.118   4.818   2.407 -5.4563  2.8102  0.7184
13919TIP3    H263173   3.194   4.872   2.526 -1.0936  1.0436 -1.0483
13920TIP3   OH263174   0.312   3.651  17.444  0.4717  0.1179 -0.0880
13920TIP3    H163175   0.314   3.746  17.458  0.0138  0.0610  0.3555
13920TIP3    H263176   0.395   3.620  17.479  0.3429  0.2723  0.3507
13921TIP3   OH263177   1.864   1.746   5.976  0.2634 -0.5420  0.0125
13921TIP3    H163178   1.795   1.776   5.917 -0.2033 -2.4597 -0.5068
13921TIP3    H263179   1.938   1.803   5.957 -0.8733  0.9811 -0.0613
13922TIP3   OH263180   0.262   4.562   5.036  0.0813 -0.1135  0.5419
13922TIP3    H163181   0.254   4.603   5.122  2.1566  3.4460 -0.7785
13922TIP3    H263182   0.183   4.588   4.990  1.6121  3.2876 -0.4683
13923TIP3   OH263183   0.947   3.367   4.594 -0.0372 -0.0617 -0.2410
13923TIP3    H163184   0.974   3.423   4.666 -0.6800  0.6103 -0.5114
13923TIP3    H263185   0.879   3.310   4.632 -1.9604  1.7432 -0.7920
13924TIP3   OH263186   0.550   4.441   2.537 -0.1095 -0.0035  0.7096
13924TIP3    H163187   0.565   4.448   2.442 -1.0986 -0.2308  0.5286
13924TIP3    H263188   0.468   4.392   2.545  0.7832 -1.4238  1.7213
13925TIP3   OH263189   5.809   4.550  17.538  0.1942 -0.2393  0.2209
13925TIP3    H163190   5.890   4.590  17.505  0.9844 -3.8685 -3.0822
13925TIP3    H263191   5.835   4.507  17.619  1.1981 -0.1793 -0.0583
13926TIP3   OH263192   6.607   6.031  15.703 -0.3647 -0.1412 -0.4958
13926TIP3    H163193   6.598   5.936  15.699 -0.9880 -0.0402 -2.2593
13926TIP3    H263194   6.578   6.055  15.791  2.1336 -1.7777  0.8881
13927TIP3   OH263195   0.294   5.367  16.269 -0.2561 -0.6716 -0.4966
13927TIP3    H163196   0.381   5.377  16.307 -0.1265 -0.6919 -0.7828
13927TIP3    H263197   0.293   5.429  16.196 -1.4439  1.3268  1.1283
13928TIP3   OH263198   0.080   6.486  13.132 -0.2160  0.1274  0.7438
13928TIP3    H163199   0.045   6.418  13.190  1.3813 -0.5850  0.9096
13928TIP3    H263200   0.110   6.438  13.054 -2.1777  1.0477 -0.6674
13929TIP3   OH263201   2.470   5.247   5.029  0.2852 -0.1156  0.7004
13929TIP3    H163202   2.460   5.215   5.119 -0.7965 -0.2632  0.5441
13929TIP3    H263203   2.415   5.189   4.977 -1.7468  1.9385  0.4069
13930TIP3   OH263204   2.109   4.507   4.183 -0.1533  0.1254 -0.2352
13930TIP3    H163205   2.077   4.471   4.100 -0.9163 -0.9110  0.4839
13930TIP3    H263206   2.051   4.470   4.249  0.2565  1.1718  0.7494
13931TIP3   OH263207   0.834   1.122   2.265  0.2944  0.6493  0.2914
13931TIP3    H163208   0.885   1.066   2.206  0.7111  0.6729  0.6310
13931TIP3    H263209   0.793   1.061   2.327 -1.4985  0.4414 -1.0009
13932TIP3   OH263210   2.396   1.333  11.032 -0.1182 -0.0383  0.1861
13932TIP3    H163211   2.392   1.252  11.083  2.4040 -1.7810 -2.0986
13932TIP3    H263212   2.334   1.318  10.960 -1.5273  1.2030  1.0884
13933TIP3   OH263213   4.458   4.645  13.968  0.2042 -0.5625 -0.0290
13933TIP3    H163214   4.417   4.718  13.921 -1.5060 -1.3351  0.1736
13933TIP3    H263215   4.506   4.687  14.039  0.4037  0.4438 -0.7358
13934TIP3   OH263216   1.407   2.186   1.657 -0.4882  0.6943  0.2701
13934TIP3    H163217   1.340   2.238   1.613  0.7229  0.1016 -2.4671
13934TIP3    H263218   1.484   2.243   1.661  0.9422 -0.7468 -3.0047
13935TIP3   OH263219   4.375   0.545   3.543 -0.2187 -0.2830 -0.3227
13935TIP3    H163220   4.322   0.620   3.570 -2.8048 -2.1909  0.3695
13935TIP3    H263221   4.446   0.582   3.491 -1.6905  2.5655 -0.4772
13936TIP3   OH263222   2.650   6.670   0.650  0.1755  0.4534 -0.0638
13936TIP3    H163223   2.651   6.758   0.689  0.9613  0.3767  0.1194
13936TIP3    H263224   2.743   6.652   0.632  0.4619 -1.5917  2.7574
13937TIP3   OH263225   3.515   0.582   5.931 -0.2116  0.0619 -0.8482
13937TIP3    H163226   3.449   0.577   5.862  0.9306  2.2236 -2.1910
13937TIP3    H263227   3.488   0.655   5.986  1.0117  0.9801 -1.4201
13938TIP3   OH263228   2.682   1.018   5.166  0.0990 -0.3676 -0.7996
13938TIP3    H163229   2.639   1.065   5.237 -0.8621 -0.0739 -1.5499
13938TIP3    H263230   2.697   0.930   5.202  1.2360  0.2713  0.3538
13939TIP3   OH263231   1.495   2.176   4.925 -0.0097 -0.0440  0.9308
13939TIP3    H163232   1.489   2.206   5.016  0.3268  0.7097  0.7148
13939TIP3    H263233   1.570   2.115   4.925  1.2685  1.4666  0.7868
13940TIP3   OH263234   2.883   5.638   0.295  0.2347  0.0963 -0.0430
13940TIP3    H163235   2.824   5.609   0.226 -0.5721  0.5682  0.4341
13940TIP3    H263236   2.858   5.729   0.311  0.6739  0.1077  0.6021
13941TIP3   OH263237   3.446   3.507   3.799  0.6021  0.1493  0.1859
13941TIP3    H163238   3.381   3.563   3.843 -0.5118 -0.5489 -0.5038
13941TIP3    H263239   3.501   3.568   3.750 -0.8110  0.6659 -0.8374
13942TIP3   OH263240   2.707   3.738  14.624 -0.0748 -0.2059 -0.0141
13942TIP3    H163241   2.688   3.830  14.641  3.2096  0.5436  0.2625
13942TIP3    H263242   2.783   3.718  14.680  0.4570 -2.5279 -1.4248
13943TIP3   OH263243   5.518   3.683   0.067  0.4805 -0.2057  0.4829
13943TIP3    H163244   5.536   3.652  -0.022 -0.9762 -0.8250  0.3850
13943TIP3    H263245   5.515   3.603   0.120 -2.1566 -0.2007  0.4402
13944TIP3   OH263246   5.522   5.181  12.298 -0.5343 -0.0619 -0.6336
13944TIP3    H163247   5.496   5.094  12.268 -1.5455  0.4539 -1.3329
13944TIP3    H263248   5.599   5.202  12.245 -0.0749 -0.6579 -0.2172
13945TIP3   OH263249   4.406   6.013   1.881 -0.8241 -0.2698 -0.3699
13945TIP3    H163250   4.407   5.919   1.898  1.6537 -0.1394  0.6202
13945TIP3    H263251   4.437   6.021   1.791  0.1620 -0.3683 -0.0462
13946TIP3   OH263252   2.856   4.538   3.931 -0.3079 -0.3712 -0.4648
13946TIP3    H163253   2.807   4.581   4.001  1.3546  1.8180 -0.5177
13946TIP3    H263254   2.938   4.510   3.972  1.6233  2.7647 -1.7257
13947TIP3   OH263255   2.083   4.880   3.040  0.1314 -0.4545 -0.0269
13947TIP3    H163256   2.062   4.832   3.120  0.7289 -0.0180  0.3977
13947TIP3    H263257   2.043   4.966   3.053 -0.4525 -0.6430 -0.5424
13948TIP3   OH263258   0.705   2.760   1.949 -0.8096 -0.2497  0.3047
13948TIP3    H163259   0.685   2.799   2.035 -3.1319 -1.3951  0.3592
13948TIP3    H263260   0.754   2.681   1.970 -1.9447 -0.8872  0.6816
13949TIP3   OH263261   0.267   0.215  13.537  0.8005 -0.1041  0.1371
13949TIP3    H163262   0.181   0.207  13.579  0.7038 -2.2225 -0.3861
13949TIP3    H263263   0.330   0.213  13.609  0.5155 -1.0153  0.3643
13950TIP3   OH263264   4.046   5.078  12.454 -0.6282  0.0315 -0.2111
13950TIP3    H163265   4.079   5.153  12.503  1.1974 -1.7298  1.4290
13950TIP3    H263266   3.965   5.054  12.499  0.5306 -0.9704  1.4505
13951TIP3   OH263267   4.153   0.278  12.341 -0.0333 -0.2351  0.1801
13951TIP3    H163268   4.246   0.301  12.345 -0.6721  2.9072 -0.2088
13951TIP3    H263269   4.139   0.222  12.417  2.3006 -1.5522 -0.2562
13952TIP3   OH263270   1.279   3.193  16.826  0.4898  0.1320  0.6389
13952TIP3    H163271   1.317   3.274  16.791  0.1252  1.1754  2.5553
13952TIP3    H263272   1.350   3.154  16.877  1.4032 -1.9892 -2.0082
13953TIP3   OH263273   4.752   3.155  14.384 -0.4615  0.3135  0.7043
13953TIP3    H163274   4.825   3.139  14.443 -0.2763 -0.4859  0.2675
13953TIP3    H263275   4.789   3.150  14.296 -0.8101  1.1172  0.5006
13954TIP3   OH263276   1.587   5.200  12.649 -0.8054  0.2705  0.4780
13954TIP3    H163277   1.510   5.144  12.645 -0.6637  0.1090 -0.1501
13954TIP3    H263278   1.660   5.142  12.626 -0.6369  0.6733 -0.0206
13955TIP3   OH263279   1.507   6.475  16.627  0.5294  0.8478  0.1293
13955TIP3    H163280   1.482   6.514  16.711 -0.7308  0.2906  0.0464
13955TIP3    H263281   1.435   6.497  16.568  0.1359 -0.9077 -0.1124
13956TIP3   OH263282   3.679   3.665   2.930 -0.1883  0.3145 -0.1310
13956TIP3    H163283   3.665   3.658   3.024  2.1432  4.0006  0.7168
13956TIP3    H263284   3.740   3.595   2.909  0.7391  0.5665  1.5485
13957TIP3   OH263285   3.150   5.678  12.680 -0.4928  0.1426 -0.0782
13957TIP3    H163286   3.128   5.698  12.589  0.0401 -2.0187 -0.7184
13957TIP3    H263287   3.218   5.742  12.703 -0.7948  0.8516 -1.0923
13958TIP3   OH263288   5.769   1.219  13.173  0.5780  0.0622 -0.8338
13958TIP3    H163289   5.842   1.175  13.130  1.0612 -1.8392  1.7157
13958TIP3    H263290   5.696   1.159  13.165  0.1033  0.6289 -0.8272
13959TIP3   OH263291   0.723   5.145   3.026 -0.7073 -0.2723 -0.5370
13959TIP3    H163292   0.741   5.226   2.979  0.5714 -1.3578 -2.0003
13959TIP3    H263293   0.777   5.079   2.983 -2.5316 -2.1555 -0.1130
13960TIP3   OH263294   4.476   4.594  12.211 -0.3490  0.3142 -0.0474
13960TIP3    H163295   4.486   4.561  12.122  0.0027  0.7790 -0.1857
13960TIP3    H263296   4.544   4.550  12.261 -0.6701 -0.0915  0.0347
13961TIP3   OH263297   6.459   5.226  17.382 -0.4451  0.0729 -0.7171
13961TIP3    H163298   6.405   5.150  17.360 -2.6563  1.4405 -0.3656
13961TIP3    H263299   6.396   5.291  17.414  1.4223  1.8798 -0.5215
13962TIP3   OH263300   4.089   5.986  14.977 -0.1075 -0.1055 -0.3993
13962TIP3    H163301   4.148   6.061  14.974  0.1050 -0.2630 -0.1842
13962TIP3    H263302   4.057   5.983  15.067  1.8087 -1.7324  0.2909
13963TIP3   OH263303   2.085   3.809   6.250 -0.0661 -0.4333 -0.2445
13963TIP3    H163304   1.994   3.796   6.224 -0.5286 -0.3257  1.2570
13963TIP3    H263305   2.093   3.763   6.334  0.5922  1.6458  0.8884
13964TIP3   OH263306   5.117   6.452   1.498 -0.6344  0.4619  0.3382
13964TIP3    H163307   5.132   6.410   1.414 -1.3872  0.1961  0.3304
13964TIP3    H263308   5.026   6.482   1.495 -1.4298 -1.5460  1.8855
13965TIP3   OH263309   3.578   2.145   2.581  0.0151 -0.1519  0.0234
13965TIP3    H163310   3.583   2.240   2.570 -0.0322 -0.1902 -0.3333
13965TIP3    H263311   3.666   2.120   2.609 -0.3365  0.1667  1.5308
13966TIP3   OH263312   3.913   0.417  16.001 -0.4372 -0.0589 -0.2064
13966TIP3    H163313   4.008   0.405  16.002 -0.5318 -0.8651  0.7942
13966TIP3    H263314   3.884   0.371  15.922 -0.2350 -2.0105  0.7941
13967TIP3   OH263315   6.466   0.260  14.973  0.3078 -0.3707 -0.2106
13967TIP3    H163316   6.545   0.207  14.987 -0.0471 -1.3440 -1.6637
13967TIP3    H263317   6.410   0.240  15.049 -0.6887 -3.8111 -1.6329
13968TIP3   OH263318   4.176   6.265   1.786 -0.1835 -0.4003 -0.5670
13968TIP3    H163319   4.176   6.359   1.798  0.2068 -0.4906  0.1721
13968TIP3    H263320   4.258   6.245   1.740  0.7138 -0.5801  1.0423
13969TIP3   OH263321   1.586   3.948   0.691  0.5730 -0.3276 -0.1815
13969TIP3    H163322   1.571   4.035   0.653 -1.9826 -0.2566  0.8308
13969TIP3    H263323   1.503   3.924   0.730  2.0639 -1.8966  2.3262
13970TIP3   OH263324   4.924   0.235  13.849  0.1878 -0.2431 -0.5220
13970TIP3    H163325   5.012   0.248  13.885  0.6579 -1.4957 -1.1468
13970TIP3    H263326   4.940   0.203  13.760 -0.9102 -0.1264 -0.7697
13971TIP3   OH263327   4.390   1.335  16.764  0.1370 -0.4584  0.6553
13971TIP3    H163328   4.335   1.259  16.744  0.0204  0.1446 -1.6220
13971TIP3    H263329   4.327   1.406  16.782  0.1515 -0.0435 -0.8340
13972TIP3   OH263330   3.718   2.290  16.887 -0.7903  0.3477  0.0891
13972TIP3    H163331   3.628   2.257  16.885 -0.2275 -1.2639 -1.0182
13972TIP3    H263332   3.734   2.319  16.797  0.6892 -2.1368 -0.5568
13973TIP3   OH263333   6.601   0.554   3.096  0.4840  0.4215  0.0305
13973TIP3    H163334   6.659   0.478   3.096  0.8742  0.6907 -1.1442
13973TIP3    H263335   6.646   0.618   3.041 -0.7867  0.7360 -0.6935
13974TIP3   OH263336   4.707   1.118   1.294 -0.3961 -0.5977  0.1915
13974TIP3    H163337   4.765   1.145   1.223 -0.6165 -0.2965  0.1273
13974TIP3    H263338   4.766   1.103   1.368 -0.1790 -0.8076 -0.0229
13975TIP3   OH263339   0.785   6.419   1.726  0.4936 -0.2358  0.9007
13975TIP3    H163340   0.775   6.415   1.821 -0.0423  0.0012  0.8551
13975TIP3    H263341   0.715   6.477   1.697  0.0697 -1.0575  0.2573
13976TIP3   OH263342   3.443   1.878   4.509  0.0354  0.0461 -0.2022
13976TIP3    H163343   3.359   1.838   4.487 -0.3455  0.5633  0.2784
13976TIP3    H263344   3.498   1.861   4.433 -0.4921 -0.3349 -0.5060
13977TIP3   OH263345   3.896   1.208  13.559  0.4504  0.0161 -0.2126
13977TIP3    H163346   3.884   1.261  13.480  1.4373  0.5142 -0.0344
13977TIP3    H263347   3.841   1.250  13.625  0.9157  0.5872 -0.1851
13978TIP3   OH263348   6.029   6.661   5.673 -0.2825  0.3229  0.0583
13978TIP3    H163349   5.976   6.590   5.636 -1.5059  0.5259  1.3568
13978TIP3    H263350   6.053   6.630   5.760  0.4037  0.9159  0.0878
13979TIP3   OH263351   5.620   4.751  16.991 -0.2390  0.0394 -0.0058
13979TIP3    H163352   5.623   4.666  16.947 -1.9761  0.8981 -1.9660
13979TIP3    H263353   5.527   4.765  17.009  0.0893  1.2333  0.8871
13980TIP3   OH263354   6.081   4.483  16.491  0.3748 -0.1790 -0.4343
13980TIP3    H163355   6.006   4.469  16.434 -1.2188  0.7539  1.3343
13980TIP3    H263356   6.067   4.424  16.566  1.4903 -0.1121 -0.1489
13981TIP3   OH263357   4.328   4.014  13.224  0.6153  0.0443  0.2009
13981TIP3    H163358   4.380   4.056  13.155 -1.3281  0.8555 -0.8517
13981TIP3    H263359   4.252   3.978  13.178  0.1064 -0.9118  1.7053
13982TIP3   OH263360   5.324   0.011  11.605 -0.1122  0.2147  0.4463
13982TIP3    H163361   5.283   0.022  11.690 -2.0463  0.4653 -0.4572
13982TIP3    H263362   5.361  -0.077  11.606  0.1942  0.3506  1.6466
13983TIP3   OH263363   3.395   5.431   3.661  0.3776  0.1965  0.3496
13983TIP3    H163364   3.478   5.441   3.615  0.4561 -0.4786  0.3381
13983TIP3    H263365   3.366   5.343   3.639 -0.2234  0.3408  0.5504
13984TIP3   OH263366   0.463   4.589  17.207  0.4938  0.0563 -0.1947
13984TIP3    H163367   0.454   4.543  17.291 -1.1945  2.7633  1.2550
13984TIP3    H263368   0.398   4.548  17.150 -0.3460  0.0044  0.7636
13985TIP3   OH263369   1.885   2.662  12.737 -0.3795 -0.6035  0.1806
13985TIP3    H163370   1.917   2.685  12.825  0.6001 -0.9546 -0.0674
13985TIP3    H263371   1.898   2.567  12.732  1.0890 -0.3778 -0.9154
13986TIP3   OH263372   0.229   1.114   2.991  0.3960 -0.5401 -0.3026
13986TIP3    H163373   0.275   1.178   3.045 -0.3784 -0.8925  0.8105
13986TIP3    H263374   0.139   1.146   2.988  0.5447 -0.1895 -1.9403
13987TIP3   OH263375   6.408   0.817  11.139  0.0734  0.5415 -0.3215
13987TIP3    H163376   6.385   0.878  11.209  0.0696  0.1671  0.0096
13987TIP3    H263377   6.330   0.762  11.128  1.4847 -2.3234  2.4795
13988TIP3   OH263378   5.903   1.662   2.255 -0.0631  0.2152  0.3317
13988TIP3    H163379   5.990   1.638   2.224  0.7440 -0.8381  3.1044
13988TIP3    H263380   5.851   1.583   2.244 -0.2641  0.3922  0.0096
13989TIP3   OH263381   0.793   0.548   0.514  0.0326 -0.0792 -0.3485
13989TIP3    H163382   0.791   0.628   0.567 -2.4611  0.0935 -0.5996
13989TIP3    H263383   0.829   0.481   0.574 -0.3046  0.6677  0.7231
13990TIP3   OH263384   5.923   2.028   0.814 -0.0307 -0.0667 -0.0905
13990TIP3    H163385   5.911   2.094   0.746  1.5981 -1.6128 -2.0008
13990TIP3    H263386   6.012   2.043   0.847 -0.0563 -0.6054  0.2350
13991TIP3   OH263387   4.174   0.721  14.579  0.1362 -0.2688 -0.1864
13991TIP3    H163388   4.125   0.670  14.644 -0.0720  0.3586  0.1584
13991TIP3    H263389   4.195   0.658  14.510 -0.6899 -0.6715 -0.0805
13992TIP3   OH263390   3.888   4.532  12.916 -0.3957  0.2542 -0.1553
13992TIP3    H163391   3.974   4.508  12.951 -0.0940 -2.5548 -2.4283
13992TIP3    H263392   3.825   4.494  12.978  0.0802 -0.6007 -0.1796
13993TIP3   OH263393   1.263   3.779  14.492 -0.3685  0.5012  0.2873
13993TIP3    H163394   1.292   3.734  14.413  2.1336  1.3239  0.6376
13993TIP3    H263395   1.172   3.753  14.503 -0.9779  0.7284 -3.1253
13994TIP3   OH263396   1.860   1.088  11.194 -0.0701 -0.2108  0.0237
13994TIP3    H163397   1.943   1.132  11.178 -0.1506  0.1641  0.6099
13994TIP3    H263398   1.881   0.995  11.187  0.3130 -0.1099 -0.2287
13995TIP3   OH263399   2.638   5.072   5.486  0.0745 -0.5731  0.1558
13995TIP3    H163400   2.586   5.119   5.552  0.6910 -0.0185  0.2648
13995TIP3    H263401   2.682   5.003   5.536 -0.0984 -0.6661  0.1777
13996TIP3   OH263402   2.335   3.371   5.435 -0.3253 -0.5842 -0.3117
13996TIP3    H163403   2.396   3.333   5.498  1.0008 -0.2049 -1.3147
13996TIP3    H263404   2.305   3.297   5.383  0.1591 -0.6348 -0.5256
13997TIP3   OH263405   5.255   5.623   1.351  0.7622 -0.6464 -0.4574
13997TIP3    H163406   5.279   5.689   1.417 -1.1214 -0.7129  0.3488
13997TIP3    H263407   5.278   5.539   1.392  1.2829 -0.6110 -0.6617
13998TIP3   OH263408   4.082   4.994   3.552  0.1105  0.5175 -0.1572
13998TIP3    H163409   4.054   4.958   3.467 -0.9474 -0.2437  0.4920
13998TIP3    H263410   4.089   4.918   3.609 -2.4193  1.2949  1.3293
13999TIP3   OH263411   6.212   1.249  16.181  0.7713 -0.3254 -0.0604
13999TIP3    H163412   6.255   1.216  16.102  0.5475  0.8948 -0.7122
13999TIP3    H263413   6.127   1.281  16.150  0.5966 -0.0328  0.7152
14000TIP3   OH263414   2.143   1.490   4.729 -0.2627  0.1468 -0.2713
14000TIP3    H163415   2.215   1.429   4.742 -0.0338  0.6748  1.0295
14000TIP3    H263416   2.186   1.570   4.698 -0.4978 -0.1154 -1.3247
14001TIP3   OH263417   2.416   5.533  11.858  0.2300 -0.2205  0.1697
14001TIP3    H163418   2.352   5.605  11.858  0.9503  0.4299  0.2160
14001TIP3    H263419   2.399   5.487  11.776 -1.9797 -1.6159  1.2976
14002TIP3   OH263420   6.123   3.698   0.320  0.3144  0.6380 -0.0820
14002TIP3    H163421   6.189   3.757   0.357  0.5883  0.9301 -1.0210
14002TIP3    H263422   6.174   3.626   0.282  0.0195  0.1944  0.3495
14003TIP3   OH263423   5.924   6.487   5.174 -0.0003  0.0316  0.3011
14003TIP3    H163424   5.921   6.395   5.199  2.5819 -0.0522  0.5917
14003TIP3    H263425   5.909   6.487   5.079  1.6264 -0.9163  0.0041
14004TIP3   OH263426   2.983   5.367  13.421 -0.2055 -0.4446 -0.6641
14004TIP3    H163427   2.980   5.459  13.392  0.7064 -0.0588  0.3993
14004TIP3    H263428   2.898   5.331  13.394 -0.9051  0.9266 -0.3985
14005TIP3   OH263429   0.931   0.667   2.272  0.1005 -0.2797  0.5441
14005TIP3    H163430   0.947   0.634   2.360  0.9485 -1.2285  0.0604
14005TIP3    H263431   0.996   0.736   2.259  1.9174 -2.0451 -0.3092
14006TIP3   OH263432   1.419   6.455   1.119 -0.0906 -0.1141  0.0237
14006TIP3    H163433   1.425   6.479   1.027  2.7973  1.2775  0.4543
14006TIP3    H263434   1.457   6.368   1.124  0.1959  0.0068 -0.0440
14007TIP3   OH263435   1.764   4.068   4.960  0.0115 -0.1240 -0.3870
14007TIP3    H163436   1.814   4.051   5.040  0.9556  0.6525 -0.7862
14007TIP3    H263437   1.691   4.006   4.963 -0.5018  0.4976  1.5273
14008TIP3   OH263438   5.258   3.150  13.217  0.8283  0.0638  0.2951
14008TIP3    H163439   5.193   3.220  13.210 -3.4004 -3.5241 -0.8432
14008TIP3    H263440   5.265   3.114  13.129  3.8547 -0.3323  0.5642
14009TIP3   OH263441   0.237   2.844   2.425  0.5433 -0.0409  0.1337
14009TIP3    H163442   0.200   2.784   2.359 -0.0836 -1.3019  1.5606
14009TIP3    H263443   0.183   2.923   2.418  0.2214 -0.3119 -0.5722
14010TIP3   OH263444   6.523   4.995   0.022  0.7085  0.0521 -0.0818
14010TIP3    H163445   6.561   5.055   0.086 -0.0771 -0.2690  0.7001
14010TIP3    H263446   6.452   5.046  -0.018  0.7057 -0.0071 -0.1514
14011TIP3   OH263447   5.472   0.080  12.330  0.0524  0.1503  0.4487
14011TIP3    H163448   5.434   0.166  12.349  1.8613  1.2998 -0.7908
14011TIP3    H263449   5.532   0.064  12.403  0.6841  0.5765  0.0332
14012TIP3   OH263450   3.789   4.413  14.226 -0.9125  0.4328 -0.0735
14012TIP3    H163451   3.872   4.402  14.272 -1.9703  0.7612  2.0339
14012TIP3    H263452   3.802   4.491  14.171  0.8842 -0.8802 -1.6378
14013TIP3   OH263453   4.077   3.884   0.817 -0.7528 -0.3431 -0.0788
14013TIP3    H163454   4.163   3.905   0.853 -1.2065 -0.2505  0.9595
14013TIP3    H263455   4.049   3.966   0.776 -1.4129  0.3904  1.7552
14014TIP3   OH263456   2.435   6.332  13.966  0.0820 -0.3575 -0.3805
14014TIP3    H163457   2.468   6.420  13.944 -1.1432  0.3031  0.2871
14014TIP3    H263458   2.422   6.289  13.882  2.8782 -0.7917 -0.6900
14015TIP3   OH263459   3.957   3.392   2.129  0.0996  0.2215  0.5344
14015TIP3    H163460   3.863   3.380   2.122 -0.0578 -0.1317  2.5218
14015TIP3    H263461   3.968   3.453   2.203  1.4143  0.7178 -0.0352
14016TIP3   OH263462   2.145   3.945  14.139 -0.7572 -0.1003 -0.2883
14016TIP3    H163463   2.219   3.921  14.085  0.3845  0.6071  0.8826
14016TIP3    H263464   2.153   3.890  14.217 -0.9576  0.5584  0.2139
14017TIP3   OH263465   3.664   6.227   4.513  0.0974 -0.2564  0.1517
14017TIP3    H163466   3.753   6.260   4.501  0.1805 -0.1687  0.9394
14017TIP3    H263467   3.675   6.135   4.534  0.0237 -0.1856  0.5114
14018TIP3   OH263468   3.190   4.874   0.378  0.3070 -0.6024  0.2143
14018TIP3    H163469   3.154   4.806   0.435  3.3299 -1.7124  1.0035
14018TIP3    H263470   3.221   4.828   0.300 -0.3895  0.3655 -0.6664
14019TIP3   OH263471   5.310   0.807   5.501 -0.2525  0.2270  0.6343
14019TIP3    H163472   5.313   0.746   5.575 -1.3671 -0.8244 -0.1474
14019TIP3    H263473   5.262   0.759   5.433  1.2440  0.9404 -0.9806
14020TIP3   OH263474   0.395   3.891   5.574  0.2804  0.1516  0.2141
14020TIP3    H163475   0.471   3.834   5.578  0.7062  0.6116 -0.9258
14020TIP3    H263476   0.412   3.959   5.640  1.3224  0.7915 -0.6836
14021TIP3   OH263477   4.164   6.574   3.633  0.4059  0.2101 -0.3241
14021TIP3    H163478   4.091   6.620   3.675  0.3494 -1.2232  1.2465
14021TIP3    H263479   4.176   6.619   3.549 -3.0529 -0.2401 -1.1999
14022TIP3   OH263480   6.537   1.540   0.449  0.1654  0.3556 -0.2659
14022TIP3    H163481   6.555   1.470   0.386 -0.3041  0.0203 -0.0297
14022TIP3    H263482   6.539   1.496   0.534  1.1227  0.8674 -0.0114
14023TIP3   OH263483   4.544   1.824  12.246 -0.2688 -0.4005 -0.2679
14023TIP3    H163484   4.469   1.799  12.192 -0.8924 -0.7936  0.7397
14023TIP3    H263485   4.508   1.888  12.308  0.5933  0.5802 -0.7765
14024TIP3   OH263486   1.479   6.594   4.495  0.0488  0.5890 -0.1053
14024TIP3    H163487   1.417   6.647   4.545  1.7172  2.2330  0.3421
14024TIP3    H263488   1.500   6.520   4.552 -1.0683  0.2955 -0.0505
14025TIP3   OH263489   3.991   1.610   4.344  0.3539  0.2902  0.0280
14025TIP3    H163490   3.938   1.530   4.347  1.7697 -0.6585  0.5673
14025TIP3    H263491   4.015   1.626   4.436  1.7302  0.1978 -0.3044
14026TIP3   OH263492   4.031   4.524   4.856  0.0580  0.3052  0.4983
14026TIP3    H163493   3.939   4.522   4.883 -0.2693 -2.7158 -0.5515
14026TIP3    H263494   4.030   4.568   4.771  0.0002  2.4006  1.5012
14027TIP3   OH263495   1.248   1.204  13.529 -0.0461  0.6189  0.2268
14027TIP3    H163496   1.157   1.190  13.554 -0.0657 -0.8876 -0.5918
14027TIP3    H263497   1.255   1.299  13.517 -2.0344  0.6041 -1.5721
14028TIP3   OH263498   5.076   3.110   2.098 -0.0192 -0.3185  0.5891
14028TIP3    H163499   5.107   3.173   2.163  1.3214 -0.3662  0.0347
14028TIP3    H263500   5.094   3.025   2.137 -2.0296 -0.4143  1.4315
14029TIP3   OH263501   1.150   1.713  17.226 -0.0841 -0.1475  0.6493
14029TIP3    H163502   1.099   1.774  17.279 -2.0698  0.5256 -1.8465
14029TIP3    H263503   1.216   1.768  17.183 -3.1359  0.9647 -3.2111
14030TIP3   OH263504   1.713   0.352   3.728 -0.1064 -0.0613  0.5346
14030TIP3    H163505   1.780   0.304   3.777  0.3156 -1.1221 -1.0047
14030TIP3    H263506   1.732   0.445   3.746  2.2615 -0.2901 -0.4064
14031TIP3   OH263507   2.192   2.238   0.255  0.0906 -0.5785 -0.0001
14031TIP3    H163508   2.207   2.333   0.253  0.2579 -0.5556  1.3680
14031TIP3    H263509   2.264   2.202   0.204 -0.5887  0.0764 -1.4815
14032TIP3   OH263510   0.601   0.792   3.610  0.1993  0.2293 -0.6357
14032TIP3    H163511   0.675   0.741   3.577  0.5826  0.2961  0.0812
14032TIP3    H263512   0.552   0.731   3.664 -0.3677  0.1421 -1.2460
14033TIP3   OH263513   4.191   1.565  16.758 -0.4111  0.1788 -0.3392
14033TIP3    H163514   4.145   1.596  16.836  1.7249  1.1271  0.6515
14033TIP3    H263515   4.183   1.636  16.695 -0.0757  0.4934 -0.0406
14034TIP3   OH263516   0.318   2.577  12.448  0.3059  0.0643 -0.1872
14034TIP3    H163517   0.276   2.502  12.489  0.0254  0.4848  0.3147
14034TIP3    H263518   0.330   2.552  12.356  0.2839 -0.6139 -0.0075
14035TIP3   OH263519   2.559   3.921   3.093 -0.3968  0.2403 -0.2020
14035TIP3    H163520   2.510   3.980   3.036 -1.9773 -0.1816  0.6765
14035TIP3    H263521   2.650   3.936   3.069 -0.9394  0.9159 -2.0195
14036TIP3   OH263522   0.551   3.539  17.575 -0.6538  0.4119  0.1491
14036TIP3    H163523   0.641   3.562  17.595 -0.3473 -0.6124 -0.0219
14036TIP3    H263524   0.517   3.501  17.656 -1.0886  1.2242  0.3606
14037TIP3   OH263525   2.932   2.626   3.625 -0.2390  0.3210  0.0431
14037TIP3    H163526   2.986   2.563   3.674 -1.5865 -2.2616 -1.5558
14037TIP3    H263527   2.962   2.712   3.655  3.2312 -0.9867  0.8222
14038TIP3   OH263528   4.193   3.469   1.240 -0.2634 -0.0750  0.1063
14038TIP3    H163529   4.257   3.408   1.204  0.2777 -0.9697  2.4073
14038TIP3    H263530   4.114   3.455   1.187  0.3535 -1.5720 -0.4793
14039TIP3   OH263531   1.058   2.739   3.401  0.6549  0.2948 -0.3642
14039TIP3    H163532   1.141   2.784   3.386  0.0002  1.0410 -1.9704
14039TIP3    H263533   1.013   2.742   3.316 -1.2487  0.4098  0.5928
14040TIP3   OH263534   5.683   2.862  13.969  0.2661 -0.0259 -0.2574
14040TIP3    H163535   5.628   2.937  13.948 -2.6236 -1.9016 -0.1222
14040TIP3    H263536   5.667   2.800  13.897  0.3621 -1.5344  0.9586
14041TIP3   OH263537   3.070   5.347   4.678  0.6241  0.0626  0.1492
14041TIP3    H163538   2.976   5.336   4.665  0.0792  1.1014  2.6120
14041TIP3    H263539   3.102   5.379   4.594 -1.2935  0.2011 -0.5930
14042TIP3   OH263540   0.827   3.594  17.088  0.0587 -0.2798 -0.3723
14042TIP3    H163541   0.913   3.617  17.125  0.7439 -1.6471 -1.0280
14042TIP3    H263542   0.764   3.644  17.140  1.3198  1.7409 -0.6986
14043TIP3   OH263543   1.829   0.634   3.099 -0.0509 -0.2429  0.1398
14043TIP3    H163544   1.772   0.711   3.093  0.1801 -0.1483 -1.3023
14043TIP3    H263545   1.777   0.564   3.060  0.4519 -0.3775 -0.2889
14044TIP3   OH263546   2.086   5.956   4.750 -0.0593  0.0080  0.3935
14044TIP3    H163547   2.106   5.873   4.706  1.3685  0.6243 -0.1546
14044TIP3    H263548   2.120   6.023   4.692  0.3909  0.9161  1.6713
14045TIP3   OH263549   5.258   0.352  13.854  0.4234  0.2335 -0.2650
14045TIP3    H163550   5.336   0.357  13.798  0.5242  0.7169 -0.0837
14045TIP3    H263551   5.291   0.319  13.938  0.5786  1.2197  0.0726
14046TIP3   OH263552   1.705   6.301  11.311 -0.5513 -0.4431  0.0366
14046TIP3    H163553   1.752   6.377  11.346 -0.6752 -0.8056  1.0066
14046TIP3    H263554   1.749   6.282  11.228 -1.1753  1.3371 -0.7670
14047TIP3   OH263555   6.110   5.673  11.373  0.6548  0.4243  0.8242
14047TIP3    H163556   6.186   5.675  11.314 -0.2721 -0.3406 -0.4461
14047TIP3    H263557   6.125   5.746  11.434  1.9583  0.8451  0.0403
14048TIP3   OH263558   2.273   2.800   3.681  0.0671 -0.2704  0.5575
14048TIP3    H163559   2.198   2.859   3.686 -0.4171 -0.9506  1.7808
14048TIP3    H263560   2.273   2.768   3.591 -1.4964 -0.7282  0.6985
14049TIP3   OH263561   4.172   1.054   2.522 -0.4728  0.0243  0.3603
14049TIP3    H163562   4.145   1.062   2.614 -0.2524 -0.9788  0.5190
14049TIP3    H263563   4.267   1.063   2.524 -0.6428  2.8522 -0.1222
14050TIP3   OH263564   1.356   2.584   1.269  0.3727  0.4508  0.2996
14050TIP3    H163565   1.434   2.613   1.222  1.8293 -2.4493  0.6930
14050TIP3    H263566   1.305   2.535   1.204  1.1673 -1.4475  1.0231
14051TIP3   OH263567   1.054   0.089   2.524  0.2842 -0.1073 -0.0465
14051TIP3    H163568   0.989   0.020   2.541  0.5534 -0.3704 -0.0661
14051TIP3    H263569   1.007   0.171   2.539  0.2153 -0.3089  0.9493
14052TIP3   OH263570   1.104   2.448  16.189 -0.4326 -0.0169 -0.0102
14052TIP3    H163571   1.155   2.380  16.143 -1.1057  0.3765 -1.4044
14052TIP3    H263572   1.170   2.504  16.230  0.1288 -1.7730  1.6052
14053TIP3   OH263573   0.364   3.505  11.403 -0.7742 -0.3433  0.0458
14053TIP3    H163574   0.451   3.503  11.364 -0.4959  2.7775  0.2555
14053TIP3    H263575   0.338   3.413  11.409  0.5843 -1.2186 -4.1665
14054TIP3   OH263576   5.417   5.906   0.785  0.2371 -0.0280  0.1428
14054TIP3    H163577   5.438   5.986   0.737  0.1174 -0.5453 -0.7938
14054TIP3    H263578   5.499   5.879   0.825  0.6901 -0.3723 -0.9792
14055TIP3   OH263579   0.353   4.723   4.683 -0.0968 -0.0033  0.8474
14055TIP3    H163580   0.375   4.661   4.752 -0.2494 -0.1417  0.7726
14055TIP3    H263581   0.386   4.807   4.715  0.5016 -0.1976  0.7553
14056TIP3   OH263582   3.026   6.564   6.280 -0.1878  0.2552 -0.5113
14056TIP3    H163583   2.972   6.571   6.359 -2.0742  1.4268 -1.8063
14056TIP3    H263584   3.051   6.655   6.262  1.3923 -0.1667 -0.5184
14057TIP3   OH263585   4.688   1.948  13.916  0.9356 -0.3560  0.5440
14057TIP3    H163586   4.599   1.946  13.951  0.1234  0.1144 -1.3863
14057TIP3    H263587   4.744   1.954  13.994 -0.5950 -2.2302  1.9026
14058TIP3   OH263588   0.231   4.309   3.323  0.3143 -0.0886  0.0513
14058TIP3    H163589   0.280   4.320   3.241 -0.6802 -0.9791 -0.6860
14058TIP3    H263590   0.179   4.230   3.309 -2.0511  1.3093  0.4363
14059TIP3   OH263591   6.042   5.940   4.191  0.0216  0.5421 -1.1025
14059TIP3    H163592   6.065   6.024   4.230  1.6535  0.0015 -0.7972
14059TIP3    H263593   6.105   5.879   4.229 -0.7280 -0.7038 -1.7987
14060TIP3   OH263594   1.029   2.148  16.231 -0.0231  0.1698 -0.4380
14060TIP3    H163595   0.980   2.199  16.296 -1.3796 -1.1645 -0.3548
14060TIP3    H263596   0.995   2.178  16.147  2.0589  2.2328 -0.6743
14061TIP3   OH263597   5.973   3.445  12.267  0.2591 -0.1844 -0.2509
14061TIP3    H163598   5.994   3.529  12.227  1.6391 -0.4641 -0.1548
14061TIP3    H263599   6.016   3.446  12.352 -2.4191  0.2882  1.2232
14062TIP3   OH263600   4.063   1.848   5.719 -0.4247  0.2229  0.1684
14062TIP3    H163601   4.158   1.837   5.720 -0.4426  0.0387 -0.0457
14062TIP3    H263602   4.050   1.942   5.706 -0.2701 -0.0628 -2.5950
14063TIP3   OH263603   4.953   0.582   0.942  0.1456 -0.2713  0.0464
14063TIP3    H163604   5.045   0.555   0.945  0.1762 -0.2819 -0.8145
14063TIP3    H263605   4.946   0.649   1.010  0.7351 -0.4304  0.2754
14064TIP3   OH263606   0.214   1.456  15.929 -0.0811  0.4883  0.0353
14064TIP3    H163607   0.237   1.367  15.901  0.7142  1.2193 -1.7576
14064TIP3    H263608   0.184   1.445  16.019  2.2752 -1.2906  0.7221
14065TIP3   OH263609   2.247   6.523  10.776  0.6436 -0.1042  0.2796
14065TIP3    H163610   2.268   6.615  10.790  1.1447 -0.2565  0.5378
14065TIP3    H263611   2.213   6.520  10.686  2.8297 -0.0127 -0.6235
14066TIP3   OH263612   4.187   0.743   3.561 -0.0410 -0.8237 -0.2190
14066TIP3    H163613   4.134   0.724   3.483  1.0535 -0.2656 -1.1195
14066TIP3    H263614   4.200   0.838   3.559  0.6168 -0.8960  0.2457
14067TIP3   OH263615   1.299   1.409   0.950 -0.3374  0.0041 -0.0697
14067TIP3    H163616   1.205   1.426   0.938 -0.7140 -1.1859  1.0584
14067TIP3    H263617   1.303   1.339   1.015  1.3823  1.0219  0.9864
14068TIP3   OH263618   5.416   1.517  17.113 -0.8610 -0.1444  0.0364
14068TIP3    H163619   5.445   1.535  17.202 -1.0157  0.8079 -0.0995
14068TIP3    H263620   5.321   1.533  17.114 -0.7180  0.8044 -0.5200
14069TIP3   OH263621   6.256   3.895  11.931  0.1482  0.4423 -0.0492
14069TIP3    H163622   6.238   3.979  11.974  1.2559  0.0731  1.2089
14069TIP3    H263623   6.320   3.915  11.863  0.3796  0.6288  0.2218
14070TIP3   OH263624   5.628   4.605   2.780  0.3692  0.0319 -0.0910
14070TIP3    H163625   5.678   4.534   2.741  0.2791  0.2560 -0.6159
14070TIP3    H263626   5.675   4.684   2.755  0.0326  0.2104 -0.1669
14071TIP3   OH263627   1.005   3.318   6.020  0.0874 -0.4426 -0.2124
14071TIP3    H163628   1.066   3.351   6.087 -1.0221 -1.2439  1.2472
14071TIP3    H263629   0.931   3.378   6.024  0.2268 -0.2083 -1.0879
14072TIP3   OH263630   3.582   3.343  11.152 -0.1056 -0.0190 -0.0721
14072TIP3    H163631   3.588   3.305  11.064 -1.9541 -0.9351  0.1509
14072TIP3    H263632   3.535   3.278  11.203  1.0114  0.4554  1.6635
14073TIP3   OH263633   6.622   6.665   0.182 -0.6224  0.7915  0.4065
14073TIP3    H163634   6.675   6.686   0.105  0.6756 -2.1807  0.3578
14073TIP3    H263635   6.686   6.635   0.247 -2.0454 -1.1154  1.0001
14074TIP3   OH263636   4.062   3.791  17.243 -0.2918 -0.2511  0.0413
14074TIP3    H163637   4.072   3.704  17.204 -0.4887 -1.3529  2.2908
14074TIP3    H263638   4.118   3.789  17.320 -1.7631  0.9299  1.1961
14075TIP3   OH263639   5.273   2.818  13.136  0.4981 -0.1662 -0.5489
14075TIP3    H163640   5.275   2.903  13.092  1.0914 -0.0215 -0.2534
14075TIP3    H263641   5.337   2.826  13.207 -0.2840 -0.4752  0.2069
14076TIP3   OH263642   6.471   5.285   1.873  0.5919  0.1740 -0.2482
14076TIP3    H163643   6.456   5.191   1.881  1.3289  0.0784  0.0943
14076TIP3    H263644   6.388   5.325   1.897  0.4382 -0.3679  0.1351
14077TIP3   OH263645   2.387   5.676  14.737 -0.5843  0.3867  0.0238
14077TIP3    H163646   2.419   5.596  14.695 -0.2629  1.1603 -1.2522
14077TIP3    H263647   2.292   5.666  14.736 -0.5240 -0.7556  1.4995
14078TIP3   OH263648   6.564   0.098  17.164 -0.2936  0.3529  0.0678
14078TIP3    H163649   6.612   0.024  17.200 -0.1966 -0.6121 -1.9180
14078TIP3    H263650   6.575   0.091  17.069 -2.5903  1.3241 -0.3535
14079TIP3   OH263651   2.046   5.313  15.954 -0.1034  0.3598 -0.0566
14079TIP3    H163652   2.027   5.228  15.915 -1.1704 -0.8851  2.9385
14079TIP3    H263653   1.973   5.369  15.927  0.6135  0.4180 -2.0572
14080TIP3   OH263654   0.658   1.088   3.802  0.5870 -0.1336  0.1640
14080TIP3    H163655   0.592   1.081   3.732  0.7848  0.1042 -0.0471
14080TIP3    H263656   0.643   1.010   3.857  0.8010 -0.6285 -0.4639
14081TIP3   OH263657   0.083   0.499  12.630  0.1854  0.0555 -0.0775
14081TIP3    H163658   0.064   0.411  12.664  0.3481 -0.5857 -1.5388
14081TIP3    H263659   0.165   0.524  12.672  1.0727 -1.2673 -0.9279
14082TIP3   OH263660   5.825   6.444   4.628 -0.3119 -0.5491  0.3720
14082TIP3    H163661   5.734   6.475   4.627 -0.3415 -0.6254  0.6912
14082TIP3    H263662   5.848   6.435   4.535 -0.5371 -0.2611  0.2864
14083TIP3   OH263663   3.088   4.523  13.275 -0.1472 -0.0420  0.0569
14083TIP3    H163664   3.015   4.474  13.312 -0.3675  0.5744  0.4565
14083TIP3    H263665   3.050   4.573  13.203 -0.1038  0.2284  0.2213
14084TIP3   OH263666   2.608   3.674   2.032 -0.1472  0.1645 -0.2019
14084TIP3    H163667   2.593   3.596   1.979 -0.3588 -0.3251  0.5745
14084TIP3    H263668   2.702   3.675   2.047 -0.1968 -0.1691  0.1361
14085TIP3   OH263669   0.831   2.360   5.582 -0.5399 -0.3207 -0.2749
14085TIP3    H163670   0.753   2.401   5.620 -1.9142 -1.2572 -1.9233
14085TIP3    H263671   0.828   2.384   5.489  0.0837 -1.8748 -0.7392
14086TIP3   OH263672   2.815   2.350  14.070 -0.1507 -0.1189  0.4943
14086TIP3    H163673   2.805   2.276  14.130  1.4856 -0.8696 -0.1032
14086TIP3    H263674   2.773   2.321  13.989 -2.8554  1.1018  1.3118
14087TIP3   OH263675   6.117   4.220  11.820 -0.0305 -0.3157  0.2556
14087TIP3    H163676   6.157   4.160  11.757  0.5258  0.3996 -0.0883
14087TIP3    H263677   6.073   4.162  11.883  0.1052 -1.0663 -0.3193
14088TIP3   OH263678   3.289   5.034   4.801  0.3940 -0.0243 -0.2757
14088TIP3    H163679   3.209   5.044   4.749 -0.9168 -0.5212  1.5262
14088TIP3    H263680   3.284   4.944   4.834  0.5600  0.6393  1.6366
14089TIP3   OH263681   1.564   5.127  16.920  0.4653  0.8749  0.4703
14089TIP3    H163682   1.476   5.161  16.932  0.0731 -0.1442  0.5969
14089TIP3    H263683   1.557   5.069  16.845  1.0615  0.8960  0.3942
14090TIP3   OH263684   6.625   1.332  13.026  0.0012  0.0557 -0.0775
14090TIP3    H163685   6.559   1.265  13.042  2.5216 -2.9166 -1.1394
14090TIP3    H263686   6.677   1.335  13.107 -0.9712  1.9520  0.5393
14091TIP3   OH263687   4.776   0.149   5.740  0.3792 -0.1188 -0.3110
14091TIP3    H163688   4.844   0.124   5.802 -1.5416 -1.2983  1.4784
14091TIP3    H263689   4.770   0.074   5.680  0.0585 -0.4194  0.0925
14092TIP3   OH263690   4.648   4.481  14.799  0.2639  0.3543 -0.0670
14092TIP3    H163691   4.662   4.459  14.707  0.0451 -1.1950  0.2531
14092TIP3    H263692   4.677   4.404  14.848  1.3162  1.5353  1.2415
14093TIP3   OH263693   6.295   2.041  15.018 -0.2476 -0.2518 -0.6613
14093TIP3    H163694   6.375   2.076  14.978  0.2530  0.7501  1.0871
14093TIP3    H263695   6.225   2.096  14.984 -0.0818 -0.5095 -1.4458
14094TIP3   OH263696   5.512   6.103   0.377 -0.1698 -0.1104 -0.4482
14094TIP3    H163697   5.573   6.048   0.328 -0.0444  0.6178 -1.1419
14094TIP3    H263698   5.465   6.042   0.434 -0.7813 -1.1054 -1.9360
14095TIP3   OH263699   3.631   5.683  12.715  0.3345  0.1423 -0.6157
14095TIP3    H163700   3.559   5.640  12.670  0.4681 -0.4360 -0.2953
14095TIP3    H263701   3.695   5.613  12.731  0.1863  0.2676  0.6652
14096TIP3   OH263702   1.991   2.530  12.996  0.4483  0.1418 -0.1935
14096TIP3    H163703   2.002   2.475  12.918 -1.5988  0.3044 -0.6483
14096TIP3    H263704   2.056   2.497  13.058  1.6559 -0.4453 -1.7154
14097TIP3   OH263705   4.609   2.671   5.509 -0.2909 -0.3012  0.3387
14097TIP3    H163706   4.532   2.726   5.493 -0.1299 -0.0619  0.3697
14097TIP3    H263707   4.628   2.683   5.602 -1.3030 -1.7881  0.7548
14098TIP3   OH263708   5.316   6.712   3.673 -0.1528 -0.3619  0.4219
14098TIP3    H163709   5.393   6.764   3.651  0.1134 -0.5864  0.8242
14098TIP3    H263710   5.280   6.686   3.587 -0.7074  1.0716  0.2024
14099TIP3   OH263711   5.359   3.783  14.415 -0.0138 -0.0347  0.3421
14099TIP3    H163712   5.439   3.738  14.389  1.0010  1.4306  0.7996
14099TIP3    H263713   5.351   3.767  14.509 -0.1410 -0.0114  0.3353
14100TIP3   OH263714   6.107   4.475   2.571 -0.3358 -0.1104 -0.3799
14100TIP3    H163715   6.051   4.435   2.504 -0.4414 -0.5480 -0.0358
14100TIP3    H263716   6.046   4.501   2.640 -0.3113  0.9897 -0.7566
14101TIP3   OH263717   6.585   3.059   1.883  0.2115  0.0287 -0.4199
14101TIP3    H163718   6.664   3.047   1.830  1.5180  0.1800  1.3896
14101TIP3    H263719   6.520   3.000   1.844  1.5914 -0.9918 -1.2682
14102TIP3   OH263720   4.584   0.608  17.014  0.1227 -0.6609  0.1444
14102TIP3    H163721   4.562   0.518  17.038  0.2516 -0.2730  1.8469
14102TIP3    H263722   4.646   0.637  17.081 -0.5980  0.9891  0.1557
14103TIP3   OH263723   0.851   5.978   0.982 -0.0123  0.3890  0.6067
14103TIP3    H163724   0.919   6.035   0.948 -0.9642  0.1160 -1.9671
14103TIP3    H263725   0.866   5.976   1.076  0.8992  3.7214  0.6409
14104TIP3   OH263726   5.444   5.640  16.117 -0.1526 -0.5620 -0.3636
14104TIP3    H163727   5.500   5.563  16.120  0.2380 -0.3027 -0.8291
14104TIP3    H263728   5.413   5.643  16.026 -0.4560 -0.3798 -0.2536
14105TIP3   OH263729   2.489   2.992   3.818 -0.6868 -0.2657  0.0351
14105TIP3    H163730   2.426   2.937   3.772 -2.6815  1.8394  0.0754
14105TIP3    H263731   2.510   3.062   3.756 -0.2456  0.3842  0.8941
14106TIP3   OH263732   5.015   6.593  14.795  0.1047 -0.0174  0.3107
14106TIP3    H163733   4.988   6.642  14.717 -0.2242 -1.8486 -0.7869
14106TIP3    H263734   4.947   6.612  14.859 -0.2773  0.5717 -0.2550
14107TIP3   OH263735   4.369   2.116   2.151 -0.0648  0.3711  0.1450
14107TIP3    H163736   4.276   2.093   2.153  0.3396 -1.5091 -0.8533
14107TIP3    H263737   4.414   2.038   2.184  1.2017  1.0735  0.1476
14108TIP3   OH263738   1.340   2.582  13.273  0.2350  0.1617 -0.4914
14108TIP3    H163739   1.389   2.662  13.254  1.3384 -0.3448  0.1134
14108TIP3    H263740   1.314   2.592  13.365 -0.9366  0.4817 -0.8421
14109TIP3   OH263741   4.834   3.793  13.069 -0.8456  0.3749 -0.6783
14109TIP3    H163742   4.905   3.788  13.005  0.7201  4.2092  0.4576
14109TIP3    H263743   4.872   3.757  13.149 -0.4770  1.4455 -0.3487
14110TIP3   OH263744   1.373   2.036  16.624 -0.3098 -0.5439  0.0366
14110TIP3    H163745   1.410   1.958  16.582 -0.6144 -2.1813  2.5768
14110TIP3    H263746   1.292   2.005  16.665 -0.7635  1.2735  0.5896
14111TIP3   OH263747   0.897   0.186  14.283 -0.1385  0.4388  0.0001
14111TIP3    H163748   0.978   0.150  14.319 -0.4891  1.4499  1.8770
14111TIP3    H263749   0.839   0.110  14.276 -0.3011  0.2734  2.3219
14112TIP3   OH263750   0.333   3.650   4.772 -0.0351 -0.6691  0.0651
14112TIP3    H163751   0.381   3.590   4.715  1.2251  0.9849 -0.6706
14112TIP3    H263752   0.378   3.643   4.856  0.1141 -0.7366 -0.0200
14113TIP3   OH263753   5.269   0.133   4.786 -0.2518  0.4204  0.0384
14113TIP3    H163754   5.331   0.193   4.829  0.8262 -0.3862 -0.3334
14113TIP3    H263755   5.183   0.166   4.811  0.3227  1.1298  1.1986
14114TIP3   OH263756   3.213   3.796   5.001 -0.1521 -0.3463 -0.0219
14114TIP3    H163757   3.124   3.766   5.019  0.2211 -0.7186  1.3418
14114TIP3    H263758   3.259   3.785   5.084  0.8606  0.9601 -0.3695
14115TIP3   OH263759   4.707   4.534  15.067 -0.3399  0.2303  0.3965
14115TIP3    H163760   4.675   4.586  14.993 -0.9605  2.3139  2.0208
14115TIP3    H263761   4.802   4.529  15.054 -0.5473 -0.4381 -1.0953
14116TIP3   OH263762   4.947   6.057  11.247  0.3915 -0.0023 -0.2753
14116TIP3    H163763   4.941   5.970  11.287  2.5605 -0.8408 -1.6044
14116TIP3    H263764   4.993   6.042  11.164 -2.5251  1.8386 -2.4481
14117TIP3   OH263765   2.992   4.456   6.408  0.6148 -0.2228 -0.5219
14117TIP3    H163766   3.069   4.404   6.385  1.7992  0.6199  1.2541
14117TIP3    H263767   2.929   4.392   6.441  2.1080 -0.6308  1.7707
14118TIP3   OH263768   6.060   0.721   0.814 -0.0414 -0.2754 -0.5067
14118TIP3    H163769   6.009   0.733   0.894 -2.8563  0.2960 -2.2555
14118TIP3    H263770   6.028   0.639   0.777  1.3083 -0.6014 -1.0263
14119TIP3   OH263771   6.083   3.730  15.366  0.0854  0.1070  0.0163
14119TIP3    H163772   6.123   3.652  15.406  2.1692  0.8700 -0.4731
14119TIP3    H263773   6.020   3.761  15.432  1.4892 -0.2094  1.5719
14120TIP3   OH263774   3.956   1.083  15.324  0.2104  0.2140  0.1327
14120TIP3    H163775   3.891   1.048  15.263 -0.8164 -1.7026  2.1953
14120TIP3    H263776   3.918   1.164  15.357 -0.3140  0.0052  0.0366
14121TIP3   OH263777   6.321   6.084  17.011 -0.0471  0.3944 -0.3092
14121TIP3    H163778   6.377   6.056  17.083  0.9904  1.4735 -0.6737
14121TIP3    H263779   6.323   6.011  16.949  0.4251  0.1598 -0.0211
14122TIP3   OH263780   5.733   5.229   0.198  0.3241 -0.6660 -0.0757
14122TIP3    H163781   5.817   5.263   0.166  0.3406 -0.6542 -0.0196
14122TIP3    H263782   5.689   5.305   0.235 -0.3484 -0.3628 -1.4439
14123TIP3   OH263783   5.974   0.537  16.602 -0.3504 -0.2121 -0.0650
14123TIP3    H163784   5.955   0.546  16.509 -0.0711  2.7287  0.0762
14123TIP3    H263785   6.065   0.506  16.605 -0.9195 -2.0971 -0.7050
14124TIP3   OH263786   0.440   1.762   0.159  0.3879  0.1098 -0.2906
14124TIP3    H163787   0.468   1.694   0.221 -1.1072 -0.6910 -0.4302
14124TIP3    H263788   0.374   1.812   0.207  1.0516  1.1104 -0.3976
14125TIP3   OH263789   0.892   2.502   0.625 -0.2472  0.3593  0.2987
14125TIP3    H163790   0.826   2.571   0.617 -0.3172  0.2769  0.1657
14125TIP3    H263791   0.935   2.500   0.539 -1.6816 -1.2236 -0.4450
14126TIP3   OH263792   1.713   0.849   1.963 -0.0267 -0.2726 -0.1258
14126TIP3    H163793   1.739   0.760   1.939  1.9710  0.0188  0.7019
14126TIP3    H263794   1.676   0.886   1.883  2.5614 -0.6780 -1.6306
14127TIP3   OH263795   3.213   2.617  14.920 -0.4744  0.3818 -0.1887
14127TIP3    H163796   3.265   2.589  14.844  0.4667  3.0076 -0.6074
14127TIP3    H263797   3.273   2.669  14.972 -2.2019  2.0799  0.2047
14128TIP3   OH263798   6.154   0.895  16.176  0.4381  0.1269 -0.2154
14128TIP3    H163799   6.071   0.914  16.132  0.6606 -0.6900 -1.0333
14128TIP3    H263800   6.148   0.939  16.260  0.4426  2.7095 -1.4854
14129TIP3   OH263801   2.865   4.478   4.673  0.2429  0.6037  0.7619
14129TIP3    H163802   2.781   4.440   4.700  0.2089  0.0002 -0.1407
14129TIP3    H263803   2.900   4.416   4.609  0.1146  2.1485 -0.8916
14130TIP3   OH263804   5.489   1.099  12.153  0.0541 -0.2617 -0.1245
14130TIP3    H163805   5.555   1.167  12.162  2.6225 -2.5064 -0.6507
14130TIP3    H263806   5.481   1.085  12.058 -1.0933 -0.1358 -0.0631
14131TIP3   OH263807   1.370   5.489  15.552 -0.1463  0.0926 -0.2589
14131TIP3    H163808   1.453   5.451  15.524  0.2427 -0.1349  1.1079
14131TIP3    H263809   1.319   5.415  15.583  1.2429  0.6338  3.9989
14132TIP3   OH263810   4.224   4.909  10.120 -0.0057  0.3241  0.4998
14132TIP3    H163811   4.239   4.837  10.182 -2.8515 -0.9290 -0.1050
14132TIP3    H263812   4.130   4.906  10.102  0.5319  0.9940 -3.3952
14133TIP3   OH263813   1.775   1.691   5.298 -0.1046  0.0150  0.0804
14133TIP3    H163814   1.853   1.660   5.253  0.2023  1.6671 -0.5865
14133TIP3    H263815   1.739   1.613   5.339  1.4541 -0.9233 -0.2520
14134TIP3   OH263816   0.413   4.114   2.039  0.0392 -0.3850 -0.3286
14134TIP3    H163817   0.472   4.085   1.968  0.0029 -0.6411 -0.2571
14134TIP3    H263818   0.464   4.099   2.119  0.9907  2.0584 -0.3967
14135TIP3   OH263819   4.983   2.858  17.076 -0.1398  0.0875 -0.0612
14135TIP3    H163820   4.981   2.763  17.071  0.5411 -0.2079  3.2221
14135TIP3    H263821   5.073   2.881  17.052 -0.4963  0.0239 -1.5590
14136TIP3   OH263822   3.173   0.346   4.582  0.1885 -0.5371 -0.1098
14136TIP3    H163823   3.158   0.394   4.663  0.3566 -0.6214 -0.0266
14136TIP3    H263824   3.267   0.355   4.566  0.1359 -0.4151 -0.3633
14137TIP3   OH263825   2.385   0.444   4.292  0.0984 -0.0671  0.0871
14137TIP3    H163826   2.477   0.427   4.312 -0.0250 -0.5865  0.2284
14137TIP3    H263827   2.338   0.369   4.327 -0.3060 -0.1613 -0.6329
14138TIP3   OH263828   3.143   2.165  17.402  0.4342  0.1116  0.2785
14138TIP3    H163829   3.111   2.248  17.435  1.0766  0.6052 -0.3036
14138TIP3    H263830   3.121   2.166  17.308  1.3335  0.0820  0.0520
14139TIP3   OH263831   3.354   4.672  13.944  0.4573  0.2365 -0.2394
14139TIP3    H163832   3.268   4.702  13.914  0.0872 -1.4341 -0.9884
14139TIP3    H263833   3.401   4.651  13.863  1.4941  0.9034  0.1728
14140TIP3   OH263834   2.453   1.291  16.483 -0.4368  0.2541  0.1968
14140TIP3    H163835   2.470   1.338  16.401  0.0253  0.3446  0.3458
14140TIP3    H263836   2.377   1.336  16.521 -0.0758  0.7958  0.2741
14141TIP3   OH263837   5.922   2.386  13.160  0.1879  0.2799 -0.6992
14141TIP3    H163838   5.977   2.451  13.204  0.7685 -0.5014 -0.2575
14141TIP3    H263839   5.913   2.419  13.070  2.9269 -0.4845 -1.3457
14142TIP3   OH263840   2.041   3.982   4.417 -0.1585  0.3681  0.5939
14142TIP3    H163841   1.951   3.987   4.449  0.6172 -0.5620  3.1469
14142TIP3    H263842   2.046   4.050   4.350 -2.8365  0.1831  0.0974
14143TIP3   OH263843   3.541   1.462   1.121 -0.3859 -0.3481  0.1011
14143TIP3    H163844   3.494   1.379   1.110 -0.8558  0.0026 -0.6732
14143TIP3    H263845   3.488   1.526   1.072 -1.0949  0.8212  2.2402
14144TIP3   OH263846   5.634   1.901  13.743  0.0512  0.5670 -0.3260
14144TIP3    H163847   5.693   1.915  13.670 -0.2614  1.5335 -0.3975
14144TIP3    H263848   5.602   1.988  13.766 -0.2482  0.2190  0.6274
14145TIP3   OH263849   1.359   3.648   1.567  0.0196 -0.3036  0.7952
14145TIP3    H163850   1.410   3.614   1.641  0.4634 -2.0563 -0.2555
14145TIP3    H263851   1.374   3.743   1.569  0.8926 -0.4390  2.2973
14146TIP3   OH263852   3.218   1.573  11.577 -0.3009 -0.3361 -0.5106
14146TIP3    H163853   3.228   1.668  11.578 -0.4288 -0.3195  0.2852
14146TIP3    H263854   3.124   1.558  11.583 -0.2501 -0.5030 -0.0196
14147TIP3   OH263855   1.181   3.647   4.417  0.3584 -0.2553  0.0585
14147TIP3    H163856   1.241   3.631   4.344  1.4897  0.7602  0.7349
14147TIP3    H263857   1.236   3.642   4.495 -0.5733  0.0430  0.7468
14148TIP3   OH263858   5.884   5.507  13.102  0.7108 -0.4592  0.5492
14148TIP3    H163859   5.790   5.508  13.122  0.1018  1.3326 -1.9001
14148TIP3    H263860   5.926   5.511  13.188 -1.5029  1.0403  1.6967
14149TIP3   OH263861   1.784   2.097  14.707 -0.0787 -0.2467 -0.0167
14149TIP3    H163862   1.857   2.099  14.768 -0.0689  1.9176 -0.0409
14149TIP3    H263863   1.814   2.041  14.635  2.5645  2.3796 -1.1702
14150TIP3   OH263864   4.022   0.156   1.626 -1.1611  0.1961  0.3739
14150TIP3    H163865   4.043   0.065   1.607 -2.4150 -1.1170  4.4549
14150TIP3    H263866   4.014   0.197   1.540 -0.0525 -3.3570 -1.6101
14151TIP3   OH263867   1.316   1.327  16.940  0.2135 -0.5395  0.7840
14151TIP3    H163868   1.384   1.392  16.954  0.4973 -1.1298  2.3502
14151TIP3    H263869   1.237   1.379  16.920  0.7138  0.2089  0.7158
14152TIP3   OH263870   5.138   2.035   2.649 -0.4416 -0.0940 -0.3297
14152TIP3    H163871   5.176   2.078   2.726  1.2832  1.3089 -1.8871
14152TIP3    H263872   5.161   1.943   2.659 -1.0751 -0.1127  1.2751
14153TIP3   OH263873   4.543   2.705  16.442  0.5530 -0.2478  0.3255
14153TIP3    H163874   4.543   2.800  16.451  0.2728 -0.2918  0.8217
14153TIP3    H263875   4.630   2.678  16.472  1.2607 -0.0154 -1.4131
14154TIP3   OH263876   0.727   2.778  11.064  0.4048 -0.1299 -0.5661
14154TIP3    H163877   0.636   2.762  11.039  0.3467 -0.7813  0.0264
14154TIP3    H263878   0.731   2.871  11.084 -0.3126 -0.2483  0.1437
14155TIP3   OH263879   2.258   2.160   4.980  0.0614 -0.4287 -0.4161
14155TIP3    H163880   2.198   2.149   5.054  0.5138  0.0921  0.0398
14155TIP3    H263881   2.315   2.083   4.982 -0.5019 -0.8644 -0.7775
14156TIP3   OH263882   1.262   1.000  14.950 -0.1056 -0.2654  0.2979
14156TIP3    H163883   1.214   1.022  14.869  0.4081  0.9215  0.2941
14156TIP3    H263884   1.294   1.085  14.982 -0.4637 -0.6937  1.8582
14157TIP3   OH263885   0.587   0.287   4.373 -0.4285  0.0976  0.1186
14157TIP3    H163886   0.658   0.244   4.420 -1.2689  0.1854  1.4999
14157TIP3    H263887   0.507   0.264   4.421 -1.3715 -0.1177 -1.4848
14158TIP3   OH263888   6.666   0.703  13.538  0.6211  0.5266  0.4760
14158TIP3    H163889   6.748   0.668  13.505  1.3504  1.9941  0.6568
14158TIP3    H263890   6.614   0.722  13.460  0.5826 -0.0616  0.3518
14159TIP3   OH263891   1.833   0.443   4.960 -0.7219  0.1283 -0.6389
14159TIP3    H163892   1.902   0.434   5.025 -0.2161 -0.0578 -1.1912
14159TIP3    H263893   1.872   0.495   4.890 -0.5099 -1.4674 -1.7823
14160TIP3   OH263894   4.818   4.289  17.474 -0.0935  0.1414 -0.2765
14160TIP3    H163895   4.899   4.284  17.525  0.5797 -0.6859 -1.3791
14160TIP3    H263896   4.760   4.225  17.515 -0.2802  0.8616  0.6289
14161TIP3   OH263897   3.179   5.018  16.900  0.5087  0.5062 -0.0528
14161TIP3    H163898   3.182   4.927  16.871 -2.2984  0.0319  0.8092
14161TIP3    H263899   3.096   5.025  16.949  1.8296  2.8884  2.1070
14162TIP3   OH263900   3.273   5.725   0.626  0.1083 -0.4385 -0.3296
14162TIP3    H163901   3.287   5.819   0.613  0.8443 -0.0650  2.4733
14162TIP3    H263902   3.303   5.684   0.545  1.6766  1.6126 -0.8623
14163TIP3   OH263903   5.908   2.399   4.372 -0.9977  0.2062 -0.4955
14163TIP3    H163904   5.962   2.321   4.387 -0.0985  0.9706  0.3034
14163TIP3    H263905   5.880   2.390   4.280 -0.9151 -1.0448 -0.4264
14164TIP3   OH263906   3.221   0.017  11.136  0.3216 -0.0945  0.4436
14164TIP3    H163907   3.274   0.015  11.056  0.3402 -2.2279  0.4354
14164TIP3    H263908   3.254   0.092  11.185  1.9471 -0.1310 -0.5033
14165TIP3   OH263909   2.377   3.792   1.820 -0.1073 -0.5068 -0.2884
14165TIP3    H163910   2.396   3.755   1.907  0.7445 -0.6219 -0.5107
14165TIP3    H263911   2.422   3.877   1.820 -1.4000  0.1949 -0.0653
14166TIP3   OH263912   5.701   4.711   3.047 -0.4535  0.2855 -0.1117
14166TIP3    H163913   5.773   4.735   2.989  0.8996 -0.4900  1.1639
14166TIP3    H263914   5.643   4.656   2.994  1.8527 -2.2323 -0.2116
14167TIP3   OH263915   1.568   0.168  11.553  0.5054  0.1389 -0.3030
14167TIP3    H163916   1.636   0.138  11.613  0.3506 -1.6440 -0.9594
14167TIP3    H263917   1.606   0.243  11.508  1.5522 -0.0582  0.2263
14168TIP3   OH263918   0.917   6.075  13.583  0.4653  0.2931  0.4658
14168TIP3    H163919   0.856   6.121  13.525 -0.2426 -1.3678 -0.1805
14168TIP3    H263920   0.982   6.037  13.524  0.7818  0.1091  0.9278
14169TIP3   OH263921   1.621   2.354   6.259  0.3675 -0.2670 -0.0784
14169TIP3    H163922   1.661   2.404   6.331 -0.5544  0.4566 -0.0558
14169TIP3    H263923   1.619   2.264   6.291  1.1403 -0.1681  0.2810
14170TIP3   OH263924   4.769   4.656  12.594 -0.4888 -0.5664 -0.7355
14170TIP3    H163925   4.800   4.742  12.622 -0.3815 -0.8868  0.1890
14170TIP3    H263926   4.810   4.595  12.656  0.9104 -1.4861 -2.4851
14171TIP3   OH263927   1.600   0.692   5.813 -0.3514 -0.7827 -0.6277
14171TIP3    H163928   1.679   0.667   5.859 -1.2318 -0.2267  1.2774
14171TIP3    H263929   1.533   0.632   5.845 -1.6170  1.3780  1.0985
14172TIP3   OH263930   1.032   3.396   3.676 -0.0280  0.0482  0.3000
14172TIP3    H163931   0.965   3.443   3.724 -1.2992  1.2991 -2.4476
14172TIP3    H263932   1.092   3.464   3.644  2.3769 -0.9860  2.2533
14173TIP3   OH263933   1.874   2.849   5.173 -0.4757  0.1322  0.0074
14173TIP3    H163934   1.822   2.907   5.230 -0.3710 -1.3880  1.7243
14173TIP3    H263935   1.827   2.766   5.174  0.4062 -0.3924 -0.8653
14174TIP3   OH263936   3.748   3.122   1.549 -0.0521  0.1419 -0.0505
14174TIP3    H163937   3.734   3.170   1.467  0.5482 -1.0236 -0.8656
14174TIP3    H263938   3.691   3.046   1.542  1.0922 -0.7369 -0.0647
14175TIP3   OH263939   3.673   1.363   1.380 -0.3107 -0.2174  0.4021
14175TIP3    H163940   3.643   1.394   1.295  0.9409 -0.6928 -0.2354
14175TIP3    H263941   3.758   1.323   1.363 -0.8628 -2.0398  1.5410
14176TIP3   OH263942   5.978   5.303  14.304  0.2494  0.8873 -0.5565
14176TIP3    H163943   6.068   5.278  14.281  0.3616  0.5245  0.2280
14176TIP3    H263944   5.987   5.387  14.347  0.2911  0.5524  0.0966
14177TIP3   OH263945   6.524   0.063   4.314  0.4943 -0.2353  0.0538
14177TIP3    H163946   6.450   0.008   4.287  1.1908 -2.3523  2.1614
14177TIP3    H263947   6.516   0.069   4.409  3.0350 -0.5399  0.3378
14178TIP3   OH263948   2.814   2.330  13.205 -0.0655  0.5552 -0.5549
14178TIP3    H163949   2.734   2.362  13.163 -0.3872 -0.7843 -1.0064
14178TIP3    H263950   2.885   2.374  13.157 -0.5043  1.8047 -0.1022
14179TIP3   OH263951   3.812   1.652  11.555  0.2159 -0.0940  0.1637
14179TIP3    H163952   3.873   1.697  11.613 -0.0092  1.0026 -0.4155
14179TIP3    H263953   3.746   1.615  11.613 -0.9530  2.4382  0.5793
14180TIP3   OH263954   5.130   1.033  15.417 -0.9821  0.5598  0.0206
14180TIP3    H163955   5.219   1.068  15.409 -1.4458  2.0537  1.0132
14180TIP3    H263956   5.087   1.058  15.335 -0.8739  1.0441  0.1077
14181TIP3   OH263957   4.952   5.590  13.150  0.1978 -0.3471 -0.5398
14181TIP3    H163958   4.916   5.615  13.064  0.0185 -0.7836 -0.5918
14181TIP3    H263959   4.983   5.673  13.187 -2.1839  0.3191  0.1211
14182TIP3   OH263960   2.719   6.002  12.541 -0.0247  0.2432  0.5994
14182TIP3    H163961   2.703   5.984  12.634  0.5250 -2.5664  0.2648
14182TIP3    H263962   2.645   5.961  12.496  1.0746 -0.8367 -0.2894
14183TIP3   OH263963   6.497   4.674  16.669  0.4347 -0.8093 -0.3918
14183TIP3    H163964   6.464   4.663  16.580 -0.9948 -1.2776  0.1733
14183TIP3    H263965   6.436   4.735  16.710  1.3795 -0.1938  0.1289
14184TIP3   OH263966   0.471   2.885  10.514  0.4029 -0.5592  0.1783
14184TIP3    H163967   0.391   2.862  10.468 -0.7416  2.4528  0.4711
14184TIP3    H263968   0.442   2.912  10.602  1.8221 -0.1999  0.5640
14185TIP3   OH263969   3.064   0.442  16.257 -0.1582  0.2464  0.1773
14185TIP3    H163970   3.019   0.499  16.195  0.8387  0.0521 -0.7682
14185TIP3    H263971   2.999   0.422  16.324 -1.1869  0.6824 -0.6684
14186TIP3   OH263972   3.865   6.102  16.623  0.0361 -0.2343 -0.4272
14186TIP3    H163973   3.809   6.171  16.658  0.9787 -0.4996  1.7384
14186TIP3    H263974   3.848   6.026  16.679  2.9675 -0.1369  0.7636
14187TIP3   OH263975   3.658   4.176  13.385 -0.1723 -0.1077  0.0841
14187TIP3    H163976   3.575   4.143  13.352  0.3361  0.2779 -1.6943
14187TIP3    H263977   3.634   4.253  13.437 -0.8956  0.3538 -0.9070
14188TIP3   OH263978   4.029   1.450   0.137 -0.0449 -0.2790 -0.0178
14188TIP3    H163979   4.081   1.428   0.215 -1.6917  0.0482  1.2464
14188TIP3    H263980   3.953   1.393   0.143 -0.8991  0.7567 -0.5792
14189TIP3   OH263981   0.796   1.512   1.582  0.3087 -0.2131  0.4092
14189TIP3    H163982   0.719   1.548   1.538  0.6390 -0.3316 -0.2785
14189TIP3    H263983   0.828   1.583   1.637  0.8615  0.5049 -0.8099
14190TIP3   OH263984   6.061   3.346  14.897 -0.0214 -0.2048  0.1466
14190TIP3    H163985   6.154   3.370  14.893 -0.5558  1.9275 -1.5275
14190TIP3    H263986   6.023   3.408  14.959 -0.8970  1.4691 -1.9291
14191TIP3   OH263987   3.371   3.235   4.478 -0.4905 -0.0659 -0.0918
14191TIP3    H163988   3.335   3.318   4.448  0.2954 -0.1448 -1.3127
14191TIP3    H263989   3.445   3.259   4.534  0.5615  0.0911 -1.4879
14192TIP3   OH263990   6.282   1.016   4.712 -0.3539  0.1209  0.1936
14192TIP3    H163991   6.287   0.921   4.710  1.3471  0.1785  0.6800
14192TIP3    H263992   6.192   1.036   4.684 -0.6520 -1.5978 -0.1516
14193TIP3   OH263993   1.267   1.494  13.494  0.2983 -0.4486 -0.3748
14193TIP3    H163994   1.185   1.544  13.494  0.4126 -0.2478  0.6031
14193TIP3    H263995   1.317   1.529  13.567  0.8957 -1.1691 -0.4227
14194TIP3   OH263996   3.843   6.415  11.210  0.1159  0.2279 -0.1315
14194TIP3    H163997   3.897   6.368  11.146  0.5205 -0.7031  0.8697
14194TIP3    H263998   3.839   6.357  11.285  0.1115  1.5389  0.9205
14195TIP3   OH263999   5.123   5.149   2.144  0.2394  0.0161 -0.4867
14195TIP3    H164000   5.118   5.063   2.186  0.7629 -0.1286 -0.7182
14195TIP3    H264001   5.089   5.134   2.056 -1.6009  0.4827  0.1021
14196TIP3   OH264002   3.594   1.798   3.717  0.1360 -0.0538 -0.0823
14196TIP3    H164003   3.554   1.812   3.631 -0.4456 -0.2583  0.1505
14196TIP3    H264004   3.686   1.780   3.698  0.2781  1.1035 -0.5842
14197TIP3   OH264005   6.635   1.439  13.771  0.0117  0.4363 -0.0552
14197TIP3    H164006   6.642   1.523  13.725  0.2107  0.2497 -0.3729
14197TIP3    H264007   6.545   1.437  13.804  0.0677  0.8628  0.1280
14198TIP3   OH264008   6.404   6.404  11.283  0.1080  0.2042 -0.4921
14198TIP3    H164009   6.340   6.368  11.221 -0.9884  1.1137  0.0880
14198TIP3    H264010   6.394   6.499  11.276  1.1108  0.3532 -0.0762
14199TIP3   OH264011   4.694   6.272   1.748 -0.0898 -0.3155  0.1811
14199TIP3    H164012   4.772   6.218   1.757  0.4716 -0.0057 -2.1159
14199TIP3    H264013   4.717   6.355   1.791  0.7822 -0.3084 -0.2682
14200TIP3   OH264014   3.179   1.049  14.392  0.0249  0.0978 -0.0393
14200TIP3    H164015   3.185   1.042  14.297  1.0528  2.2214 -0.1777
14200TIP3    H264016   3.121   1.124  14.407  0.3883  0.1855  0.9988
14201TIP3   OH264017   3.524   6.106   1.182  0.0120  0.1210 -0.6673
14201TIP3    H164018   3.484   6.052   1.113  0.1707 -0.0530 -0.6227
14201TIP3    H264019   3.593   6.155   1.138 -0.0313  0.1744 -0.6763
14202TIP3   OH264020   0.248   1.651  14.411 -0.1261  0.3263 -0.3721
14202TIP3    H164021   0.245   1.680  14.319 -0.1843  3.5982  0.5372
14202TIP3    H264022   0.178   1.700  14.454  1.0128  0.2084  1.7481
14203TIP3   OH264023   2.370   5.363   4.428  0.2158 -0.7371  0.2563
14203TIP3    H164024   2.292   5.316   4.455 -0.6940 -2.2962 -4.2144
14203TIP3    H264025   2.443   5.305   4.451 -0.3030 -1.2583  0.6002
14204TIP3   OH264026   0.707   5.136  14.281 -0.7707  0.1424 -0.8511
14204TIP3    H164027   0.668   5.130  14.194  0.5855 -1.9357 -1.3898
14204TIP3    H264028   0.797   5.165  14.265 -0.2935 -0.9182 -0.2396
14205TIP3   OH264029   1.137   3.595  16.720  0.2414 -0.0264 -0.2628
14205TIP3    H164030   1.072   3.544  16.769 -1.0288  1.3650 -0.4051
14205TIP3    H264031   1.136   3.557  16.632 -2.2909  1.4436 -1.0051
14206TIP3   OH264032   3.052   4.310  16.976 -0.1111 -0.5312 -0.3013
14206TIP3    H164033   3.108   4.373  16.931  0.6406  1.3095  2.9262
14206TIP3    H264034   2.987   4.286  16.911  0.0960  2.9130 -2.0205
14207TIP3   OH264035   0.453   2.173  16.300 -0.1055 -0.5060  0.7133
14207TIP3    H164036   0.485   2.189  16.211 -1.8927 -1.1946 -0.1149
14207TIP3    H264037   0.496   2.239  16.354  0.0679  0.7609 -0.8929
14208TIP3   OH264038   4.146   1.324  13.240 -0.0343  0.2230 -0.0814
14208TIP3    H164039   4.198   1.339  13.160 -1.5696  1.0195 -0.9794
14208TIP3    H264040   4.075   1.267  13.211  0.1931 -0.6812  1.0842
14209TIP3   OH264041   6.527   5.066   1.441 -0.7073 -0.5455  0.0143
14209TIP3    H164042   6.567   5.100   1.361  0.1915  0.4093  0.8559
14209TIP3    H264043   6.520   5.142   1.499 -2.9821 -0.8496  0.2203
14210TIP3   OH264044   0.058   0.289  16.619 -0.3556  0.5659 -0.0524
14210TIP3    H164045  -0.003   0.291  16.693  2.5109 -0.8083  2.5745
14210TIP3    H264046   0.077   0.196  16.607  0.3869  0.8883 -1.5602
14211TIP3   OH264047   5.875   5.861  15.991  0.0723  0.5782 -0.0916
14211TIP3    H164048   5.901   5.943  15.950  0.5924  0.1352 -0.6523
14211TIP3    H264049   5.878   5.797  15.920  1.6375 -0.3361  0.7641
14212TIP3   OH264050   0.887   2.773   3.614 -0.1053  0.2805  0.4413
14212TIP3    H164051   0.941   2.728   3.679 -0.1734  0.4128  0.5901
14212TIP3    H264052   0.936   2.764   3.532  0.2659  0.6023  0.6198
14213TIP3   OH264053   0.592   5.609   4.926  0.3389 -0.4478  0.0228
14213TIP3    H164054   0.683   5.580   4.927 -0.0879 -1.8668 -0.4725
14213TIP3    H264055   0.594   5.692   4.879  1.3519 -0.5339 -0.1082
14214TIP3   OH264056   2.785   2.109  13.378  0.5829  0.2117  0.2957
14214TIP3    H164057   2.694   2.085  13.359  0.5366 -0.5381  1.3806
14214TIP3    H264058   2.809   2.170  13.309 -0.4217 -0.3671 -0.5915
14215TIP3   OH264059   6.665   6.385   6.367  0.4553 -0.0904 -0.5747
14215TIP3    H164060   6.643   6.478   6.362 -0.5915 -0.3896 -2.9607
14215TIP3    H264061   6.750   6.378   6.324  0.5096 -0.2591 -0.4412
14216TIP3   OH264062   2.214   0.007  14.383 -0.0600  0.5126 -0.2327
14216TIP3    H164063   2.296   0.039  14.347 -0.3206 -0.8504 -2.1747
14216TIP3    H264064   2.207   0.051  14.468  3.5275 -0.5757  0.8339
14217TIP3   OH264065   1.214   0.985   0.639  0.0559 -0.1268  0.1124
14217TIP3    H164066   1.250   1.015   0.556  0.1177 -0.7811 -0.1020
14217TIP3    H264067   1.146   1.049   0.660 -0.1639 -0.1218 -0.5912
14218TIP3   OH264068   2.266   4.253  16.131  0.1780 -0.4555 -0.9778
14218TIP3    H164069   2.212   4.254  16.209  0.9193  2.6890 -0.3350
14218TIP3    H264070   2.233   4.180  16.079 -1.6504 -1.4114  1.3433
14219TIP3   OH264071   1.242   2.241  16.033 -0.0393  0.4385 -0.1419
14219TIP3    H164072   1.160   2.194  16.049 -0.5242  1.5792  0.8873
14219TIP3    H264073   1.289   2.185  15.971 -2.1467  0.3685 -1.8213
14220TIP3   OH264074   1.311   2.124   3.932  0.3336  0.0902 -0.2787
14220TIP3    H164075   1.301   2.030   3.920  2.7440 -0.0652 -1.8523
14220TIP3    H264076   1.308   2.160   3.843  2.2623  1.1002  0.0033
14221TIP3   OH264077   4.686   6.436  16.729 -0.1121  0.0526 -0.0678
14221TIP3    H164078   4.771   6.398  16.752 -0.7122  0.1223  2.4825
14221TIP3    H264079   4.707   6.523  16.696  0.8050  0.1686  0.7916
14222TIP3   OH264080   5.405   0.341  12.377 -0.3177 -0.3184  0.4888
14222TIP3    H164081   5.347   0.409  12.343  0.6187  0.1439 -0.2386
14222TIP3    H264082   5.403   0.352  12.472  0.0372  0.9138  0.3713
14223TIP3   OH264083   0.952   4.665  14.846 -0.0709 -0.0629 -0.2112
14223TIP3    H164084   0.865   4.635  14.821  0.2573 -0.3927 -0.9815
14223TIP3    H264085   1.012   4.615  14.791  0.7182 -1.2219  1.6121
14224TIP3   OH264086   3.451   2.845   0.316  0.6663 -0.1210  0.1965
14224TIP3    H164087   3.452   2.941   0.312  2.3526 -0.1038  0.4164
14224TIP3    H264088   3.513   2.817   0.250  1.1898 -1.0105  1.0308
14225TIP3   OH264089   6.437   5.118   3.995  0.0668  0.9718 -0.1355
14225TIP3    H164090   6.427   5.116   4.090 -1.0235  0.6575 -0.2454
14225TIP3    H264091   6.521   5.075   3.979  0.7087  1.8770  0.7320
14226TIP3   OH264092   4.249   4.006   6.505  0.2472 -0.3395 -0.1464
14226TIP3    H164093   4.264   4.051   6.588 -2.0687 -2.5326  1.5933
14226TIP3    H264094   4.308   3.931   6.507 -0.6991 -1.0932  0.1366
14227TIP3   OH264095   0.615   0.045  12.140  0.1133 -0.5647 -0.3904
14227TIP3    H164096   0.520   0.059  12.144 -0.0284 -1.7292  1.5784
14227TIP3    H264097   0.653   0.132  12.135 -1.0141  0.0454  1.1085
14228TIP3   OH264098   6.387   0.491  14.882  0.0187  0.4508 -0.2607
14228TIP3    H164099   6.296   0.464  14.868 -0.1809  0.9526  0.0338
14228TIP3    H264100   6.435   0.409  14.895 -0.6516  0.2468  1.1063
14229TIP3   OH264101   2.505   2.888   5.329 -0.2362 -0.4935  0.2218
14229TIP3    H164102   2.550   2.915   5.249 -0.3955 -2.1018 -0.4422
14229TIP3    H264103   2.434   2.832   5.299  1.5882 -3.7808  1.5654
14230TIP3   OH264104   5.205   5.890  15.947  0.0067  0.2216 -0.2121
14230TIP3    H164105   5.292   5.868  15.916 -0.8137  0.9077 -3.4124
14230TIP3    H264106   5.162   5.806  15.960  0.3121 -0.1385 -1.4079
14231TIP3   OH264107   0.232   5.256   5.132  0.0507 -0.2559  0.2401
14231TIP3    H164108   0.141   5.286   5.136 -0.2588 -1.2248  2.3251
14231TIP3    H264109   0.281   5.330   5.096 -1.2995  1.0129  0.8958
14232TIP3   OH264110   5.273   2.539   4.792  0.3152  0.3592 -0.4038
14232TIP3    H164111   5.264   2.467   4.729 -1.8213 -1.2783  1.5876
14232TIP3    H264112   5.285   2.496   4.876 -0.5742  2.3252  0.8124
14233TIP3   OH264113   0.835   6.505  17.257  0.5020  0.1330  0.1440
14233TIP3    H164114   0.863   6.510  17.166 -0.7031  0.6604 -0.2165
14233TIP3    H264115   0.821   6.597  17.283  1.8426  0.0613  1.1924
14234TIP3   OH264116   6.474   4.577  15.367 -0.1953  0.3066 -0.8158
14234TIP3    H164117   6.562   4.550  15.394 -0.2550  0.4968 -0.4268
14234TIP3    H264118   6.417   4.504  15.394 -0.0230 -0.2991 -2.0214
14235TIP3   OH264119   2.093   0.136  11.393  0.2278 -0.2556 -0.4094
14235TIP3    H164120   2.121   0.170  11.308  0.0136  0.1775 -0.3087
14235TIP3    H264121   2.149   0.060  11.407  0.9144  0.2124 -0.5121
14236TIP3   OH264122   2.782   5.029   2.687 -0.1079  0.0600 -0.6050
14236TIP3    H164123   2.708   5.086   2.669 -1.7017 -1.6833  0.0988
14236TIP3    H264124   2.817   5.007   2.601 -0.3907  0.9109 -0.9439
14237TIP3   OH264125   0.411   5.925  17.378  0.1918 -0.2732  0.3173
14237TIP3    H164126   0.322   5.896  17.358 -0.8197  2.8988 -0.3827
14237TIP3    H264127   0.420   5.916  17.472 -0.5077 -1.5134  0.2707
14238TIP3   OH264128   4.971   1.351   0.674 -0.0521 -0.0488  0.0555
14238TIP3    H164129   4.977   1.377   0.582  1.8625  0.5386  0.2933
14238TIP3    H264130   5.040   1.285   0.684 -0.6861 -0.5893  0.9164
14239TIP3   OH264131   4.281   1.445  14.695 -0.0281  0.1705  0.2792
14239TIP3    H164132   4.218   1.396  14.643 -0.6355  0.0630  1.0993
14239TIP3    H264133   4.280   1.533  14.658  1.7718 -0.6115 -1.8321
14240TIP3   OH264134   0.097   5.745  13.265  0.3825  0.0149  0.1554
14240TIP3    H164135   0.180   5.769  13.306  0.5760  0.8290 -0.6642
14240TIP3    H264136   0.031   5.763  13.331  0.8483 -0.6332  0.8156
14241TIP3   OH264137   6.259   6.553   2.942 -0.3002 -0.0725  0.1638
14241TIP3    H164138   6.267   6.482   2.878 -0.7311  0.8826 -0.9737
14241TIP3    H264139   6.178   6.534   2.989 -0.6758 -0.0600 -0.4806
14242TIP3   OH264140   0.471   2.243  13.811  0.4148  0.2211  0.3919
14242TIP3    H164141   0.486   2.253  13.904  0.7583 -0.6750  0.4475
14242TIP3    H264142   0.423   2.160  13.803  1.6469 -0.4437 -0.3236
14243TIP3   OH264143   3.994   4.296  14.345 -0.0007  0.9385 -0.5256
14243TIP3    H164144   3.927   4.239  14.383  0.1273  0.1533 -1.4164
14243TIP3    H264145   4.074   4.274  14.392  0.4037 -0.8473 -1.9181
14244TIP3   OH264146   6.664   0.841  10.556 -0.2061  0.3814 -0.0429
14244TIP3    H164147   6.571   0.837  10.534 -0.2067  0.5827 -0.0857
14244TIP3    H264148   6.670   0.915  10.616 -0.2961 -0.5140  1.0983
14245TIP3   OH264149   5.672   5.254   0.657  0.4577 -0.0994 -0.0629
14245TIP3    H164150   5.746   5.254   0.718  0.6499 -1.2221 -0.2654
14245TIP3    H264151   5.675   5.168   0.616 -1.0245 -0.2176 -0.0023
14246TIP3   OH264152   5.317   1.855  17.135  0.4236 -0.2919  0.0488
14246TIP3    H164153   5.268   1.884  17.212 -0.5405  0.9558 -1.0055
14246TIP3    H264154   5.409   1.867  17.160  0.2700 -2.4576  1.9664
14247TIP3   OH264155   3.458   0.483  13.271  0.3147 -0.0084 -0.3185
14247TIP3    H164156   3.390   0.446  13.215  0.5185 -1.0162  0.0859
14247TIP3    H264157   3.529   0.419  13.268 -0.2299 -0.8417  2.2626
14248TIP3   OH264158   3.571   0.744   0.683 -0.9205  0.0072  0.6532
14248TIP3    H164159   3.609   0.674   0.736 -2.6620 -0.5737  1.1838
14248TIP3    H264160   3.579   0.822   0.738  1.3089  0.3681 -0.0629
14249TIP3   OH264161   1.575   5.601   2.086 -0.2528 -0.0957  0.2989
14249TIP3    H164162   1.601   5.675   2.031 -1.9319  0.3402  0.0411
14249TIP3    H264163   1.620   5.526   2.049  0.0871  0.5007 -0.5265
14250TIP3   OH264164   4.277   6.683   2.981 -0.1815  0.0292  0.2417
14250TIP3    H164165   4.335   6.759   2.972  0.1247 -0.2698 -0.4052
14250TIP3    H264166   4.204   6.714   3.034 -0.2349  0.8812 -0.3112
14251TIP3   OH264167   2.164   2.196  17.245 -0.1472  0.1944 -0.0155
14251TIP3    H164168   2.107   2.176  17.171 -0.0359  0.5865 -0.2066
14251TIP3    H264169   2.195   2.285  17.229  2.0811 -0.6782 -0.9487
14252TIP3   OH264170   0.784   4.284  13.230 -0.2280 -0.3814  0.1405
14252TIP3    H164171   0.707   4.249  13.276  0.5631 -0.6836  1.2711
14252TIP3    H264172   0.814   4.212  13.175  0.7436 -1.1688  1.6360
14253TIP3   OH264173   1.982   0.486  12.675 -0.0628 -0.3703 -0.1172
14253TIP3    H164174   1.953   0.526  12.758  1.2585 -2.6116  1.5377
14253TIP3    H264175   1.979   0.558  12.612 -0.7104  1.5558  1.9556
14254TIP3   OH264176   0.117   4.204  15.859 -0.4462  0.3924  0.3800
14254TIP3    H164177   0.094   4.129  15.803 -1.5401  0.2214  1.0230
14254TIP3    H264178   0.212   4.198  15.869 -0.3227 -0.0093 -0.8316
14255TIP3   OH264179   3.951   5.214  13.142  0.0698  0.0315  0.4054
14255TIP3    H164180   4.015   5.272  13.101  0.6975 -0.8751  0.0679
14255TIP3    H264181   4.002   5.138  13.170 -0.8091 -0.5693  0.4155
14256TIP3   OH264182   2.835   6.008  14.943  0.4075 -0.2986 -0.1599
14256TIP3    H164183   2.776   5.954  14.890 -0.1380  0.8393 -0.7475
14256TIP3    H264184   2.854   5.954  15.020 -0.2108 -1.2717 -0.6626
14257TIP3   OH264185   5.093   6.385  13.707  0.2312  0.1571 -0.6160
14257TIP3    H164186   5.033   6.312  13.690  0.6939 -0.5194  0.5721
14257TIP3    H264187   5.097   6.392  13.802  2.0681  0.1427 -0.6469
14258TIP3   OH264188   0.323   1.199  13.751 -0.0935  0.1345  0.2483
14258TIP3    H164189   0.265   1.272  13.774 -0.3121  0.4875 -1.2939
14258TIP3    H264190   0.389   1.238  13.695  0.5669 -0.6270  0.4845
14259TIP3   OH264191   3.589   0.067   1.473 -0.1512 -0.1624  0.3834
14259TIP3    H164192   3.532   0.137   1.507  0.7028  1.0380 -0.5644
14259TIP3    H264193   3.647   0.046   1.546 -0.7056 -0.1836  0.8197
14260TIP3   OH264194   5.035   3.345  15.067  0.2818  0.3570 -0.3023
14260TIP3    H164195   5.073   3.385  14.989  2.1846 -2.6176 -1.0770
14260TIP3    H264196   4.956   3.302  15.036  0.7555 -0.3780 -0.5201
14261TIP3   OH264197   2.669   6.281  12.413  0.0664 -0.6693  0.4982
14261TIP3    H164198   2.664   6.359  12.468  0.0948 -0.0565 -0.3591
14261TIP3    H264199   2.642   6.209  12.471 -0.7601  0.0816  1.0667
14262TIP3   OH264200   2.709   0.501  11.178  0.0921 -0.5359 -0.2263
14262TIP3    H164201   2.751   0.587  11.176 -0.3554 -0.3184 -0.5418
14262TIP3    H264202   2.771   0.443  11.134  0.2755 -0.3187 -0.2571
14263TIP3   OH264203   6.271   0.925   2.768 -0.1390  0.2512 -0.6163
14263TIP3    H164204   6.226   0.841   2.778 -2.2069  1.4640  1.0277
14263TIP3    H264205   6.202   0.988   2.749  1.3182  1.6716 -1.4464
14264TIP3   OH264206   2.313   3.220  12.023  0.5514  0.2479 -0.1507
14264TIP3    H164207   2.241   3.205  11.961 -1.1204 -0.2003  1.7867
14264TIP3    H264208   2.345   3.308  12.001 -0.4726  0.3945 -1.1811
14265TIP3   OH264209   3.760   5.025  13.611 -0.7467  0.3787 -0.4300
14265TIP3    H164210   3.757   4.990  13.522 -1.3465  1.5242 -0.8872
14265TIP3    H264211   3.767   4.948  13.667  0.5680 -0.3265 -1.5021
14266TIP3   OH264212   1.913   5.600  10.803  0.4560 -0.2881 -0.0784
14266TIP3    H164213   1.824   5.611  10.837 -0.0816  1.2856 -1.8668
14266TIP3    H264214   1.904   5.607  10.708  2.6323  1.0691 -0.2625
14267TIP3   OH264215   5.528   0.442  15.198  0.0478 -0.2508  0.7677
14267TIP3    H164216   5.508   0.396  15.279  4.0760 -1.4474  1.3135
14267TIP3    H264217   5.510   0.534  15.217  1.0083 -0.4791  3.1054
14268TIP3   OH264218   4.568   0.706  16.083 -0.3979 -0.7935  0.5741
14268TIP3    H164219   4.509   0.722  16.157 -0.6508  1.2498 -0.0173
14268TIP3    H264220   4.512   0.669  16.015 -0.5133 -1.0666  0.8164
14269TIP3   OH264221   0.880   2.114  11.230 -0.0720 -0.6131 -0.2588
14269TIP3    H164222   0.939   2.115  11.305 -0.0244  1.3862 -0.2568
14269TIP3    H264223   0.934   2.147  11.157 -1.1536  1.3480 -0.2304
14270TIP3   OH264224   1.933   6.652  13.358 -0.2571  0.7250 -0.3677
14270TIP3    H164225   1.926   6.653  13.262  2.0927  2.5103 -0.6097
14270TIP3    H264226   1.905   6.564  13.383 -1.8473  0.5157 -2.5739
14271TIP3   OH264227   2.340   0.006  13.916 -0.1655 -0.2868  0.5635
14271TIP3    H164228   2.315   0.083  13.967 -1.8928  0.4220 -1.2459
14271TIP3    H264229   2.314  -0.068  13.970 -0.0305  0.3901  1.5919
14272TIP3   OH264230   5.284   0.182   1.430 -0.2579 -0.4992  0.1837
14272TIP3    H164231   5.320   0.201   1.516  0.2859 -1.4390  0.1767
14272TIP3    H264232   5.311   0.092   1.411 -1.2651 -0.6842 -0.5083
14273TIP3   OH264233   2.694   5.431  11.756  0.5603 -0.3370  0.1183
14273TIP3    H164234   2.753   5.504  11.736 -0.0218  0.1174  0.0600
14273TIP3    H264235   2.634   5.466  11.822 -0.0960 -0.5771 -0.3429
14274TIP3   OH264236   5.798   1.838  16.338  0.5796  0.9229  0.0725
14274TIP3    H164237   5.893   1.829  16.340  0.4175 -1.9203 -0.0030
14274TIP3    H264238   5.777   1.846  16.245  0.7115  1.3188  0.0734
14275TIP3   OH264239   2.673   2.963  15.341 -0.3685  0.2405  0.2378
14275TIP3    H164240   2.676   2.984  15.434  1.0918  1.5944 -0.0792
14275TIP3    H264241   2.758   2.924  15.322 -1.0030 -0.9195 -0.3607
14276TIP3   OH264242   3.488   5.555   0.472 -1.0636  0.0448 -0.1877
14276TIP3    H164243   3.437   5.484   0.434 -0.1543 -1.5783  1.4400
14276TIP3    H264244   3.537   5.513   0.544  3.3619  1.1712 -2.2082
14277TIP3   OH264245   1.004   1.439   4.203  0.7641  0.2235 -0.0212
14277TIP3    H164246   0.935   1.414   4.264  1.9373 -0.6197  1.0024
14277TIP3    H264247   0.974   1.521   4.164 -0.9988 -0.3401  0.0829
14278TIP3   OH264248   1.749   0.529  10.817  0.6062  0.0445 -0.0017
14278TIP3    H164249   1.834   0.493  10.843  1.0658 -0.4234 -1.9830
14278TIP3    H264250   1.719   0.471  10.748 -0.2737  1.4906 -0.8850
14279TIP3   OH264251   0.626   3.883  16.739  0.1582 -0.2965 -0.4311
14279TIP3    H164252   0.566   3.872  16.666 -0.0945 -0.2999 -0.2249
14279TIP3    H264253   0.591   3.957  16.788  0.7261  0.1668 -0.7082
14280TIP3   OH264254   3.193   5.427  15.203 -0.1774 -0.3077  0.1003
14280TIP3    H164255   3.238   5.347  15.175  2.3032  0.5658  1.2736
14280TIP3    H264256   3.123   5.397  15.261  1.2426 -1.6346  1.1930
14281TIP3   OH264257   3.777   3.038   5.949 -0.2646  0.0510  0.3100
14281TIP3    H164258   3.829   2.960   5.966 -2.0315 -1.6652 -1.6234
14281TIP3    H264259   3.762   3.076   6.036  0.6699 -1.7240  1.3079
14282TIP3   OH264260   3.092   1.729  16.622  0.5027 -0.0784 -0.3486
14282TIP3    H164261   3.070   1.704  16.712 -0.6542 -0.2882 -0.6616
14282TIP3    H264262   3.028   1.798  16.601  0.5669 -0.2434 -1.1024
14283TIP3   OH264263   2.874   3.893   0.841 -0.2166  0.3607 -0.7580
14283TIP3    H164264   2.926   3.813   0.849  0.8562  1.0408 -0.7602
14283TIP3    H264265   2.792   3.864   0.803 -0.2489 -0.9019  0.1944
14284TIP3   OH264266   5.318   6.162   5.613 -0.2009 -0.0214  0.0167
14284TIP3    H164267   5.262   6.217   5.668 -0.7332  0.2894 -0.8320
14284TIP3    H264268   5.267   6.082   5.601 -0.7157  0.4741 -1.2086
14285TIP3   OH264269   3.284   2.698   0.479  0.8935  0.0375 -0.4926
14285TIP3    H164270   3.339   2.749   0.418 -0.0514  0.5373 -0.9440
14285TIP3    H264271   3.343   2.631   0.513  1.5202 -0.0909 -1.7639
14286TIP3   OH264272   5.307   4.880  16.342  0.0853 -0.3968 -0.0251
14286TIP3    H164273   5.318   4.975  16.350 -0.1273 -0.2579 -1.1679
14286TIP3    H264274   5.270   4.852  16.426  1.5138  0.3021  0.8834
14287TIP3   OH264275   5.666   3.058   0.155  0.1394 -0.1496 -0.2006
14287TIP3    H164276   5.612   3.051   0.076  1.2218  1.2199 -1.0955
14287TIP3    H264277   5.653   2.974   0.199 -1.0512 -0.6724 -1.4543
14288TIP3   OH264278   3.246   4.855   6.681  0.6721  0.5185  0.2104
14288TIP3    H164279   3.159   4.895   6.678 -0.5095 -1.8246  0.8726
14288TIP3    H264280   3.239   4.778   6.625  1.5485 -1.0338  2.1102
14289TIP3   OH264281   5.613   6.467  11.581 -0.1927 -0.3665  0.0757
14289TIP3    H164282   5.685   6.404  11.573 -1.2332 -1.8456  1.7091
14289TIP3    H264283   5.648   6.536  11.639  1.1239  0.9293 -2.1261
14290TIP3   OH264284   4.992   1.146  15.190 -0.2537 -0.3245  0.0255
14290TIP3    H164285   4.915   1.122  15.138  0.4284  0.3716 -1.3551
14290TIP3    H264286   4.958   1.209  15.254 -0.9257 -0.4335 -0.2092
14291TIP3   OH264287   5.216   6.358  14.807  0.2680  0.2035  0.1341
14291TIP3    H164288   5.254   6.440  14.838  0.2601  0.0119  0.6533
14291TIP3    H264289   5.148   6.385  14.744  0.7493  0.5675 -0.2360
14292TIP3   OH264290   4.032   5.421  11.905  0.0021 -0.5367 -0.1915
14292TIP3    H164291   3.965   5.432  11.974 -0.3836  0.9020 -0.7694
14292TIP3    H264292   3.983   5.386  11.830 -0.5055  2.0777 -1.1722
14293TIP3   OH264293   4.029   4.908  15.802  0.3560 -0.6185 -0.3993
14293TIP3    H164294   4.114   4.894  15.842 -0.2528 -1.1469  0.7479
14293TIP3    H264295   3.969   4.922  15.876 -0.7252 -1.2301 -1.1271
14294TIP3   OH264296   4.467   1.208   1.130  0.5780  0.4154  0.7239
14294TIP3    H164297   4.544   1.247   1.172  1.0533 -1.1919  1.4549
14294TIP3    H264298   4.450   1.263   1.054  1.2899  1.9119  1.5977
14295TIP3   OH264299   2.547   5.204  11.902  0.3348  0.2208 -0.1888
14295TIP3    H164300   2.598   5.278  11.869  2.8589 -1.3459 -0.1116
14295TIP3    H264301   2.549   5.214  11.997 -1.5570  1.3753 -0.2283
14296TIP3   OH264302   5.469   6.465  17.089 -0.0779  0.0962  0.3708
14296TIP3    H164303   5.517   6.543  17.061 -0.5449 -0.1617 -1.2544
14296TIP3    H264304   5.505   6.444  17.175  0.1308  2.0386  0.7978
14297TIP3   OH264305   3.676   4.833  11.844 -0.1732  0.2201  0.4831
14297TIP3    H164306   3.649   4.773  11.913 -1.3011 -2.0110 -1.7244
14297TIP3    H264307   3.764   4.861  11.869 -0.5403 -0.4896  2.7695
14298TIP3   OH264308   3.072   3.248  13.020  0.1069  0.2131 -0.0181
14298TIP3    H164309   3.112   3.310  13.081 -1.5430  1.5659 -0.2355
14298TIP3    H264310   3.013   3.196  13.074  0.6252 -0.3989 -0.0338
14299TIP3   OH264311   1.014   6.172   1.969 -0.0902  0.0519  0.2040
14299TIP3    H164312   1.003   6.079   1.950  1.1838 -0.0895  0.0796
14299TIP3    H264313   1.091   6.176   2.025 -1.2998  0.8606  1.8968
14300TIP3   OH264314   1.908   2.558   2.199 -0.1479  0.0265 -0.1109
14300TIP3    H164315   1.984   2.603   2.236 -1.0082 -0.7260  2.8520
14300TIP3    H264316   1.943   2.507   2.126  1.6906  1.6390 -0.4376
14301TIP3   OH264317   2.580   3.553  13.216  0.3427 -0.1673 -0.0102
14301TIP3    H164318   2.639   3.628  13.208  1.6914 -0.6140  3.7948
14301TIP3    H264319   2.517   3.579  13.284 -1.2525 -1.3255 -0.9653
14302TIP3   OH264320   0.840   1.597   3.557 -0.0507  0.0933  0.6801
14302TIP3    H164321   0.751   1.597   3.522 -0.1307 -0.9969  0.8560
14302TIP3    H264322   0.830   1.566   3.647  0.3844  1.0614  1.0817
14303TIP3   OH264323   5.650   5.629  17.389 -0.3890 -0.2270  0.4116
14303TIP3    H164324   5.658   5.681  17.469 -2.8103  0.2551  0.3871
14303TIP3    H264325   5.621   5.691  17.322  0.8015 -0.7946 -0.6739
14304TIP3   OH264326   0.942   5.562   4.358 -0.4656  0.0551 -0.0178
14304TIP3    H164327   0.876   5.619   4.319 -0.3865 -0.1268 -0.4294
14304TIP3    H264328   0.961   5.497   4.290  1.7006  1.3557 -0.7497
14305TIP3   OH264329   6.433   6.063  15.922  0.1499 -0.5124  0.4260
14305TIP3    H164330   6.456   6.141  15.973  1.3838 -0.4728 -0.1437
14305TIP3    H264331   6.341   6.047  15.943  0.4189 -0.0772  2.0924
14306TIP3   OH264332   3.430   5.277   4.759 -0.5006  0.0970 -0.0908
14306TIP3    H164333   3.396   5.213   4.822  0.3694  0.3793  0.6977
14306TIP3    H264334   3.440   5.358   4.811  0.0536  0.3867 -0.6393
14307TIP3   OH264335   2.593   3.945  16.104 -0.5258 -0.0076  0.2116
14307TIP3    H164336   2.535   3.936  16.180 -1.1648  0.2121 -0.2363
14307TIP3    H264337   2.674   3.902  16.130 -0.8901 -0.3228  0.8571
14308TIP3   OH264338   0.980   2.124  15.956  0.2269  0.1481 -0.0041
14308TIP3    H164339   0.907   2.079  15.913  0.9551  2.2881 -3.9220
14308TIP3    H264340   0.986   2.208  15.911  1.6350  2.4773  3.9957
14309TIP3   OH264341   6.343   5.725  11.214 -0.1753  0.1266  0.2585
14309TIP3    H164342   6.427   5.701  11.175  0.2037  0.1366  1.0483
14309TIP3    H264343   6.311   5.798  11.160  0.2453  0.0225 -0.1372
14310TIP3   OH264344   6.502   4.175   3.726 -0.1084 -0.1582 -0.9172
14310TIP3    H164345   6.477   4.268   3.724 -1.5653 -0.4720  0.5721
14310TIP3    H264346   6.552   4.166   3.807  0.7537 -0.5177 -1.4850
14311TIP3   OH264347   5.122   0.290   2.421 -0.2627 -0.1376 -0.0818
14311TIP3    H164348   5.058   0.265   2.488 -0.9651  1.0326 -0.2822
14311TIP3    H264349   5.103   0.234   2.346  0.7899 -1.7440  0.8036
14312TIP3   OH264350   3.785   0.994  15.125 -0.1024  0.6093 -0.6655
14312TIP3    H164351   3.805   0.902  15.107  1.1258  0.8064 -0.4053
14312TIP3    H264352   3.690   0.997  15.133 -0.1040 -0.7765  0.0680
14313TIP3   OH264353   4.612   0.975  15.091  0.4762  0.1837 -0.2563
14313TIP3    H164354   4.682   1.006  15.035  0.6044  3.6421  1.5646
14313TIP3    H264355   4.564   1.054  15.117 -2.1342 -1.6744  1.1687
14314TIP3   OH264356   6.421   4.871  15.419  0.0008 -0.0072  0.2575
14314TIP3    H164357   6.397   4.911  15.336 -1.3686  0.6012  0.9140
14314TIP3    H264358   6.434   4.778  15.398 -0.5181  0.1020 -0.5872
14315TIP3   OH264359   3.978   1.071  16.509  0.3374  0.1741 -0.6957
14315TIP3    H164360   3.966   1.163  16.534 -0.2100 -0.6721  2.5319
14315TIP3    H264361   4.071   1.063  16.488  0.3365  1.4736 -1.3207
14316TIP3   OH264362   1.225   5.252  13.119 -0.7160  0.2348  0.8854
14316TIP3    H164363   1.203   5.211  13.203 -1.7314 -0.1080  0.4757
14316TIP3    H264364   1.237   5.344  13.139 -0.7720  0.1239  1.4395
14317TIP3   OH264365   6.409   5.787   0.601  0.3746  0.2750  0.6214
14317TIP3    H164366   6.332   5.791   0.545  0.3594 -0.3860  0.5930
14317TIP3    H264367   6.415   5.696   0.629  0.8723  0.4179  1.0090
14318TIP3   OH264368   4.765   2.703  15.429  0.3448 -0.0262  0.6098
14318TIP3    H164369   4.741   2.761  15.357 -0.3776 -0.2563  0.6594
14318TIP3    H264370   4.698   2.635  15.429  2.4145 -2.2374 -0.9524
14319TIP3   OH264371   2.803   1.170  15.001 -0.9385 -0.2063  0.0412
14319TIP3    H164372   2.885   1.219  15.004 -0.0865 -1.4191 -1.6145
14319TIP3    H264373   2.809   1.109  15.074 -0.1531 -0.5579 -0.2971
14320TIP3   OH264374   1.428   3.067  17.525 -0.1418 -0.2374  0.4371
14320TIP3    H164375   1.385   2.984  17.505  0.5359 -1.0039  2.0003
14320TIP3    H264376   1.449   3.062  17.618 -1.1984  2.2353  0.8732
14321TIP3   OH264377   3.941   0.296  15.668 -0.3847 -0.1377  0.1022
14321TIP3    H164378   3.851   0.319  15.648 -0.1138  0.6882 -0.1962
14321TIP3    H264379   3.957   0.215  15.619 -0.5246  0.4756 -0.9848
14322TIP3   OH264380   2.544   6.328  16.403 -0.0781 -0.4563  0.1743
14322TIP3    H164381   2.543   6.393  16.333 -0.3177 -0.0573  0.5426
14322TIP3    H264382   2.456   6.332  16.440  0.7107  1.0511  2.0613
14323TIP3   OH264383   4.902   2.711  13.492  0.1505  0.5094  0.0735
14323TIP3    H164384   4.960   2.753  13.429  0.5002  1.7742  1.2016
14323TIP3    H264385   4.839   2.663  13.439  0.6340  1.2776 -1.2241
14324TIP3   OH264386   1.801   0.525  14.748  0.3514  0.2881 -0.2373
14324TIP3    H164387   1.713   0.507  14.714  1.5605 -2.3530 -2.4006
14324TIP3    H264388   1.836   0.592  14.690 -1.1222  3.6951  2.4863
14325TIP3   OH264389   2.727   4.596   3.233 -0.3993  0.2609 -0.0626
14325TIP3    H164390   2.661   4.587   3.165 -1.0216 -2.0203  0.7250
14325TIP3    H264391   2.796   4.534   3.207  1.5998  2.7152 -0.9645
14326TIP3   OH264392   6.048   5.540   1.186  0.5678 -0.2727  0.0355
14326TIP3    H164393   5.968   5.527   1.237  0.5178 -2.4260 -0.4899
14326TIP3    H264394   6.113   5.568   1.251 -1.0611  4.0808  0.1050
14327TIP3   OH264395   3.705   1.192  16.162  0.0594 -0.6606  0.3243
14327TIP3    H164396   3.634   1.131  16.184 -1.2017  0.8021  0.5109
14327TIP3    H264397   3.765   1.141  16.108 -1.9334 -1.5565 -1.1753
14328TIP3   OH264398   0.758   2.569  12.978 -0.6036  1.0697 -0.5310
14328TIP3    H164399   0.839   2.568  12.926 -0.5685 -1.4425 -0.5159
14328TIP3    H264400   0.788   2.563  13.068 -0.7434 -1.4062 -0.5775
14329TIP3   OH264401   0.086   6.331  12.524 -0.5364 -0.0584 -0.3424
14329TIP3    H164402   0.165   6.384  12.516 -0.1262 -0.9637 -3.1253
14329TIP3    H264403   0.117   6.241  12.516 -1.9070 -0.3898 -2.5213
14330TIP3   OH264404   6.143   0.912   2.318 -0.1523 -0.2250 -0.4356
14330TIP3    H164405   6.224   0.915   2.266  0.1521  0.3815  0.0724
14330TIP3    H264406   6.172   0.887   2.405 -0.9583 -4.2674 -1.1278
14331TIP3   OH264407   1.881   1.889  13.066 -0.1008  0.8370 -0.3188
14331TIP3    H164408   1.894   1.877  12.972 -1.2315 -0.1737 -0.3803
14331TIP3    H264409   1.889   1.983  13.080  1.1842  0.8861 -1.2309
14332TIP3   OH264410   1.646   2.256   2.922  0.2961 -0.1683 -0.4264
14332TIP3    H164411   1.731   2.212   2.922 -0.1785 -1.1047 -0.9381
14332TIP3    H264412   1.638   2.292   2.834  0.9384  1.5121  0.1479
14333TIP3   OH264413   4.926   2.159  13.808  0.2437  0.0088 -0.1506
14333TIP3    H164414   4.832   2.153  13.828  0.2045  0.3007 -0.2327
14333TIP3    H264415   4.929   2.195  13.720  0.4114 -1.8244 -0.9219
14334TIP3   OH264416   6.254   5.043   3.736 -0.2907 -0.5055 -0.4893
14334TIP3    H164417   6.315   5.097   3.787 -0.2802 -0.0142 -1.0080
14334TIP3    H264418   6.301   4.961   3.722 -0.6640 -1.0205  1.0908
14335TIP3   OH264419   3.663   0.316  13.389 -0.1996 -0.3307 -0.0915
14335TIP3    H164420   3.703   0.240  13.431 -0.0213 -1.2100 -1.7322
14335TIP3    H264421   3.726   0.341  13.321 -2.2983 -1.7302 -2.7360
14336TIP3   OH264422   6.124   2.986   5.912 -0.2538 -0.2965  0.3081
14336TIP3    H164423   6.084   3.007   5.827 -0.6254 -0.6200  0.4020
14336TIP3    H264424   6.073   3.037   5.975  1.2646  1.5247  0.1614
14337TIP3   OH264425   2.218   3.540   0.079  0.4706  0.3612 -0.2821
14337TIP3    H164426   2.279   3.539   0.005  1.2266  0.9210  0.3164
14337TIP3    H264427   2.257   3.480   0.143  0.9874  1.5530  0.5478
14338TIP3   OH264428   1.286   6.476  14.755 -0.4807  0.6988  0.0928
14338TIP3    H164429   1.317   6.386  14.747  0.0751  0.9236 -0.3248
14338TIP3    H264430   1.306   6.500  14.845  1.2377  1.0721 -0.3481
14339TIP3   OH264431   6.143   3.406   4.442 -0.0690  0.2456  0.0602
14339TIP3    H164432   6.075   3.471   4.456 -0.0002 -0.0801  2.2962
14339TIP3    H264433   6.102   3.340   4.387 -2.4829 -1.0800  3.1081
14340TIP3   OH264434   0.263   2.009   5.462 -0.1926  0.1862  0.0113
14340TIP3    H164435   0.200   2.014   5.390 -1.9762 -0.7603  1.4452
14340TIP3    H264436   0.239   1.930   5.510  3.3340 -1.3361 -0.4565
14341TIP3   OH264437   4.424   1.914  13.330  0.1663  0.5987 -0.1680
14341TIP3    H164438   4.414   1.892  13.423  1.4776  1.8042  0.2948
14341TIP3    H264439   4.498   1.860  13.301 -0.2667  0.1953 -0.5395
14342TIP3   OH264440   4.431   6.197  12.495 -0.2127 -0.1695 -0.4401
14342TIP3    H164441   4.459   6.143  12.568 -0.8101  0.0373 -0.0457
14342TIP3    H264442   4.500   6.263  12.486 -0.4210  0.1639  0.3259
14343TIP3   OH264443   2.770   1.003  17.248 -0.2634 -0.1738  0.9990
14343TIP3    H164444   2.687   1.051  17.247  1.0461  2.2268 -0.6303
14343TIP3    H264445   2.830   1.060  17.295  1.0995 -0.6589 -0.0950
14344TIP3   OH264446   5.946   0.929   5.284  0.1260 -0.0810 -0.1243
14344TIP3    H164447   6.036   0.923   5.317 -0.2851 -2.7445  0.7818
14344TIP3    H264448   5.956   0.922   5.189  0.9463  1.6714 -0.2124
14345TIP3   OH264449   0.655   4.925  12.987 -0.7977 -0.2203  0.7457
14345TIP3    H164450   0.748   4.938  12.967 -1.1146  0.3298 -0.3977
14345TIP3    H264451   0.654   4.845  13.040  0.3371 -0.1575  0.8968
14346TIP3   OH264452   3.702   4.621   3.970  0.0722  0.2299  0.8795
14346TIP3    H164453   3.749   4.576   4.040  0.2738 -0.9295  0.0294
14346TIP3    H264454   3.646   4.553   3.931 -1.3651  1.2727  1.0455
14347TIP3   OH264455   3.670   3.361   3.938 -0.3453  0.0257 -0.4886
14347TIP3    H164456   3.582   3.334   3.962  0.0791 -0.0079  1.1974
14347TIP3    H264457   3.670   3.456   3.949  0.0001 -0.0468  0.2148
14348TIP3   OH264458   3.824   4.403   3.279 -0.1821  0.3949 -0.1026
14348TIP3    H164459   3.758   4.354   3.327  0.8269  0.5486  1.4897
14348TIP3    H264460   3.883   4.336   3.243  1.8394  0.3047  2.9903
14349TIP3   OH264461   1.944   4.263   1.980  0.2459  0.5335 -0.8733
14349TIP3    H164462   1.972   4.339   1.930 -1.3492  1.2117 -0.7938
14349TIP3    H264463   1.874   4.295   2.036  2.7070  0.1192  2.8020
14350TIP3   OH264464   4.732   4.809   4.857  0.2007 -0.1089  0.2952
14350TIP3    H164465   4.750   4.902   4.842 -1.2321  0.4793  1.9481
14350TIP3    H264466   4.637   4.804   4.863  0.1898 -1.8667 -0.6918
14351TIP3   OH264467   3.249   3.836  12.515  0.1501 -0.2622  0.5627
14351TIP3    H164468   3.210   3.759  12.475  0.7210 -0.4080  0.2913
14351TIP3    H264469   3.275   3.807  12.603  0.3087 -0.3594  0.4832
14352TIP3   OH264470   1.446   3.284  10.980 -0.5413 -0.3426 -0.3806
14352TIP3    H164471   1.354   3.278  11.007 -0.3910  0.2618  0.2770
14352TIP3    H264472   1.442   3.302  10.886 -1.1382  1.6174 -0.0183
14353TIP3   OH264473   3.787   6.654   2.790  0.7092  0.4468 -0.3626
14353TIP3    H164474   3.704   6.620   2.822  0.2347  1.4292 -0.5072
14353TIP3    H264475   3.764   6.735   2.745  1.9371  1.7151  1.1832
14354TIP3   OH264476   0.440   3.907   1.268  0.4136  0.2237  0.1793
14354TIP3    H164477   0.356   3.877   1.234  0.1428 -1.8237  2.4208
14354TIP3    H264478   0.421   3.994   1.304  0.1190  1.2680 -2.2631
14355TIP3   OH264479   4.612   5.100  14.703 -0.2797  0.1662 -0.0525
14355TIP3    H164480   4.607   5.148  14.786  0.6621 -0.5426  0.4399
14355TIP3    H264481   4.698   5.123  14.668 -0.1423 -0.5421 -0.1946
14356TIP3   OH264482   3.513   4.410  15.494  0.2157  0.2605  0.0494
14356TIP3    H164483   3.446   4.348  15.523  0.1580  1.1791  2.1020
14356TIP3    H264484   3.569   4.422  15.571  0.5712  2.2525 -0.4620
14357TIP3   OH264485   1.788   6.126   4.461 -0.5528  0.5173  0.0045
14357TIP3    H164486   1.770   6.033   4.449 -0.1561  0.2291  1.4389
14357TIP3    H264487   1.722   6.170   4.408 -2.2269 -0.5630  1.1033
14358TIP3   OH264488   0.319   4.581  12.159  0.1361  0.0593  0.1528
14358TIP3    H164489   0.350   4.672  12.156 -0.4443  0.2263 -1.5441
14358TIP3    H264490   0.395   4.531  12.190  0.5217  1.0883  0.9299
14359TIP3   OH264491   4.307   0.495  14.904  0.0038  0.0407  0.2426
14359TIP3    H164492   4.319   0.400  14.902  0.0389  0.0528 -0.5519
14359TIP3    H264493   4.246   0.513  14.832 -0.2063  0.5922  0.5538
14360TIP3   OH264494   2.062   6.153  15.581 -0.1389 -0.0595 -0.3326
14360TIP3    H164495   2.146   6.142  15.537 -0.2090 -3.4054  0.1176
14360TIP3    H264496   2.078   6.124  15.671 -1.4582  0.6678  0.1724
14361TIP3   OH264497   2.931   6.212   0.585  0.1891 -0.0698  0.1576
14361TIP3    H164498   2.854   6.156   0.574 -1.2820  1.5292  1.8146
14361TIP3    H264499   2.993   6.158   0.635  1.4964 -2.4345 -3.5422
14362TIP3   OH264500   6.666   3.896  11.945  0.1814 -0.0701 -0.4651
14362TIP3    H164501   6.691   3.805  11.960  1.0756 -0.0325 -1.5093
14362TIP3    H264502   6.591   3.891  11.886 -0.4746 -0.1415  0.3679
14363TIP3   OH264503   2.182   5.664  11.625  0.3018 -0.1944  0.3082
14363TIP3    H164504   2.087   5.660  11.639  0.1251  0.5750 -0.6064
14363TIP3    H264505   2.217   5.696  11.708 -0.2593 -0.2553  0.5691
14364TIP3   OH264506   6.501   4.332   1.487  0.1959  0.0768  0.4070
14364TIP3    H164507   6.432   4.305   1.547  1.2415  0.1677  1.6816
14364TIP3    H264508   6.575   4.353   1.543  0.8230  1.3402 -0.8419
14365TIP3   OH264509   1.994   3.723  15.383  0.0663  0.6423  0.1258
14365TIP3    H164510   1.953   3.807  15.406  0.5930  0.5216  1.5955
14365TIP3    H264511   1.978   3.667  15.460  0.4232 -0.3485 -0.5084
14366TIP3   OH264512   5.833   5.641  15.805  0.3008 -0.0309  0.5718
14366TIP3    H164513   5.780   5.575  15.850 -0.1773 -1.6254 -2.1418
14366TIP3    H264514   5.769   5.697  15.761  0.7856  1.0910  1.2256
14367TIP3   OH264515   6.145   2.201  14.322  0.2287 -0.5796  0.6008
14367TIP3    H164516   6.124   2.112  14.292 -0.1063 -0.0491 -0.8057
14367TIP3    H264517   6.102   2.208  14.407 -0.9912 -1.2743  0.0712
14368TIP3   OH264518   6.282   1.186  11.014 -0.3020 -0.3214  0.2363
14368TIP3    H164519   6.315   1.129  10.944  0.9804 -1.1910  1.4915
14368TIP3    H264520   6.238   1.257  10.968 -1.0387 -1.7616 -1.4067
14369TIP3   OH264521   6.149   2.039  17.537 -0.3034 -0.2103 -0.3246
14369TIP3    H164522   6.216   2.015  17.602 -1.6669  0.2584  1.3250
14369TIP3    H264523   6.199   2.076  17.464  1.2241  0.7738  1.1327
14370TIP3   OH264524   6.289   0.301   3.280  0.3159 -0.3682  0.3094
14370TIP3    H164525   6.203   0.323   3.244  0.3292 -0.8290 -0.0046
14370TIP3    H264526   6.305   0.370   3.345 -0.2975 -0.2870  0.3866
14371TIP3   OH264527   2.038   0.531  15.327 -0.4076 -0.3213 -0.8221
14371TIP3    H164528   2.063   0.621  15.308  1.9703 -0.8063 -0.3434
14371TIP3    H264529   2.068   0.517  15.417  1.0442 -2.1370 -1.5269
14372TIP3   OH264530   1.129   1.641  15.719  0.6222  0.2066  0.1244
14372TIP3    H164531   1.075   1.709  15.759 -0.6479 -0.9643  0.4812
14372TIP3    H264532   1.106   1.644  15.626  1.3901  0.9691 -0.0556
14373TIP3   OH264533   5.718   1.991  13.505 -0.5063 -0.8363 -0.3412
14373TIP3    H164534   5.639   1.999  13.452 -1.0170 -1.1564  0.3552
14373TIP3    H264535   5.721   2.072  13.556 -0.1558 -0.6436 -0.6594
14374TIP3   OH264536   5.536   0.537  17.444  0.0864 -0.6367 -0.1394
14374TIP3    H164537   5.603   0.470  17.426  1.2370  0.0494  1.3591
14374TIP3    H264538   5.572   0.616  17.405  0.4648 -0.1372  1.1626
14375TIP3   OH264539   2.493   0.976  13.734 -0.5427 -0.5869 -0.0581
14375TIP3    H164540   2.489   1.041  13.664 -1.5802 -0.9192 -0.3301
14375TIP3    H264541   2.580   0.937  13.726 -0.4584 -0.2542 -0.8353
14376TIP3   OH264542   3.559   6.475   0.228  0.0545  0.3718  0.1078
14376TIP3    H164543   3.496   6.405   0.248  0.0286  0.3888  0.0859
14376TIP3    H264544   3.515   6.529   0.162  0.0755  0.4078  0.1233
14377TIP3   OH264545   2.054   2.390   5.495 -0.1901  0.1993 -0.0882
14377TIP3    H164546   2.094   2.475   5.514  1.7517 -1.2490  3.4644
14377TIP3    H264547   2.102   2.356   5.420 -0.2864  1.7374 -0.8849
14378TIP3   OH264548   2.594   2.278   1.559 -0.3445  0.2425 -0.8255
14378TIP3    H164549   2.619   2.207   1.500  0.6243 -0.7956  0.7443
14378TIP3    H264550   2.536   2.236   1.623 -0.2616  0.9950 -0.2415
14379TIP3   OH264551   1.630   3.429  13.363 -0.0877 -0.5038 -0.5958
14379TIP3    H164552   1.631   3.382  13.446  0.7013 -0.5598 -0.6307
14379TIP3    H264553   1.717   3.469  13.357 -0.2977 -0.1220 -1.1769
14380TIP3   OH264554   2.708   5.338   4.963  0.0848 -0.8223  0.2631
14380TIP3    H164555   2.620   5.306   4.986  0.1557 -0.1336  1.6089
14380TIP3    H264556   2.765   5.263   4.981 -0.0491 -0.7671  0.9682
14381TIP3   OH264557   0.445   2.328   4.645 -1.0633 -0.3957 -0.0296
14381TIP3    H164558   0.400   2.328   4.560 -0.4535  0.1353 -0.3631
14381TIP3    H264559   0.487   2.414   4.649  1.8475 -1.6799 -0.7722
14382TIP3   OH264560   2.030   5.968  16.475  0.1394  0.2903 -0.0167
14382TIP3    H164561   2.091   5.895  16.468  0.1894  0.3321 -0.0196
14382TIP3    H264562   1.994   5.978  16.387 -0.3105 -0.1127  0.1153
14383TIP3   OH264563   2.554   2.139  16.627  0.3207 -0.2419 -0.1248
14383TIP3    H164564   2.553   2.224  16.583  2.6491 -0.6138 -1.0301
14383TIP3    H264565   2.462   2.113  16.631 -0.3162  1.6823 -1.0619
14384TIP3   OH264566   1.882   5.773  15.227  0.0264 -0.2888 -0.7625
14384TIP3    H164567   1.809   5.760  15.166 -0.2830 -0.2176 -0.4116
14384TIP3    H264568   1.893   5.868  15.232  1.8592 -0.3138 -2.8213
14385TIP3   OH264569   0.408   0.670  12.274  0.4627 -0.0687  0.6265
14385TIP3    H164570   0.449   0.749  12.310 -2.6606  0.9337  2.3409
14385TIP3    H264571   0.324   0.700  12.238 -0.6974 -2.5530  1.0277
14386TIP3   OH264572   0.130   5.474  14.909 -0.0856  0.2656  0.0704
14386TIP3    H164573   0.128   5.494  15.003  1.2415  1.1493 -0.0595
14386TIP3    H264574   0.181   5.393  14.904 -0.9256 -0.2732  0.1790
14387TIP3   OH264575   2.843   3.378  13.805  0.6284 -0.4837 -0.1902
14387TIP3    H164576   2.922   3.399  13.855  1.7798 -1.1352 -1.6728
14387TIP3    H264577   2.806   3.463  13.783  1.0038 -0.1618  0.3832
14388TIP3   OH264578   4.619   5.688  13.662  0.2589  0.1233  0.0481
14388TIP3    H164579   4.628   5.755  13.594  0.5447  0.7438  0.6857
14388TIP3    H264580   4.526   5.664  13.658  0.2308  0.2888 -0.4367
14389TIP3   OH264581   6.530   3.472  14.210 -0.0067 -0.2545  0.3906
14389TIP3    H164582   6.508   3.393  14.260  1.2742 -2.3575 -2.1458
14389TIP3    H264583   6.616   3.498  14.242  0.4094 -1.0424 -0.0823
14390TIP3   OH264584   4.897   6.626   1.474 -0.1303 -0.3831 -0.3755
14390TIP3    H164585   4.814   6.624   1.427 -0.9809  2.5400  0.7481
14390TIP3    H264586   4.948   6.693   1.429  1.0477 -1.0910 -0.1335
14391TIP3   OH264587   6.524   6.468  16.750 -0.5848 -0.7045 -0.1518
14391TIP3    H164588   6.589   6.398  16.741  0.0723 -0.0828 -0.2977
14391TIP3    H264589   6.462   6.453  16.679  0.8051  0.1821 -1.5995
14392TIP3   OH264590   5.202   4.501   1.386  0.7085  0.2161  0.2142
14392TIP3    H164591   5.110   4.489   1.363  0.6909 -2.1520  1.2474
14392TIP3    H264592   5.221   4.592   1.363 -1.6580  0.5301 -0.7484
14393TIP3   OH264593   1.800   0.680   2.563 -0.0948 -0.0096  0.2844
14393TIP3    H164594   1.856   0.659   2.488 -0.6209  0.2452 -0.1831
14393TIP3    H264595   1.811   0.605   2.622  1.1367  0.2696  0.4452
14394TIP3   OH264596   4.915   3.751   5.473 -0.2655 -0.1164  0.6587
14394TIP3    H164597   4.918   3.830   5.419 -1.3145 -1.7097 -1.9068
14394TIP3    H264598   5.007   3.724   5.481  0.0304  0.9242  0.9555
14395TIP3   OH264599   0.128   6.297   0.372  0.0137  0.2092  0.4254
14395TIP3    H164600   0.112   6.209   0.338 -0.7018  0.8211 -0.8802
14395TIP3    H264601   0.187   6.337   0.307  1.6137  0.2053  1.7963
14396TIP3   OH264602   5.642   4.222   4.525 -0.2333 -0.3949 -0.3000
14396TIP3    H164603   5.597   4.197   4.443  1.1224 -0.1942 -1.1375
14396TIP3    H264604   5.611   4.311   4.543 -1.5720 -0.9308  0.1692
14397TIP3   OH264605   0.851   2.439  15.588 -0.1306 -0.0027 -0.6693
14397TIP3    H164606   0.757   2.445  15.570 -0.3346 -1.6513 -0.3146
14397TIP3    H264607   0.890   2.415  15.504 -0.4368 -2.3066 -0.2338
14398TIP3   OH264608   2.605   0.713  12.164 -0.3929 -0.5212  0.2849
14398TIP3    H164609   2.581   0.787  12.109 -1.9189 -1.3750 -0.2779
14398TIP3    H264610   2.546   0.719  12.239  0.4601 -0.3734  0.9625
14399TIP3   OH264611   4.177   4.142  11.869 -0.0096  0.4832 -0.2048
14399TIP3    H164612   4.157   4.236  11.875  1.0604  0.6855  0.5334
14399TIP3    H264613   4.121   4.110  11.797 -1.0564  1.4846  0.1317
14400TIP3   OH264614   6.454   5.293  14.559 -0.8625  0.0618  0.1038
14400TIP3    H164615   6.446   5.382  14.594  0.6037  0.3679 -0.2515
14400TIP3    H264616   6.476   5.306  14.466 -0.0892 -0.6597  0.1783
14401TIP3   OH264617   0.563   5.938   0.284  0.4191 -0.4085  0.3000
14401TIP3    H164618   0.521   6.008   0.334 -0.4981  0.0385 -1.0173
14401TIP3    H264619   0.634   5.981   0.237 -1.4914  0.2063 -2.2327
14402TIP3   OH264620   4.688   5.484  15.676 -0.2624  0.1259 -0.3771
14402TIP3    H164621   4.682   5.421  15.603 -1.5919 -0.7194  0.4122
14402TIP3    H264622   4.663   5.433  15.753  0.9760  1.0484  0.6653
14403TIP3   OH264623   3.043   0.822   1.667 -0.0415 -0.7317 -0.0486
14403TIP3    H164624   3.123   0.777   1.638 -0.9315 -2.1442 -0.3935
14403TIP3    H264625   2.986   0.752   1.699 -1.7502  0.0743 -1.1956
14404TIP3   OH264626   1.593   5.188  11.783  0.3697 -0.2419 -0.1577
14404TIP3    H164627   1.563   5.157  11.869 -0.2324 -0.3032 -0.3826
14404TIP3    H264628   1.640   5.113  11.745  0.8344 -0.1403  0.2051
14405TIP3   OH264629   5.007   4.525   5.268 -0.1200 -0.0356 -0.2608
14405TIP3    H164630   5.006   4.619   5.248  1.5186 -0.0952 -0.7860
14405TIP3    H264631   5.097   4.498   5.248 -0.2799 -1.5065  0.8861
14406TIP3   OH264632   2.086   5.594   2.499  0.0386 -0.3409 -0.0642
14406TIP3    H164633   2.078   5.511   2.546  0.1416 -0.4536 -0.2424
14406TIP3    H264634   2.158   5.640   2.543 -1.6424  0.7617  1.6625
14407TIP3   OH264635   6.691   3.790  11.204 -0.1066 -0.8592 -0.4875
14407TIP3    H164636   6.617   3.785  11.144  0.6672 -0.7417 -1.4713
14407TIP3    H264637   6.697   3.882  11.228  0.3824 -0.6724 -1.2804
14408TIP3   OH264638   2.026   0.765  10.756  0.0675 -0.1508  0.0647
14408TIP3    H164639   1.999   0.751  10.665  0.8592 -2.3930  0.1161
14408TIP3    H264640   1.975   0.702  10.806  0.0117  0.7089  1.1455
14409TIP3   OH264641   1.712   0.620  13.848 -0.1332 -0.1583  0.1904
14409TIP3    H164642   1.722   0.712  13.872 -2.2858  0.4774 -1.1462
14409TIP3    H264643   1.802   0.588  13.841  0.6537  1.5141  1.7768
14410TIP3   OH264644   5.371   3.548   6.171  0.2976  0.6537  0.1785
14410TIP3    H164645   5.298   3.597   6.133  0.2732  1.2831  0.9894
14410TIP3    H264646   5.334   3.507   6.249  0.2448 -0.9459 -0.6580
14411TIP3   OH264647   0.030   2.307  12.077 -0.0017 -0.4069 -0.0302
14411TIP3    H164648   0.109   2.262  12.110 -0.5668 -0.2940  1.5735
14411TIP3    H264649  -0.041   2.246  12.095 -0.2980 -0.6058 -1.6811
14412TIP3   OH264650   5.719   2.161   2.315 -0.3029  0.3093 -0.0460
14412TIP3    H164651   5.666   2.084   2.333 -0.5511  0.2904 -0.8231
14412TIP3    H264652   5.669   2.211   2.251 -0.0350  1.0021  0.2672
14413TIP3   OH264653   3.815   5.549  11.400  0.3067 -0.2766 -0.2635
14413TIP3    H164654   3.852   5.461  11.392  0.4441 -0.2979  0.5814
14413TIP3    H264655   3.726   5.541  11.366  1.1156 -0.1573 -2.6413
14414TIP3   OH264656   0.456   1.872  11.081 -0.6190  0.3478  0.0073
14414TIP3    H164657   0.458   1.784  11.118  0.7358  0.2317 -0.2812
14414TIP3    H264658   0.462   1.859  10.987 -0.5768  0.7448 -0.0466
14415TIP3   OH264659   1.628   0.687  13.182  0.1268  0.2438  0.0015
14415TIP3    H164660   1.538   0.716  13.194 -0.6394 -1.5687 -0.9495
14415TIP3    H264661   1.653   0.652  13.267 -1.5707 -2.9556 -0.6708
14416TIP3   OH264662   6.527   0.402   5.375 -0.2574  0.1559  0.3790
14416TIP3    H164663   6.583   0.390   5.452  1.4071 -0.8006 -0.9213
14416TIP3    H264664   6.472   0.478   5.397  0.5214  0.2249  2.2830
14417TIP3   OH264665   3.726   4.519  15.321 -0.2306  0.4955  0.6611
14417TIP3    H164666   3.688   4.550  15.239 -0.4906 -0.1256  0.5406
14417TIP3    H264667   3.668   4.449  15.350  0.7764 -0.4448  0.4970
14418TIP3   OH264668   4.011   4.713   4.672  0.3592  0.3257  0.6955
14418TIP3    H164669   4.079   4.697   4.607 -0.8561 -0.3823 -0.4672
14418TIP3    H264670   3.930   4.714   4.621 -0.4660  1.5344  1.9809
14419TIP3   OH264671   1.294   6.401   0.164  0.1058 -0.0885 -0.1281
14419TIP3    H164672   1.252   6.397   0.078 -0.2600 -0.4788  0.0625
14419TIP3    H264673   1.331   6.489   0.168  0.0191 -0.0206 -0.6342
14420TIP3   OH264674   0.951   4.896   3.864 -0.9839 -0.2652 -0.1760
14420TIP3    H164675   0.906   4.841   3.928  0.1523 -0.9639  0.0638
14420TIP3    H264676   0.982   4.835   3.798 -2.5123  0.4958 -1.6705
14421TIP3   OH264677   6.588   1.492  17.349  0.1483  0.0136 -0.1041
14421TIP3    H164678   6.646   1.424  17.313  0.7037 -0.1969  1.1239
14421TIP3    H264679   6.521   1.503  17.282  1.1610 -0.3060 -1.2265
14422TIP3   OH264680   5.834   3.746   5.267 -0.6916  0.1065  0.1387
14422TIP3    H164681   5.920   3.704   5.263 -1.8153 -2.2873 -0.4986
14422TIP3    H264682   5.851   3.837   5.244  1.4271 -0.6651 -1.6894
14423TIP3   OH264683   3.451   5.622  17.026 -0.2582  0.2655  0.1089
14423TIP3    H164684   3.447   5.550  16.963  3.0682 -0.6288  0.7123
14423TIP3    H264685   3.413   5.585  17.106  0.2492 -0.3884  0.0551
14424TIP3   OH264686   5.566   1.641  13.834  0.2888 -0.2541 -0.2314
14424TIP3    H164687   5.625   1.716  13.840  0.4841 -0.2921 -1.4813
14424TIP3    H264688   5.561   1.621  13.741 -1.2816 -0.5916 -0.1108
14425TIP3   OH264689   6.707   0.082   5.362  0.1283 -0.0031 -0.8637
14425TIP3    H164690   6.734   0.114   5.276 -0.1966  0.6072 -0.7450
14425TIP3    H264691   6.689   0.161   5.413 -3.3121 -0.2967 -1.3797
14426TIP3   OH264692   6.439   5.589  10.544  0.1622 -0.2379  0.2358
14426TIP3    H164693   6.506   5.657  10.536  0.6093  0.0434  4.2660
14426TIP3    H264694   6.479   5.510  10.508  0.4241  1.0547 -2.5674
14427TIP3   OH264695   5.435   3.535   2.892 -0.2866 -0.3118  0.3494
14427TIP3    H164696   5.504   3.503   2.835  0.6922 -1.0328  1.8888
14427TIP3    H264697   5.450   3.630   2.897 -0.6101 -0.1784 -0.8387
14428TIP3   OH264698   0.797   1.157  14.022  0.0355  0.1745  0.1651
14428TIP3    H164699   0.869   1.108  13.983  0.2379  0.6335 -0.0582
14428TIP3    H264700   0.794   1.238  13.970 -1.8304 -0.6125 -1.0390
14429TIP3   OH264701   6.047   4.813  14.535 -0.1555 -0.6960  0.0514
14429TIP3    H164702   5.962   4.770  14.524 -1.1687  1.0250  0.6913
14429TIP3    H264703   6.039   4.895  14.486  0.5567  0.1907  1.3471
14430TIP3   OH264704   3.427   1.582  12.726 -0.1598 -0.5834 -0.0823
14430TIP3    H164705   3.376   1.520  12.673  1.0032 -1.2568 -0.4723
14430TIP3    H264706   3.499   1.529  12.761 -0.9713 -0.1808  2.3244
14431TIP3   OH264707   4.082   4.209  13.315 -0.3025 -0.3771 -0.4253
14431TIP3    H164708   4.118   4.223  13.402 -0.8484 -1.7282  0.0332
14431TIP3    H264709   4.158   4.214  13.256  0.1855 -0.2657  0.2095
14432TIP3   OH264710   4.971   0.331  11.324 -0.2779 -0.5809  0.0087
14432TIP3    H164711   4.979   0.306  11.232 -0.4449  0.8092 -0.4073
14432TIP3    H264712   5.043   0.286  11.367  0.8842  0.1354 -1.1073
14433TIP3   OH264713   2.278   2.614   3.428  0.0019 -0.4162 -0.3953
14433TIP3    H164714   2.217   2.543   3.447 -0.5832 -0.4508 -2.2217
14433TIP3    H264715   2.259   2.638   3.337  0.9111  1.3655 -0.1571
14434TIP3   OH264716   6.132   4.705   1.202  0.4992 -0.1355  0.1781
14434TIP3    H164717   6.070   4.714   1.274  0.4558 -0.3327  0.1666
14434TIP3    H264718   6.115   4.617   1.167 -0.9532  0.7189 -1.4191
14435TIP3   OH264719   3.673   1.878  17.528  0.1049  0.2680 -0.0927
14435TIP3    H164720   3.670   1.827  17.447  0.4081  0.5502 -0.2857
14435TIP3    H264721   3.583   1.907  17.542 -0.3329 -1.3285  0.6770
14436TIP3   OH264722   2.927   5.360  13.133  0.3659 -0.3504 -0.6730
14436TIP3    H164723   2.922   5.369  13.228  1.5450  0.8618 -0.6931
14436TIP3    H264724   2.839   5.381  13.102  0.3612  0.8134  0.0635
14437TIP3   OH264725   1.890   1.886   5.568 -0.2109  0.0541 -0.4754
14437TIP3    H164726   1.957   1.952   5.584 -1.6116  1.2426  0.8021
14437TIP3    H264727   1.872   1.892   5.474  1.5743 -0.4367 -0.8714
14438TIP3   OH264728   1.192   3.240   3.838 -0.1606  0.3114  0.0695
14438TIP3    H164729   1.144   3.312   3.797 -0.8342 -0.7346 -1.0316
14438TIP3    H264730   1.158   3.161   3.796  0.3373 -0.6953  1.4612
14439TIP3   OH264731   5.364   4.625  16.275  0.8590  0.2305 -0.0146
14439TIP3    H164732   5.456   4.607  16.255  1.1156  2.0706 -0.6334
14439TIP3    H264733   5.361   4.719  16.293 -0.5709 -0.1433  2.0177
14440TIP3   OH264734   4.012   5.383  10.995 -0.0190 -0.5615  0.1802
14440TIP3    H164735   4.078   5.325  11.033  0.0317 -1.0857 -0.6935
14440TIP3    H264736   4.061   5.437  10.933 -0.2339 -0.2226  0.3044
14441TIP3   OH264737   0.649   6.502   5.146 -0.6814 -0.4125 -0.5964
14441TIP3    H164738   0.623   6.461   5.063  1.5011 -1.2433 -0.9624
14441TIP3    H264739   0.726   6.555   5.123 -0.3807 -0.2178  0.7932
14442TIP3   OH264740   0.564   2.685   2.321 -0.2116 -0.6371  0.0665
14442TIP3    H164741   0.653   2.682   2.357  0.2596  1.5104 -0.7684
14442TIP3    H264742   0.557   2.605   2.268  1.5399 -0.4381 -0.5243
14443TIP3   OH264743   4.039   0.512  11.592 -0.3747  0.3670  0.4729
14443TIP3    H164744   4.105   0.480  11.532  0.5786  0.5322  1.4044
14443TIP3    H264745   4.028   0.605  11.571 -1.6447 -0.0518 -0.8660
14444TIP3   OH264746   4.131   5.415  16.582  0.2175  0.6053 -0.3467
14444TIP3    H164747   4.205   5.474  16.563  0.5522  0.6299  0.9323
14444TIP3    H264748   4.087   5.405  16.498  2.5852 -0.6906 -1.5414
14445TIP3   OH264749   0.553   6.487  11.561  0.2947  0.2170  0.0321
14445TIP3    H164750   0.485   6.553  11.553 -0.5577 -0.7105 -0.7322
14445TIP3    H264751   0.536   6.443  11.644  1.1660  1.2522  0.7848
14446TIP3   OH264752   5.010   3.646   0.642 -0.0509  0.4576  0.2071
14446TIP3    H164753   5.048   3.732   0.626  0.0074 -0.0586 -3.0125
14446TIP3    H264754   4.919   3.653   0.612 -0.0361 -0.5882 -0.1314
14447TIP3   OH264755   1.611   4.843   1.621  0.2418  0.5863 -0.3110
14447TIP3    H164756   1.675   4.824   1.689  0.1274  2.3719  0.3537
14447TIP3    H264757   1.661   4.891   1.554 -0.1811  1.1735 -0.2180
14448TIP3   OH264758   5.267   5.032  14.560  0.5612 -0.1602  0.6936
14448TIP3    H164759   5.318   5.101  14.600  1.1196 -0.6458  0.8290
14448TIP3    H264760   5.306   5.021  14.473 -0.6044  0.8493  0.0074
14449TIP3   OH264761   0.180   3.427  14.763 -0.1514 -0.1769 -0.1808
14449TIP3    H164762   0.147   3.434  14.853  0.5789  3.4105 -0.0663
14449TIP3    H264763   0.260   3.376  14.771 -1.7531 -2.7842  0.5892
14450TIP3   OH264764   2.446   0.658   2.749  0.0196 -0.4002 -0.2067
14450TIP3    H164765   2.490   0.724   2.695 -1.0616  0.5913  0.0982
14450TIP3    H264766   2.469   0.575   2.707  3.3580 -0.1226  0.7272
14451TIP3   OH264767   2.156   1.945   4.099  0.2741  0.1618 -0.8711
14451TIP3    H164768   2.218   2.016   4.118  0.0530  0.3439 -0.8298
14451TIP3    H264769   2.079   1.966   4.152  0.6860 -0.7940  0.1674
14452TIP3   OH264770   2.608   0.158  12.584  0.0536 -0.0693 -0.3449
14452TIP3    H164771   2.569   0.126  12.665  0.8577  1.0695  0.5190
14452TIP3    H264772   2.681   0.213  12.612  1.1689 -0.6802 -1.8718
14453TIP3   OH264773   0.471   2.714   1.751 -0.0019 -0.3768 -0.1683
14453TIP3    H164774   0.545   2.754   1.705  0.5105 -0.7705  0.2960
14453TIP3    H264775   0.470   2.757   1.837 -1.1842  0.6237 -0.6538
14454TIP3   OH264776   0.922   2.262   1.373 -0.2428  0.4483  0.2348
14454TIP3    H164777   1.014   2.274   1.349  0.1227  0.9614  1.7284
14454TIP3    H264778   0.873   2.299   1.300  0.7490  0.7110 -0.3239
14455TIP3   OH264779   5.252   6.387  13.286  0.8500  0.6560 -0.8547
14455TIP3    H164780   5.282   6.325  13.353 -0.1186 -1.1814 -2.0580
14455TIP3    H264781   5.186   6.440  13.330 -0.6527 -1.3116 -0.5948
14456TIP3   OH264782   3.330   3.444   2.360 -0.5458  0.1787 -0.3375
14456TIP3    H164783   3.258   3.505   2.345 -0.9137  0.0496  0.7588
14456TIP3    H264784   3.299   3.388   2.432  1.5255  1.6282  1.8351
14457TIP3   OH264785   5.122   5.737   2.976  1.0638 -0.5233 -0.3482
14457TIP3    H164786   5.059   5.702   2.914  1.6121  0.5905 -1.5693
14457TIP3    H264787   5.154   5.660   3.023  0.1621 -1.3058 -0.9792
14458TIP3   OH264788   4.552   1.585   4.145  0.0994 -0.2462 -0.6426
14458TIP3    H164789   4.618   1.516   4.145  1.3854  0.9286 -1.5859
14458TIP3    H264790   4.591   1.656   4.196 -0.8264  0.1347 -0.4283
14459TIP3   OH264791   4.095   4.850   5.588 -0.3798 -0.1691  0.4591
14459TIP3    H164792   4.112   4.932   5.633 -0.6454  0.0793  0.1127
14459TIP3    H264793   4.099   4.783   5.656  0.0784  0.1032  0.7000
14460TIP3   OH264794   4.875   1.479   1.198  0.3422 -0.2368 -0.1271
14460TIP3    H164795   4.886   1.429   1.279 -0.1089  0.6341  0.4968
14460TIP3    H264796   4.822   1.423   1.142 -0.5294 -0.3086  0.7261
14461TIP3   OH264797   2.497   1.233  14.985  0.3601 -0.8990  0.0384
14461TIP3    H164798   2.588   1.207  14.996  0.9727  1.5644  1.6524
14461TIP3    H264799   2.454   1.204  15.065  0.7232  1.4268  1.1659
14462TIP3   OH264800   2.448   4.096  13.977  0.0904  0.2948  0.5657
14462TIP3    H164801   2.413   4.007  13.988  2.3084 -0.7424 -0.1092
14462TIP3    H264802   2.477   4.121  14.065  0.8825 -0.3363  0.5002
14463TIP3   OH264803   4.182   6.335   1.437  0.1274  0.2283 -0.3770
14463TIP3    H164804   4.155   6.409   1.491  0.4945  0.1959 -0.1420
14463TIP3    H264805   4.103   6.282   1.427 -0.6147  1.5359 -2.0403
14464TIP3   OH264806   3.796   5.315  12.554  0.5366  0.2110 -0.5393
14464TIP3    H164807   3.703   5.336  12.551  0.6148  0.4695 -1.8521
14464TIP3    H264808   3.800   5.220  12.561  0.1921  0.3200  3.0469
14465TIP3   OH264809   0.223   5.364  14.307  0.0347 -0.1860  0.2225
14465TIP3    H164810   0.241   5.376  14.400 -0.8285  0.0630  0.3656
14465TIP3    H264811   0.164   5.288  14.304 -0.0290 -0.1222 -0.1113
14466TIP3   OH264812   0.650   1.545   1.233  0.2527  0.5426 -0.5996
14466TIP3    H164813   0.666   1.591   1.316 -0.4739 -1.9150  1.0046
14466TIP3    H264814   0.734   1.506   1.211 -0.2249 -1.4367  0.7785
14467TIP3   OH264815   2.468   2.243  14.882 -0.2258  0.0344  0.3778
14467TIP3    H164816   2.519   2.224  14.803  0.9189 -0.6987  1.2482
14467TIP3    H264817   2.532   2.279  14.943 -1.0092  0.2162  1.1107
14468TIP3   OH264818   1.474   6.582   2.948  0.1371 -0.2181 -0.4597
14468TIP3    H164819   1.533   6.591   2.874 -0.2368  1.4482 -0.5964
14468TIP3    H264820   1.396   6.540   2.912  0.2249 -0.0551 -0.8387
14469TIP3   OH264821   2.752   1.941  12.232 -0.2983 -0.0429 -0.1976
14469TIP3    H164822   2.843   1.939  12.261  0.0053  1.8580 -0.8805
14469TIP3    H264823   2.747   1.874  12.164  1.1475  1.1281 -1.5328
14470TIP3   OH264824   2.406   5.053  17.108  0.4689  1.1605  0.1793
14470TIP3    H164825   2.501   5.044  17.112  0.6455  2.8023  0.4103
14470TIP3    H264826   2.373   4.965  17.122  1.9032  0.8632  2.1224
14471TIP3   OH264827   1.043   0.957  13.493 -0.2911  0.1112  0.2966
14471TIP3    H164828   0.957   0.977  13.457 -0.5735  1.9548  1.8201
14471TIP3    H264829   1.044   0.862  13.505 -2.0629  0.0572  0.1456
14472TIP3   OH264830   5.667   0.761  13.796  0.5566 -0.5721  0.5224
14472TIP3    H164831   5.631   0.848  13.813 -1.1472 -1.1894  0.2567
14472TIP3    H264832   5.714   0.770  13.713 -1.1535 -0.3092 -0.4426
14473TIP3   OH264833   1.077   4.608   4.644 -0.0581 -0.0163  0.2744
14473TIP3    H164834   1.120   4.693   4.641  0.3862 -0.2617 -1.0325
14473TIP3    H264835   1.056   4.595   4.736  2.1011  0.4012  0.8794
14474TIP3   OH264836   1.530   4.429  15.836  0.3153  0.1036  0.0556
14474TIP3    H164837   1.451   4.395  15.878  0.5441 -0.2380  0.2146
14474TIP3    H264838   1.504   4.446  15.746 -0.1457  0.7152  0.2942
14475TIP3   OH264839   3.545   3.534  17.323  0.1233 -0.4588 -0.2157
14475TIP3    H164840   3.484   3.607  17.333 -0.6005 -0.6322 -2.7253
14475TIP3    H264841   3.490   3.456  17.325  0.4628 -0.7214 -0.7062
14476TIP3   OH264842   6.597   1.722  12.465  0.1119 -0.6232  0.3194
14476TIP3    H164843   6.516   1.695  12.508 -0.2367  0.5529  0.4154
14476TIP3    H264844   6.589   1.816  12.454  1.5723 -0.4407  0.5526
14477TIP3   OH264845   2.835   6.204   1.898  0.2264  0.0593  0.4012
14477TIP3    H164846   2.910   6.249   1.936  0.1159 -0.0029  0.6989
14477TIP3    H264847   2.766   6.271   1.895  0.5187  0.3381 -0.6026
14478TIP3   OH264848   0.561   4.744  12.265 -0.2121 -0.6682 -0.6612
14478TIP3    H164849   0.574   4.665  12.317  1.2277 -0.3766 -0.5416
14478TIP3    H264850   0.500   4.797  12.318  0.6167 -0.7127  0.3649
14479TIP3   OH264851   2.662   4.985  15.365  0.2854  0.1820 -0.6704
14479TIP3    H164852   2.714   5.054  15.324 -0.7199  0.7270 -1.0809
14479TIP3    H264853   2.616   5.029  15.437 -0.6656  0.0443 -1.1765
14480TIP3   OH264854   3.743   3.920   2.874 -0.0330 -0.4804 -0.2232
14480TIP3    H164855   3.700   3.835   2.884  0.8264 -0.9884 -0.7170
14480TIP3    H264856   3.836   3.899   2.866  0.0008  0.3188 -2.6812
14481TIP3   OH264857   2.483   0.153   4.162  0.0512  0.1376 -0.8406
14481TIP3    H164858   2.506   0.156   4.070 -2.1986  1.7884 -1.4325
14481TIP3    H264859   2.387   0.154   4.163  0.0200  0.7323  1.5010
14482TIP3   OH264860   6.310   1.467   0.848  0.1484 -0.6068  0.3053
14482TIP3    H164861   6.381   1.532   0.851  0.6606 -1.1101 -0.3593
14482TIP3    H264862   6.262   1.488   0.768 -1.6082  0.8651  1.6659
14483TIP3   OH264863   6.416   3.788   2.015 -0.0748  0.2355  0.2922
14483TIP3    H164864   6.431   3.865   1.960  0.7456  0.7427  1.1943
14483TIP3    H264865   6.493   3.784   2.072 -1.4790  0.5098  2.3202
14484TIP3   OH264866   4.726   5.428   2.028  0.1341  0.2415  0.9513
14484TIP3    H164867   4.789   5.498   2.046  1.7614 -0.2353 -2.2563
14484TIP3    H264868   4.777   5.348   2.032 -0.2002 -0.1750 -1.6069
14485TIP3   OH264869   2.551   0.343  12.099  0.0718 -0.3362 -0.4021
14485TIP3    H164870   2.597   0.376  12.022 -1.5380  1.4163 -0.6848
14485TIP3    H264871   2.569   0.408  12.167 -0.8449 -0.3629 -0.1229
14486TIP3   OH264872   2.890   0.284   3.950  0.2252  0.3966 -0.0771
14486TIP3    H164873   2.949   0.208   3.953  1.0644  1.0329 -0.2344
14486TIP3    H264874   2.948   0.360   3.960 -0.7226  0.9889  1.0805
14487TIP3   OH264875   2.703   6.226   2.178  0.1208  0.1973 -0.3107
14487TIP3    H164876   2.672   6.166   2.246 -0.3484  1.0861  0.2725
14487TIP3    H264877   2.647   6.207   2.103  0.5251 -0.6668 -0.4073
14488TIP3   OH264878   3.932   6.104   3.256  0.2234 -0.1421 -0.3867
14488TIP3    H164879   3.868   6.094   3.186  0.0632  1.0104 -0.4259
14488TIP3    H264880   3.880   6.129   3.332  0.5031 -0.3792 -0.1175
14489TIP3   OH264881   1.652   0.808  13.546  0.1730  0.0436  0.0294
14489TIP3    H164882   1.680   0.884  13.495  0.4042 -0.1108 -0.0775
14489TIP3    H264883   1.673   0.733  13.490  0.5820 -0.1395  0.4197
14490TIP3   OH264884   2.367   4.025   0.318 -0.1709 -0.0669  0.7687
14490TIP3    H164885   2.371   4.120   0.302 -1.4120 -0.2363 -0.8090
14490TIP3    H264886   2.298   4.015   0.383 -1.2233  0.0444 -0.2761
14491TIP3   OH264887   0.638   3.585  11.752  0.0630  0.2416 -0.0939
14491TIP3    H164888   0.549   3.550  11.746  0.1820  0.0803 -1.1539
14491TIP3    H264889   0.687   3.517  11.799  0.1314 -0.7584 -1.5266
14492TIP3   OH264890   2.866   5.095   5.315 -0.4166 -0.5545 -0.6756
14492TIP3    H164891   2.864   5.177   5.265  1.1585  0.3949  0.6959
14492TIP3    H264892   2.817   5.115   5.395  0.7921 -0.5923  0.1056
14493TIP3   OH264893   1.859   0.221   2.667 -0.5498 -0.0083  0.0787
14493TIP3    H164894   1.785   0.170   2.635  0.2739 -1.2748  0.1430
14493TIP3    H264895   1.896   0.169   2.738 -0.0271  0.9539  0.5321
14494TIP3   OH264896   2.647   3.090   4.038  0.1047  0.1029 -0.0439
14494TIP3    H164897   2.679   3.018   4.092  1.4935  1.3511  0.8668
14494TIP3    H264898   2.589   3.048   3.975 -0.2564 -1.6219  1.3544
14495TIP3   OH264899   3.791   2.291  16.579 -0.3178 -0.2409 -0.0270
14495TIP3    H164900   3.748   2.241  16.510 -2.8168 -0.1429  1.3491
14495TIP3    H264901   3.739   2.371  16.588  1.0499  0.6032  0.7378
14496TIP3   OH264902   5.193   4.360  15.310  0.0721 -0.4542 -0.4263
14496TIP3    H164903   5.181   4.317  15.225 -0.6591  0.1280 -0.6307
14496TIP3    H264904   5.106   4.395  15.331 -0.2082 -2.1224  1.4293
14497TIP3   OH264905   1.750   1.640   1.927  0.0255  0.6139  0.0242
14497TIP3    H164906   1.808   1.564   1.940  1.7506  1.8435 -0.1426
14497TIP3    H264907   1.684   1.632   1.996 -0.5419 -1.6218 -0.6647
14498TIP3   OH264908   4.647   6.446  15.079  0.5253 -0.0853  0.9499
14498TIP3    H164909   4.627   6.433  15.172  0.7663 -1.8167  0.7862
14498TIP3    H264910   4.714   6.381  15.060 -1.2086 -1.4019 -0.9940
14499TIP3   OH264911   4.685   0.773  13.734  0.2808  0.5399 -0.1494
14499TIP3    H164912   4.616   0.824  13.776 -1.0782 -2.0033  0.9234
14499TIP3    H264913   4.665   0.780  13.640 -0.6162  0.9512  0.0558
14500TIP3   OH264914   0.045   1.833   0.830 -0.2231  0.1860  0.8309
14500TIP3    H164915   0.049   1.929   0.827  1.0496  0.1452  0.8911
14500TIP3    H264916   0.047   1.806   0.738  0.2778  0.1943  0.8373
14501TIP3   OH264917   5.400   3.216   1.017 -0.1794  0.4646 -0.7653
14501TIP3    H164918   5.359   3.221   1.104 -1.8292  0.2011 -1.4971
14501TIP3    H264919   5.464   3.287   1.018  3.5189 -2.4672  2.4221
14502TIP3   OH264920   3.991   4.323  12.218  0.4801 -0.3693  0.0273
14502TIP3    H164921   4.083   4.348  12.210  0.4243  0.6782  2.0300
14502TIP3    H264922   3.949   4.397  12.262 -1.4544 -0.6104 -1.2428
14503TIP3   OH264923   0.630   4.700  13.172  0.3635  0.1967 -0.1992
14503TIP3    H164924   0.566   4.766  13.198 -0.5915  0.1823 -2.2816
14503TIP3    H264925   0.611   4.624  13.227 -1.9095 -0.0429 -1.1856
14504TIP3   OH264926   0.238   5.925   0.583  0.3509  0.1046  0.5018
14504TIP3    H164927   0.283   5.842   0.596 -0.5769 -0.4517  0.2650
14504TIP3    H264928   0.255   5.974   0.664 -1.2256 -1.3521  1.8023
14505TIP3   OH264929   4.782   3.729  13.837 -0.3806  0.3125 -0.2747
14505TIP3    H164930   4.707   3.683  13.800 -1.5303  3.0514 -1.6659
14505TIP3    H264931   4.746   3.777  13.912  0.7105 -0.7034  0.9533
14506TIP3   OH264932   4.356   6.259   4.551 -0.4150 -0.3636  0.1462
14506TIP3    H164933   4.403   6.177   4.566 -0.0562 -0.0606  0.7406
14506TIP3    H264934   4.426   6.324   4.542 -0.6232 -0.3544 -1.9935
14507TIP3   OH264935   1.831   6.387   4.055 -0.1015  0.2717 -0.3121
14507TIP3    H164936   1.797   6.440   3.982  0.8335 -2.0911 -2.6268
14507TIP3    H264937   1.783   6.304   4.048  0.2994 -0.1655  1.5795
14508TIP3   OH264938   4.821   0.325  16.453  0.7991 -0.1392 -0.0737
14508TIP3    H164939   4.896   0.270  16.428  1.7176  0.8974  0.2946
14508TIP3    H264940   4.745   0.278  16.420  1.5665 -1.5065  0.0294
14509TIP3   OH264941   0.007   4.200  10.719  0.2480 -0.4489 -0.5858
14509TIP3    H164942   0.036   4.282  10.679  0.8026 -1.3173 -2.0567
14509TIP3    H264943   0.080   4.175  10.776  0.2405 -0.1202 -0.4271
14510TIP3   OH264944   5.882   4.520   5.789  0.0868 -0.4493  0.5806
14510TIP3    H164945   5.906   4.479   5.873 -0.3083 -0.5220  0.6630
14510TIP3    H264946   5.962   4.518   5.737  1.0393  1.8325  1.8256
14511TIP3   OH264947   2.243   3.534   3.679 -0.0351 -0.6664  0.1891
14511TIP3    H164948   2.183   3.558   3.749  1.1899 -1.0935  1.4354
14511TIP3    H264949   2.301   3.469   3.718 -0.2596 -2.0634 -1.6817
14512TIP3   OH264950   0.410   0.147   3.106  0.4942  0.8407 -0.6570
14512TIP3    H164951   0.356   0.207   3.158  0.5257  0.6602 -0.4113
14512TIP3    H264952   0.462   0.203   3.049  1.0544  1.0883  0.0817
14513TIP3   OH264953   1.209   6.493   5.680 -0.5887  0.1336  0.4642
14513TIP3    H164954   1.282   6.520   5.736 -1.1685 -1.0519  1.8809
14513TIP3    H264955   1.168   6.421   5.728 -1.5968 -0.4373 -1.1591
14514TIP3   OH264956   2.253   0.869   3.726  0.3041 -0.4515  0.3350
14514TIP3    H164957   2.163   0.899   3.710 -0.3833 -1.8939  1.2367
14514TIP3    H264958   2.289   0.855   3.639 -0.1195  0.7301 -0.0582
14515TIP3   OH264959   0.604   5.779   4.584 -0.2941  0.6445  0.3145
14515TIP3    H164960   0.509   5.785   4.593 -0.4797 -0.5749 -0.6033
14515TIP3    H264961   0.623   5.685   4.593  0.8422  0.8851  0.6087
14516TIP3   OH264962   1.540   4.331  17.133 -0.0915  0.4987 -0.1507
14516TIP3    H164963   1.470   4.317  17.197  0.7215  2.2931  1.1994
14516TIP3    H264964   1.607   4.381  17.180  0.0619  2.8945 -2.6260
14517TIP3   OH264965   5.222   3.896  16.519  0.0346  1.1324 -0.5911
14517TIP3    H164966   5.209   3.986  16.487 -0.0558  0.8434 -1.3752
14517TIP3    H264967   5.190   3.840  16.448  0.4984  0.4712 -0.2845
14518TIP3   OH264968   4.131   3.911  12.311  0.2695  0.0353 -0.4017
14518TIP3    H164969   4.086   3.993  12.334 -2.9119 -1.8124  0.5828
14518TIP3    H264970   4.145   3.917  12.217  1.1334  2.1359 -0.1856
14519TIP3   OH264971   4.328   5.189  14.513  0.0103 -0.0092 -0.1552
14519TIP3    H164972   4.257   5.247  14.488 -0.6245 -1.0961 -0.9843
14519TIP3    H264973   4.330   5.193  14.609 -0.9730  0.2668 -0.1331
14520TIP3   OH264974   1.919   6.086  13.942 -0.1299  0.3094  0.6712
14520TIP3    H164975   1.889   6.042  14.022  0.1200  1.2093  1.2729
14520TIP3    H264976   1.838   6.108  13.896 -0.3536  1.2479  1.4820
14521TIP3   OH264977   2.756   4.435   1.410  0.3076  0.2601  0.3671
14521TIP3    H164978   2.785   4.513   1.458 -2.1214 -0.1261  2.6588
14521TIP3    H264979   2.776   4.362   1.468  0.5043 -0.6368 -0.7846
14522TIP3   OH264980   1.997   2.228   1.585 -0.1348 -0.1581  0.1614
14522TIP3    H164981   2.070   2.290   1.583  0.7155 -1.0326  1.7974
14522TIP3    H264982   1.928   2.271   1.535  0.2447  2.3264  1.5877
14523TIP3   OH264983   4.352   3.529  17.170  0.3820  0.2130  0.7149
14523TIP3    H164984   4.427   3.475  17.196  0.9520  1.3314  1.4823
14523TIP3    H264985   4.346   3.518  17.075 -0.0324 -1.8141  0.9477
14524TIP3   OH264986   0.336   1.645  13.768  0.6241 -0.0058  0.3802
14524TIP3    H164987   0.357   1.634  13.676  1.7357  0.5487  0.5579
14524TIP3    H264988   0.382   1.573  13.812  0.8325  0.2578  0.5958
14525TIP3   OH264989   0.633   1.870   2.820  0.2355 -0.0863  0.4302
14525TIP3    H164990   0.660   1.922   2.896 -0.6051 -0.2094  0.8167
14525TIP3    H264991   0.635   1.933   2.747  2.7727 -0.3626  0.1645
14526TIP3   OH264992   0.696   4.050  17.373 -0.1635  0.3364 -0.6679
14526TIP3    H164993   0.782   4.074  17.407 -0.6251 -0.5130  1.2392
14526TIP3    H264994   0.678   4.116  17.305  1.3410  1.4201 -0.0830
14527TIP3   OH264995   4.366   4.997   0.565  0.3425 -0.3271  0.4888
14527TIP3    H164996   4.328   4.909   0.561  2.9611 -1.7165  2.6155
14527TIP3    H264997   4.381   5.021   0.474  0.2496 -2.4488 -0.1423
14528TIP3   OH264998   4.955   4.825  14.927  0.4570 -0.3728  0.0083
14528TIP3    H164999   4.943   4.775  15.008  0.8812 -2.5997 -1.2346
14528TIP3    H265000   4.870   4.867  14.912 -0.2380 -1.5297  0.5930
14529TIP3   OH265001   6.449   6.348  16.988 -0.5032  0.2551 -0.6455
14529TIP3    H165002   6.450   6.379  16.898 -1.9389 -0.0341 -0.7775
14529TIP3    H265003   6.377   6.285  16.992 -0.7638  0.5935  0.8022
14530TIP3   OH265004   4.466   0.568   3.057  0.1539  0.0586 -0.0662
14530TIP3    H165005   4.426   0.554   2.971 -1.4572 -0.0038  0.6453
14530TIP3    H265006   4.393   0.597   3.112  1.0149 -0.5168  1.4288
14531TIP3   OH265007   4.671   6.242  14.065 -0.2147  0.2992 -0.2098
14531TIP3    H165008   4.742   6.264  14.125 -0.6645  1.1580  0.0339
14531TIP3    H265009   4.658   6.148  14.076  0.3567  0.2761  0.3242
14532TIP3   OH265010   2.027   0.291  12.151  0.5983 -0.0752  0.0313
14532TIP3    H165011   1.937   0.315  12.170 -0.2924 -1.8924 -1.5244
14532TIP3    H265012   2.056   0.242  12.228  0.1252  0.1764  0.3725
14533TIP3   OH265013   2.512   1.597   2.105 -0.4721  0.2620 -0.1242
14533TIP3    H165014   2.578   1.659   2.138 -0.5670  0.1322  0.3127
14533TIP3    H265015   2.452   1.651   2.054  0.2248  0.3138 -0.9084
14534TIP3   OH265016   4.251   3.127  15.809  0.1247  0.5384 -0.0544
14534TIP3    H165017   4.342   3.156  15.801 -0.1942  1.3894 -0.7251
14534TIP3    H265018   4.216   3.179  15.881  0.0346  0.5475 -0.1054
14535TIP3   OH265019   3.315   4.517  12.561  0.1531 -0.6860 -0.2534
14535TIP3    H165020   3.298   4.517  12.467  0.1421 -1.6373 -0.2597
14535TIP3    H265021   3.268   4.441  12.594 -1.3064  0.6211  0.8136
14536TIP3   OH265022   5.286   3.887  17.074  0.0531 -0.8468  0.6535
14536TIP3    H165023   5.376   3.858  17.084  0.1802 -0.9836 -0.7461
14536TIP3    H265024   5.233   3.809  17.090  0.2818 -1.2659 -0.5863
14537TIP3   OH265025   0.494   3.492   0.749 -0.0382  0.3638  0.2683
14537TIP3    H165026   0.411   3.498   0.702  0.0126  0.0001  0.1280
14537TIP3    H265027   0.545   3.567   0.718 -0.7897  1.3446  1.3145
14538TIP3   OH265028   3.181   4.963   6.183 -0.3461  0.0457  0.1770
14538TIP3    H165029   3.188   4.867   6.191 -2.6794 -0.2475 -0.4010
14538TIP3    H265030   3.131   4.976   6.102  0.1947  1.7820  0.0910
14539TIP3   OH265031   6.560   1.841   5.636  0.1826  0.2542  0.3349
14539TIP3    H165032   6.652   1.816   5.624  0.2965 -0.4762  2.2818
14539TIP3    H265033   6.564   1.918   5.693 -0.4210 -1.0611  2.2452
14540TIP3   OH265034   4.746   2.382   1.114  0.1861 -0.3234  0.0103
14540TIP3    H165035   4.795   2.312   1.071  0.5430 -1.4549  2.1336
14540TIP3    H265036   4.657   2.349   1.120 -0.6014  1.0869 -2.4353
14541TIP3   OH265037   5.747   5.037   1.772  0.0963 -0.3921  0.0253
14541TIP3    H165038   5.779   5.035   1.682 -0.6775  1.4704 -0.3379
14541TIP3    H265039   5.693   5.116   1.776 -1.1703 -1.2940  1.6973
14542TIP3   OH265040   3.560   5.423  12.824 -0.4302 -0.3148 -0.0022
14542TIP3    H165041   3.587   5.397  12.912 -1.9694 -1.5276  0.1596
14542TIP3    H265042   3.465   5.415  12.825 -0.6357  1.4219 -1.2510
14543TIP3   OH265043   3.641   1.365  15.947  0.0249 -0.2710 -0.4651
14543TIP3    H165044   3.673   1.331  16.031 -0.9273  0.7058  0.3203
14543TIP3    H265045   3.566   1.309  15.926  0.1955 -0.4454 -0.6108
14544TIP3   OH265046   6.300   5.931   5.794 -0.1233  0.2972  0.1743
14544TIP3    H165047   6.259   6.003   5.842 -1.5681  0.4665 -1.2111
14544TIP3    H265048   6.368   5.974   5.741 -3.1647  1.3982 -3.2664
14545TIP3   OH265049   3.146   5.718   4.256  0.5601 -0.5326  0.5078
14545TIP3    H165050   3.231   5.693   4.221  0.7844  0.2305  0.4736
14545TIP3    H265051   3.167   5.775   4.331  0.0805 -0.8653  0.9014
14546TIP3   OH265052   1.264   2.830  11.691 -0.5444  0.2767 -0.4962
14546TIP3    H165053   1.242   2.758  11.632  0.1884 -0.6262  0.2733
14546TIP3    H265054   1.180   2.861  11.724 -0.8679 -0.6013 -0.4466
14547TIP3   OH265055   5.307   2.705  16.966  0.3948  0.3224  0.2812
14547TIP3    H165056   5.331   2.753  16.886 -0.1831 -0.9060 -0.6673
14547TIP3    H265057   5.389   2.665  16.995  0.4287  0.0105 -0.2351
14548TIP3   OH265058   6.043   2.549   3.851  0.2068 -0.1322  0.8546
14548TIP3    H165059   6.091   2.629   3.827  0.1439  0.1115  1.5075
14548TIP3    H265060   5.994   2.525   3.773 -1.3388  1.6042  1.2208
14549TIP3   OH265061   5.616   0.974  12.489  0.9374  0.1458 -0.8549
14549TIP3    H165062   5.559   0.919  12.435  0.7637  0.7497 -1.3031
14549TIP3    H265063   5.655   0.914  12.552  0.1340 -0.3467 -0.8189
14550TIP3   OH265064   6.044   6.268  16.419 -0.1540 -0.3278 -0.1934
14550TIP3    H165065   6.013   6.356  16.440 -0.9447 -0.4491 -0.8135
14550TIP3    H265066   5.966   6.221  16.390  0.1824 -1.3623  0.5314
14551TIP3   OH265067   0.065   1.636   2.956  0.4266  0.3000  0.0455
14551TIP3    H165068   0.038   1.726   2.969 -0.3217  0.1849 -0.6785
14551TIP3    H265069   0.125   1.639   2.882 -1.4559 -0.0857 -1.5753
14552TIP3   OH265070   2.395   4.051   3.460 -0.2271 -0.2055  0.3036
14552TIP3    H165071   2.474   3.997   3.464 -0.7183 -0.8868  1.9913
14552TIP3    H265072   2.331   3.997   3.414 -0.0547 -0.1314 -0.0241
14553TIP3   OH265073   6.694   4.033   2.486  0.1166  0.0607  0.1910
14553TIP3    H165074   6.664   4.097   2.551  0.0415 -1.0628  1.2994
14553TIP3    H265075   6.615   3.984   2.462  0.4195 -0.5542  0.4354
14554TIP3   OH265076   5.096   3.338  17.127 -0.1626 -0.2189 -0.6188
14554TIP3    H165077   5.008   3.334  17.091 -0.7601  1.2670  0.5311
14554TIP3    H265078   5.146   3.273  17.078 -1.9610 -1.3082 -1.1011
14555TIP3   OH265079   2.365   0.899  14.924  0.0472  1.2930  0.6707
14555TIP3    H165080   2.406   0.939  14.846  1.0512  0.4569  0.7481
14555TIP3    H265081   2.346   0.973  14.981 -0.7284  1.9249 -0.3727
14556TIP3   OH265082   5.570   3.142  11.117  0.0962 -0.2812 -0.3254
14556TIP3    H165083   5.644   3.100  11.073 -0.0075 -1.3833  0.5105
14556TIP3    H265084   5.600   3.232  11.132 -0.0909  0.3478 -3.1143
14557TIP3   OH265085   1.017   2.821   4.024  0.0712 -0.0138 -0.0973
14557TIP3    H165086   0.956   2.768   4.076  0.8029 -0.7271  0.0494
14557TIP3    H265087   1.034   2.768   3.945  1.0429 -0.1587  0.1910
14558TIP3   OH265088   5.668   3.567   5.338 -0.3902  0.4208  0.1514
14558TIP3    H165089   5.737   3.632   5.347 -0.6176  0.5204  1.4112
14558TIP3    H265090   5.629   3.584   5.252  0.7379  0.7638 -0.2986
14559TIP3   OH265091   5.863   0.542  16.354  0.3017  0.0132 -0.3528
14559TIP3    H165092   5.769   0.524  16.351  0.4877 -1.1121  0.1348
14559TIP3    H265093   5.876   0.614  16.292 -0.6697 -0.7298 -1.4488
14560TIP3   OH265094   5.312   1.177   5.147 -0.2539  0.0453  0.2343
14560TIP3    H165095   5.254   1.239   5.192  0.4612  0.9945 -0.1119
14560TIP3    H265096   5.367   1.141   5.216 -2.1919 -1.9797  0.8036
14561TIP3   OH265097   5.389   6.096   3.284 -0.4419  0.0480  0.6471
14561TIP3    H165098   5.340   6.058   3.211  1.2697 -1.1978  0.0539
14561TIP3    H265099   5.346   6.179   3.303 -1.2385  0.1653 -1.4591
14562TIP3   OH265100   4.640   0.914   1.654  0.0098 -0.4418  0.2940
14562TIP3    H165101   4.585   0.876   1.722 -0.3027 -0.3623  0.0904
14562TIP3    H265102   4.703   0.846   1.632  1.7539  0.3710  2.4229
14563TIP3   OH265103   3.227   0.472   1.435  0.2472 -0.1566  0.4214
14563TIP3    H165104   3.136   0.487   1.408  0.4689 -1.8359 -1.4770
14563TIP3    H265105   3.260   0.560   1.457 -1.2129  0.7741 -0.8983
14564TIP3   OH265106   4.038   0.161   0.707 -0.0716  0.1183 -0.5233
14564TIP3    H165107   4.022   0.069   0.729 -1.0844  0.2720 -0.5608
14564TIP3    H265108   3.971   0.209   0.756  0.8259  0.8945 -0.0332
14565TIP3   OH265109   3.261   0.661  15.977 -0.1377 -0.5170  0.1425
14565TIP3    H165110   3.342   0.668  16.028 -1.2688  1.4998  1.8748
14565TIP3    H265111   3.239   0.568  15.979  1.8640 -1.0286  0.0369
14566TIP3   OH265112   1.617   0.061   5.846 -0.6047  0.2915  0.0315
14566TIP3    H165113   1.708   0.082   5.865 -0.7114 -1.0543  2.5233
14566TIP3    H265114   1.568   0.139   5.874 -0.3430  0.3924  0.2093
14567TIP3   OH265115   1.382   4.182  10.969 -0.0112  0.1511 -0.0474
14567TIP3    H165116   1.312   4.153  10.912  0.4845 -1.2295 -0.0027
14567TIP3    H265117   1.347   4.174  11.057 -0.5927  1.7707 -0.1001
14568TIP3   OH265118   4.111   4.536  13.886  0.6124  0.0435 -0.2326
14568TIP3    H165119   4.109   4.624  13.925  0.9665  0.0267 -0.1697
14568TIP3    H265120   4.092   4.477  13.959 -1.6611  0.1619 -0.6572
14569TIP3   OH265121   3.780   5.935   4.278  0.1055 -0.6998  0.2143
14569TIP3    H165122   3.825   5.869   4.330  0.0556 -0.2284  0.8735
14569TIP3    H265123   3.687   5.914   4.287  0.0467 -0.1557  0.9784
14570TIP3   OH265124   6.156   0.392  13.113 -0.1635  0.2756 -0.0113
14570TIP3    H165125   6.148   0.298  13.097 -1.0226  0.4404 -0.6136
14570TIP3    H265126   6.068   0.421  13.133 -0.0005  1.0413 -0.3580
14571TIP3   OH265127   6.376   5.663  16.127  0.2619 -0.1729 -0.2135
14571TIP3    H165128   6.315   5.690  16.196  0.5524 -3.9791  1.8266
14571TIP3    H265129   6.323   5.612  16.067  0.9494 -1.5129  0.2805
14572TIP3   OH265130   0.941   4.375  14.668 -0.0202 -0.3848  0.3061
14572TIP3    H165131   0.966   4.306  14.607  0.2076 -0.0543  0.0175
14572TIP3    H265132   0.906   4.444  14.611  0.6989  0.1507  0.5011
14573TIP3   OH265133   1.442   1.225  13.894  0.7290  0.2448 -0.1464
14573TIP3    H165134   1.460   1.197  13.804  0.2101  2.2736 -0.9357
14573TIP3    H265135   1.420   1.144  13.940  1.3911 -0.8937 -1.7404
14574TIP3   OH265136   4.234   1.220   2.052 -0.0695  0.2959  0.2126
14574TIP3    H165137   4.315   1.189   2.093 -0.0662  0.2108  0.1408
14574TIP3    H265138   4.263   1.266   1.973  0.0145  1.4987  0.9190
14575TIP3   OH265139   6.076   0.794  10.868 -0.0829  0.3059  0.0473
14575TIP3    H165140   6.013   0.805  10.798 -1.0138  2.2755  1.1087
14575TIP3    H265141   6.149   0.852  10.845  0.6473 -0.7368 -0.3646
14576TIP3   OH265142   4.451   2.066   0.807  0.3895 -0.1646 -0.3585
14576TIP3    H165143   4.523   2.125   0.785 -0.0232  0.7065  0.5636
14576TIP3    H265144   4.492   1.997   0.859  0.5167  0.4829  0.4108
14577TIP3   OH265145   2.389   4.895  10.709 -0.7730 -0.0319 -0.4388
14577TIP3    H165146   2.294   4.903  10.699 -0.9656 -1.5430  0.0248
14577TIP3    H265147   2.423   4.915  10.621 -1.4059  1.6594 -0.3467
14578TIP3   OH265148   5.219   5.256   4.409  0.8493  0.4514 -0.6052
14578TIP3    H165149   5.300   5.279   4.364  0.3945 -0.5982 -2.0330
14578TIP3    H265150   5.174   5.339   4.421  1.9808  1.0117 -0.0532
14579TIP3   OH265151   0.367   3.773  11.443  0.5349  0.0810 -0.9087
14579TIP3    H165152   0.384   3.679  11.442  0.1600 -0.0398  0.7600
14579TIP3    H265153   0.443   3.812  11.401  2.0714 -0.8081  0.9012
14580TIP3   OH265154   3.590   3.181  12.859  0.6052  0.6492 -0.6641
14580TIP3    H165155   3.636   3.174  12.942  0.3580  1.2150 -0.4755
14580TIP3    H265156   3.627   3.259  12.818 -1.4040  2.1856  0.2863
14581TIP3   OH265157   5.075   0.214   5.082  0.0677  0.6049  0.3620
14581TIP3    H165158   5.146   0.223   5.145  0.2463  0.2227  0.2191
14581TIP3    H265159   5.079   0.122   5.054  2.5255  1.6064 -3.1851
14582TIP3   OH265160   6.593   0.777  10.219  0.1196 -0.9541 -0.1314
14582TIP3    H165161   6.551   0.789  10.134 -0.1144 -1.6719 -0.1202
14582TIP3    H265162   6.527   0.806  10.282 -0.7877 -2.9933 -0.0585
14583TIP3   OH265163   5.942   2.172  11.854  0.4421  0.0889  0.1312
14583TIP3    H165164   6.013   2.120  11.816 -0.4271  0.3981 -2.0029
14583TIP3    H265165   5.871   2.109  11.869  0.3283  0.1989  0.0531
14584TIP3   OH265166   5.873   0.385  11.481  0.1226 -0.5815 -0.2745
14584TIP3    H165167   5.882   0.450  11.411  2.4688  0.5349  0.9531
14584TIP3    H265168   5.835   0.433  11.554 -0.5419 -1.2761 -0.1477
14585TIP3   OH265169   4.507   0.133   5.604 -0.2482 -0.3382  0.0631
14585TIP3    H165170   4.537   0.223   5.616  0.5930 -0.3235 -1.8628
14585TIP3    H265171   4.582   0.079   5.629 -0.9787 -0.5947  1.9054
14586TIP3   OH265172   2.634   2.964  16.367 -0.5254 -0.2144 -0.5114
14586TIP3    H165173   2.692   2.914  16.425 -1.3413 -1.7506 -0.9686
14586TIP3    H265174   2.668   2.947  16.279  0.0194  1.1840 -0.5926
14587TIP3   OH265175   4.190   1.598   2.932 -0.1855 -0.5960  0.3556
14587TIP3    H165176   4.189   1.688   2.899  0.2367 -0.0039  1.8956
14587TIP3    H265177   4.102   1.583   2.966 -0.5774 -1.1618 -0.8171
14588TIP3   OH265178   5.771   3.122  10.906  0.3181  0.3456 -0.2808
14588TIP3    H165179   5.866   3.112  10.909  0.1979 -0.9685  0.0609
14588TIP3    H265180   5.757   3.210  10.871  1.6541  0.8380  0.3387
14589TIP3   OH265181   3.685   5.006   4.130 -0.0864  0.1578 -0.2459
14589TIP3    H165182   3.616   4.972   4.187  0.2511 -1.3106 -0.6562
14589TIP3    H265183   3.766   4.969   4.165  0.4750  1.6307  0.0532
14590TIP3   OH265184   1.439   2.082   3.006 -0.2774 -0.0295  0.0397
14590TIP3    H165185   1.482   2.166   2.989 -0.5728  0.4729  1.6169
14590TIP3    H265186   1.399   2.093   3.092  0.8161 -2.2396  0.9139
14591TIP3   OH265187   2.296   4.583  17.015  0.1265  0.2628  0.4070
14591TIP3    H165188   2.210   4.569  17.053 -0.5756  1.0527 -0.8185
14591TIP3    H265189   2.293   4.536  16.931  0.8474  0.4087  0.2910
14592TIP3   OH265190   3.821   1.196   4.871 -0.2772  0.2562 -0.5101
14592TIP3    H165191   3.884   1.164   4.936 -0.9457  1.8122  0.9750
14592TIP3    H265192   3.816   1.125   4.807  2.5461 -0.1656 -0.4196
14593TIP3   OH265193   6.708   1.172   1.327 -0.5596 -0.3317  0.7306
14593TIP3    H165194   6.745   1.258   1.305 -0.6235  0.1905  2.5101
14593TIP3    H265195   6.651   1.150   1.253  0.7593  0.3504 -0.5467
14594TIP3   OH265196   2.193   4.783  14.214 -0.4724  0.1111 -0.0970
14594TIP3    H165197   2.190   4.877  14.231  0.7605  0.2345 -0.4929
14594TIP3    H265198   2.132   4.770  14.141 -0.7932  0.5726  0.0858
14595TIP3   OH265199   1.824   2.327   5.136  0.1896 -0.3035  0.2688
14595TIP3    H165200   1.746   2.332   5.192  1.1897 -1.3255  1.8224
14595TIP3    H265201   1.847   2.234   5.135  1.0259 -0.1002 -0.7136
14596TIP3   OH265202   5.330   2.613   6.177 -0.3715  0.2362 -0.1048
14596TIP3    H165203   5.392   2.641   6.109 -0.7088  0.5702 -0.2735
14596TIP3    H265204   5.334   2.681   6.243  0.9837 -0.7471  0.8947
14597TIP3   OH265205   5.393   2.549   2.267  0.0270 -0.2485 -0.1039
14597TIP3    H165206   5.310   2.595   2.280 -0.2645 -0.7797 -0.0472
14597TIP3    H265207   5.446   2.573   2.344  0.2355  0.7352 -0.5417
14598TIP3   OH265208   3.202   4.428   6.137 -0.3611 -0.4484  0.0375
14598TIP3    H165209   3.292   4.459   6.141  0.2712 -1.9753 -1.4779
14598TIP3    H265210   3.195   4.365   6.209  0.0417 -0.9535 -0.3624
14599TIP3   OH265211   2.835   4.709   2.539  0.2607 -0.1632  0.6559
14599TIP3    H165212   2.771   4.719   2.468  1.4614 -2.0464 -0.7743
14599TIP3    H265213   2.913   4.754   2.507 -0.1269  1.8396  2.2591
14600TIP3   OH265214   0.455   0.993   1.304  0.8127  0.2839  0.4853
14600TIP3    H165215   0.405   0.993   1.222  0.0045 -1.6911  0.9285
14600TIP3    H265216   0.440   1.080   1.340  0.3722  0.8566 -0.9874
14601TIP3   OH265217   4.043   0.797   3.828 -0.1497 -0.1468  0.6397
14601TIP3    H165218   3.949   0.783   3.833 -0.7458  3.0699  0.6270
14601TIP3    H265219   4.071   0.751   3.749 -2.1779  0.8479 -0.7195
14602TIP3   OH265220   3.117   3.417  13.893  0.5746  0.1081  0.8055
14602TIP3    H165221   3.084   3.469  13.966 -0.1608 -1.0281  1.3099
14602TIP3    H265222   3.204   3.389  13.920  0.0191 -0.9194  1.5922
14603TIP3   OH265223   5.488   1.644   3.039 -0.4766  0.8514  0.8131
14603TIP3    H165224   5.465   1.587   3.112  0.0209 -0.6143 -0.1345
14603TIP3    H265225   5.579   1.671   3.057 -0.0937 -0.1104  0.3939
14604TIP3   OH265226   5.720   5.815   3.254  0.2984 -0.6122 -0.1092
14604TIP3    H165227   5.783   5.847   3.319 -0.5180 -1.5936  1.2187
14604TIP3    H265228   5.761   5.738   3.216  1.0168  0.2746 -1.2140
14605TIP3   OH265229   5.107   2.263   5.205  0.4572  0.5865 -0.2119
14605TIP3    H165230   5.176   2.201   5.184 -0.0815  0.4100 -1.5910
14605TIP3    H265231   5.108   2.270   5.300  1.1518 -0.8142 -0.1010
14606TIP3   OH265232   2.160   6.250  13.989  0.9342  0.3560 -0.1781
14606TIP3    H165233   2.085   6.207  13.948  2.0977  0.5473 -2.6948
14606TIP3    H265234   2.216   6.178  14.019  0.6432  0.1966 -0.0135
14607TIP3   OH265235   5.556   3.860  16.412 -0.2953 -0.1865 -0.2937
14607TIP3    H165236   5.652   3.855  16.414 -0.1315  1.3478 -1.7151
14607TIP3    H265237   5.536   3.944  16.453 -1.0911 -0.7545  0.5077
14608TIP3   OH265238   1.528   0.764   2.580 -0.3719  0.4436 -0.6959
14608TIP3    H165239   1.452   0.705   2.574  0.2748 -0.4431 -0.3607
14608TIP3    H265240   1.592   0.726   2.519  0.1894  0.5760 -0.1979
14609TIP3   OH265241   6.429   3.112  16.201 -0.4929 -0.3044 -0.1630
14609TIP3    H165242   6.364   3.168  16.243 -0.1135  1.1821 -1.4856
14609TIP3    H265243   6.508   3.123  16.253  0.1721  2.0627 -1.5381
14610TIP3   OH265244   0.909   5.110   6.367  0.2702  0.1523 -0.3743
14610TIP3    H165245   0.875   5.029   6.328 -2.9397  0.5722  1.2074
14610TIP3    H265246   0.835   5.171   6.362  1.8730  2.2676  0.4899
14611TIP3   OH265247   4.898   3.371   3.437 -0.6825  0.2012 -0.1504
14611TIP3    H165248   4.973   3.327   3.398 -1.4884  0.0347 -1.5888
14611TIP3    H265249   4.925   3.463   3.444  0.2941 -0.1484  1.0620
14612TIP3   OH265250   1.865   2.589  16.059 -0.6162  0.1264  0.6427
14612TIP3    H165251   1.792   2.561  16.113 -0.7743  0.2689  0.5034
14612TIP3    H265252   1.926   2.631  16.120 -0.3273 -0.6060  0.8720
14613TIP3   OH265253   4.830   2.840  16.789  0.0088 -0.4684  0.1459
14613TIP3    H165254   4.798   2.891  16.864 -0.0316 -0.4604  0.1229
14613TIP3    H265255   4.775   2.762  16.788 -0.1360 -0.3663 -0.0058
14614TIP3   OH265256   2.649   6.403  17.379 -0.3000 -0.2762  0.1387
14614TIP3    H165257   2.709   6.332  17.403  0.0877 -0.2653 -0.7759
14614TIP3    H265258   2.576   6.361  17.335 -0.4294 -0.1722  0.2493
14615TIP3   OH265259   0.655   5.105  16.993 -0.2614  0.2696 -0.1731
14615TIP3    H165260   0.706   5.026  16.976  0.5514  0.2668  1.9668
14615TIP3    H265261   0.710   5.157  17.051 -2.3757  0.5362  1.7636
14616TIP3   OH265262   6.705   3.350   5.933  0.8119 -0.1824 -0.1792
14616TIP3    H165263   6.646   3.403   5.986  0.6424  0.7423 -1.2342
14616TIP3    H265264   6.717   3.269   5.982 -1.9606 -0.7541 -0.3004
14617TIP3   OH265265   2.714   2.225  12.225 -0.6375  0.2087 -0.0725
14617TIP3    H165266   2.732   2.133  12.208  0.2798  0.3600  0.0517
14617TIP3    H265267   2.776   2.250  12.293  0.3950  1.3890 -1.3936
14618TIP3   OH265268   0.032   0.738  17.033  0.4637  0.0656 -0.3549
14618TIP3    H165269   0.122   0.769  17.042  0.3817  0.2780 -0.2534
14618TIP3    H265270   0.012   0.699  17.118 -0.1195  1.5697  0.2360
14619TIP3   OH265271   4.466   2.186  13.105  0.0044  0.1587 -0.3419
14619TIP3    H165272   4.472   2.091  13.114  0.2961  0.3470  1.9377
14619TIP3    H265273   4.372   2.204  13.102 -0.1538 -0.0383  1.9828
14620TIP3   OH265274   2.795   1.102   4.765  0.1356  0.0716 -0.3360
14620TIP3    H165275   2.830   1.113   4.677  0.9089 -3.4534 -0.6027
14620TIP3    H265276   2.849   1.033   4.804 -1.3058  0.2981  2.2897
14621TIP3   OH265277   4.836   1.297  13.313 -0.3896  0.4042 -0.5781
14621TIP3    H165278   4.786   1.248  13.378 -1.6308  1.6693 -0.5632
14621TIP3    H265279   4.790   1.380  13.303  1.1603  1.2239 -1.2843
14622TIP3   OH265280   1.711   4.832  10.308 -0.0440 -0.3297  0.5321
14622TIP3    H165281   1.637   4.785  10.269  0.3753 -1.3958  0.9583
14622TIP3    H265282   1.787   4.778  10.286  0.7926  1.3967 -0.9675
14623TIP3   OH265283   4.470   4.294   1.741 -0.3611 -0.8369  0.1146
14623TIP3    H165284   4.411   4.219   1.734 -1.7719  0.1942  0.4821
14623TIP3    H265285   4.416   4.369   1.717  0.5855  0.2433  1.2309
14624TIP3   OH265286   5.805   2.755  13.496  0.2096 -0.1315  0.7221
14624TIP3    H165287   5.722   2.718  13.466  1.0234 -0.7869 -0.8343
14624TIP3    H265288   5.862   2.751  13.420  0.9342  2.6765  0.9943
14625TIP3   OH265289   3.154   2.860   0.767 -0.1712  0.5721 -0.1794
14625TIP3    H165290   3.066   2.823   0.780  0.3975 -0.2706  1.5330
14625TIP3    H265291   3.211   2.784   0.758  0.6935  1.0503  1.0331
14626TIP3   OH265292   6.350   6.544  14.582  0.2364 -0.5853 -0.3601
14626TIP3    H165293   6.398   6.610  14.633 -0.7568 -0.2906  0.2215
14626TIP3    H265294   6.314   6.592  14.508 -1.6334 -0.1248  0.7768
14627TIP3   OH265295   5.142   2.594  13.922 -0.3059 -0.1688 -0.2557
14627TIP3    H165296   5.141   2.689  13.931  0.8067 -0.1506 -0.1508
14627TIP3    H265297   5.071   2.574  13.862 -0.5070  0.7326 -0.3227
14628TIP3   OH265298   2.394   1.345   4.737  0.4162 -0.6840 -0.4064
14628TIP3    H165299   2.455   1.372   4.668  0.6834 -1.5467 -0.5108
14628TIP3    H265300   2.443   1.360   4.819  1.0057 -1.9118 -0.5107
14629TIP3   OH265301   5.655   0.505  12.686  0.3282 -0.2191  0.1315
14629TIP3    H165302   5.695   0.436  12.633  0.4432  0.7451 -1.0889
14629TIP3    H265303   5.566   0.475  12.702  0.4404 -0.7433 -0.2090
14630TIP3   OH265304   6.635   5.262  11.788 -0.0571 -0.7435 -0.0849
14630TIP3    H165305   6.559   5.217  11.752  0.7022 -2.9767  0.9111
14630TIP3    H265306   6.661   5.209  11.863  2.6717 -0.2607 -0.5723
14631TIP3   OH265307   0.632   2.814  13.891  0.0939  0.5496 -0.4138
14631TIP3    H165308   0.687   2.847  13.963  0.1855 -2.7153  1.2149
14631TIP3    H265309   0.615   2.723  13.914 -2.6664  0.2636 -2.9528
14632TIP3   OH265310   3.302   0.572  12.889 -0.2633  0.2853 -0.3039
14632TIP3    H165311   3.383   0.619  12.908 -0.5238  0.7161 -0.2534
14632TIP3    H265312   3.253   0.630  12.831  0.2073 -0.7085 -1.7329
14633TIP3   OH265313   0.524   3.358  17.359  0.0130  0.4849 -0.1776
14633TIP3    H165314   0.601   3.302  17.350 -0.8158 -0.6463 -0.4984
14633TIP3    H265315   0.543   3.416  17.433  0.1894 -1.4247  1.3258
14634TIP3   OH265316   4.120   4.443  16.388  0.3105  0.1664 -0.0959
14634TIP3    H165317   4.084   4.441  16.300  3.2230  0.7016 -1.3887
14634TIP3    H265318   4.141   4.352  16.408  0.3474  0.1441 -0.2409
14635TIP3   OH265319   6.295   4.612  16.199 -0.2186 -0.0806 -0.3079
14635TIP3    H165320   6.219   4.605  16.141 -0.1787  2.2477 -0.7355
14635TIP3    H265321   6.367   4.636  16.141 -0.1680  2.2407  0.6357
14636TIP3   OH265322   6.645   0.642   5.126  0.7598  0.5571 -0.8496
14636TIP3    H165323   6.554   0.667   5.139  0.4237 -0.4752 -1.0780
14636TIP3    H265324   6.689   0.723   5.100 -0.5406  0.6914 -2.9538
14637TIP3   OH265325   4.913   0.138  16.164  0.1143 -0.0249 -0.3015
14637TIP3    H165326   4.936   0.111  16.075  2.5082  2.9956 -0.7351
14637TIP3    H265327   4.819   0.158  16.159 -0.2581 -1.7929 -1.5624
14638TIP3   OH265328   1.766   3.333  11.249 -0.0762  0.0978  0.5725
14638TIP3    H165329   1.787   3.307  11.159  2.6589  0.0330  1.1640
14638TIP3    H265330   1.741   3.425  11.241 -0.7665 -0.1412 -0.3340
14639TIP3   OH265331   4.690   0.885   5.190  0.0992 -0.0901 -0.2872
14639TIP3    H165332   4.653   0.821   5.129  1.2626  0.4323 -1.6216
14639TIP3    H265333   4.745   0.833   5.249 -0.0613 -0.4804 -0.4780
14640TIP3   OH265334   5.369   4.338  16.628 -0.1236  0.2683  0.7300
14640TIP3    H165335   5.295   4.353  16.686 -0.9927  0.9953 -0.5059
14640TIP3    H265336   5.412   4.423  16.622 -0.4074  0.3629 -0.1442
14641TIP3   OH265337   4.124   1.435  15.380  0.6416 -0.0573 -0.5062
14641TIP3    H165338   4.066   1.472  15.314  0.8385 -1.7776 -1.7096
14641TIP3    H265339   4.208   1.479  15.364  0.5327 -0.0207 -1.0072
14642TIP3   OH265340   0.789   0.149  10.996 -0.2708  0.0718  0.4145
14642TIP3    H165341   0.882   0.153  10.974 -0.2182  1.4070  0.8093
14642TIP3    H265342   0.786   0.092  11.073  0.4219  1.1556  1.2840
14643TIP3   OH265343   1.805   4.379  15.672 -0.3066 -0.0141 -0.1092
14643TIP3    H165344   1.798   4.464  15.630 -0.9533 -0.2328 -0.4609
14643TIP3    H265345   1.881   4.387  15.730 -1.0429  1.1633  0.7298
14644TIP3   OH265346   2.588   3.869   3.357  0.0379  0.2783 -0.1391
14644TIP3    H165347   2.623   3.785   3.327 -0.0842 -0.3500  1.3911
14644TIP3    H265348   2.561   3.913   3.276  1.9774 -0.2654 -1.1722
14645TIP3   OH265349   2.509   4.803   5.212 -0.1573 -0.3237  0.4860
14645TIP3    H165350   2.549   4.717   5.201  0.2773 -0.6146  3.4928
14645TIP3    H265351   2.576   4.864   5.182  0.1370 -0.9567 -0.1979
14646TIP3   OH265352   2.195   0.017  13.409 -0.1371 -0.2689  0.0740
14646TIP3    H165353   2.112  -0.029  13.394 -0.7787  0.5268  1.0084
14646TIP3    H265354   2.225   0.042  13.321 -1.3434  0.1831 -0.2296
14647TIP3   OH265355   6.245   3.348   1.455 -0.5810  0.1483  0.1841
14647TIP3    H165356   6.251   3.284   1.384 -1.1456  0.5186 -0.2084
14647TIP3    H265357   6.335   3.377   1.469 -0.5587  0.6623 -0.9344
14648TIP3   OH265358   4.271   5.412   5.250 -0.3888 -0.1195  0.3507
14648TIP3    H165359   4.360   5.433   5.280 -0.8891  1.8415  0.5916
14648TIP3    H265360   4.258   5.469   5.173 -0.7836 -1.7617 -0.8516
14649TIP3   OH265361   1.370   6.262   6.238 -0.1394  0.3392  0.5852
14649TIP3    H165362   1.330   6.206   6.304 -0.5146 -0.1286 -0.0235
14649TIP3    H265363   1.464   6.244   6.246 -0.3221 -1.2056 -0.2969
14650TIP3   OH265364   0.322   2.509  15.794 -0.6767 -0.1777  0.3098
14650TIP3    H165365   0.371   2.519  15.712  0.5473 -0.8048  0.9459
14650TIP3    H265366   0.248   2.452  15.770  0.3303 -1.3553 -0.1266
14651TIP3   OH265367   4.822   0.462  12.351 -0.1649  0.3965  0.0716
14651TIP3    H165368   4.864   0.517  12.284  1.7464 -0.3937  0.5685
14651TIP3    H265369   4.800   0.381  12.305 -0.6671  0.5928 -0.0471
14652TIP3   OH265370   5.341   5.833  15.468  0.1284 -0.0459  0.1282
14652TIP3    H165371   5.335   5.928  15.475  0.3413  0.2067 -2.4114
14652TIP3    H265372   5.339   5.815  15.374  1.7281 -2.4554  0.4726
14653TIP3   OH265373   2.699   4.951   3.022 -0.7044 -0.0330 -0.2573
14653TIP3    H165374   2.775   4.895   3.038 -0.4413  0.3972  0.0139
14653TIP3    H265375   2.710   4.980   2.931 -0.4981  0.0940 -0.1933
14654TIP3   OH265376   5.875   6.459   3.851 -0.3015  0.0278  0.5356
14654TIP3    H165377   5.841   6.532   3.903 -0.4866  1.1662 -1.0732
14654TIP3    H265378   5.836   6.472   3.764  0.3534 -1.5004 -0.0177
14655TIP3   OH265379   1.626   0.990  14.764  0.3155  0.0539 -0.1663
14655TIP3    H165380   1.617   1.077  14.803  1.9587  0.5281 -0.7647
14655TIP3    H265381   1.585   0.998  14.678 -0.0828  0.0520  0.0204
14656TIP3   OH265382   0.084   1.819   2.584 -0.0120 -0.1109 -0.0953
14656TIP3    H165383   0.010   1.878   2.599  0.2199  0.8535 -2.2555
14656TIP3    H265384   0.050   1.752   2.525  0.3475 -0.8045  0.4661
14657TIP3   OH265385   1.190   3.156  12.818  0.0407  1.1042 -0.3548
14657TIP3    H165386   1.220   3.246  12.811  0.9568  0.7465 -1.2418
14657TIP3    H265387   1.269   3.104  12.831 -0.4360  0.3854 -0.2426
14658TIP3   OH265388   5.934   1.801  15.741  0.1890  0.5046 -0.1828
14658TIP3    H165389   5.987   1.809  15.820  0.9560  0.3861 -0.6758
14658TIP3    H265390   5.888   1.884  15.735  3.2153  2.2233 -1.7861
14659TIP3   OH265391   6.147   4.002  17.248  0.1736  0.0506  0.3093
14659TIP3    H165392   6.105   4.059  17.183  0.5704  1.9208  1.6234
14659TIP3    H265393   6.088   4.005  17.324  0.6540 -0.5744  0.7165
14660TIP3   OH265394   3.306   4.530   5.213  0.1914  0.4185 -0.6052
14660TIP3    H165395   3.400   4.536   5.232 -0.1053  1.3257  0.6935
14660TIP3    H265396   3.281   4.443   5.243  0.4844  0.4058 -0.3905
14661TIP3   OH265397   3.547   4.316  14.910  0.4062  0.1047 -0.2892
14661TIP3    H165398   3.628   4.275  14.880  0.1557 -1.5009  1.0477
14661TIP3    H265399   3.539   4.289  15.002 -0.0511  2.8392  0.5540
14662TIP3   OH265400   6.040   0.102   1.744 -0.3181  0.1221  0.2160
14662TIP3    H165401   6.020   0.011   1.722  0.5371 -0.1200  0.4118
14662TIP3    H265402   6.060   0.143   1.660  2.7171 -0.7475  0.4115
14663TIP3   OH265403   4.475   0.183  16.746 -0.3878  0.6234 -0.5202
14663TIP3    H165404   4.395   0.220  16.783 -0.1454  2.0508 -1.3556
14663TIP3    H265405   4.447   0.101  16.705 -1.6189  1.5132 -1.5517
14664TIP3   OH265406   0.066   4.542   3.990 -0.0626 -0.1074 -0.1360
14664TIP3    H165407  -0.009   4.585   4.031 -1.2473 -1.0920 -1.1739
14664TIP3    H265408   0.139   4.557   4.050 -0.8707  1.6422  0.4667
14665TIP3   OH265409   3.670   4.911  13.362 -0.3655  0.1503  0.1718
14665TIP3    H165410   3.647   4.983  13.304 -0.0711 -0.0689 -0.2251
14665TIP3    H265411   3.609   4.841  13.340 -0.1190 -0.0055 -0.0224
14666TIP3   OH265412   1.548   2.163  14.998 -0.4309 -0.3252  0.2599
14666TIP3    H165413   1.597   2.234  14.956  1.3516 -1.2038  0.7687
14666TIP3    H265414   1.494   2.126  14.927  1.3243 -0.7458 -0.9312
14667TIP3   OH265415   5.793   4.228  12.246  0.1160  0.0570 -0.7146
14667TIP3    H165416   5.749   4.215  12.329  0.8050  3.6872  0.4148
14667TIP3    H265417   5.884   4.203  12.263 -0.0682 -0.7837 -0.9227
14668TIP3   OH265418   4.037   2.401  14.616 -0.5527 -0.3931  0.6651
14668TIP3    H165419   4.091   2.471  14.653 -2.3113  1.1615  0.4549
14668TIP3    H265420   4.084   2.320  14.638  1.1720  0.7808  1.5734
14669TIP3   OH265421   5.935   6.395   4.380 -0.6294 -0.4516  0.5408
14669TIP3    H165422   5.986   6.328   4.335 -0.3515  0.7283 -0.9703
14669TIP3    H265423   5.844   6.368   4.369 -0.5119 -0.6756  0.0874
14670TIP3   OH265424   4.847   5.610   1.193  0.7556  0.3014  0.1157
14670TIP3    H165425   4.770   5.655   1.159 -0.1410 -0.4787  1.0365
14670TIP3    H265426   4.878   5.556   1.120 -0.4805 -0.5166  0.1618
14671TIP3   OH265427   2.395   2.249   4.745  0.1780 -0.0481  0.2024
14671TIP3    H165428   2.361   2.242   4.834 -0.0682  0.2343  0.1302
14671TIP3    H265429   2.477   2.297   4.754  0.4509 -0.5366  0.3496
14672TIP3   OH265430   0.933   3.327   0.338  0.8262  0.1374  0.1083
14672TIP3    H165431   0.984   3.386   0.283  1.5419  0.5254  1.1416
14672TIP3    H265432   0.875   3.385   0.388 -1.6558 -0.3720 -1.9649
14673TIP3   OH265433   3.913   6.127   5.737  0.0972 -0.1908 -0.0035
14673TIP3    H165434   3.888   6.218   5.754 -1.2063 -0.1286 -1.9205
14673TIP3    H265435   3.849   6.075   5.785 -1.7375 -0.0196 -2.0671
14674TIP3   OH265436   2.882   6.690  14.148 -0.1829 -0.4857 -0.4723
14674TIP3    H165437   2.810   6.660  14.204 -0.4694 -2.0813 -1.6385
14674TIP3    H265438   2.842   6.703  14.062  0.4527  1.0103 -0.5855
14675TIP3   OH265439   1.213   3.399   3.124  0.8537  0.2993 -0.5757
14675TIP3    H165440   1.300   3.425   3.156  1.2004  0.2441 -1.4598
14675TIP3    H265441   1.173   3.356   3.200  1.8901 -0.3529 -0.3699
14676TIP3   OH265442   0.165   2.167   3.746  0.1545  0.0026  0.2003
14676TIP3    H165443   0.113   2.099   3.703  0.8323 -0.7091  0.4818
14676TIP3    H265444   0.164   2.240   3.685  0.6093 -0.7813 -0.7748
14677TIP3   OH265445   3.956   4.849  16.408  0.3256  0.6604 -0.1785
14677TIP3    H165446   3.909   4.779  16.363 -1.7857  1.9314 -0.0905
14677TIP3    H265447   3.927   4.842  16.499 -2.6499  3.6207 -0.7426
14678TIP3   OH265448   2.800   1.529   0.815  0.4163 -0.3295 -0.1318
14678TIP3    H165449   2.804   1.445   0.860  1.6566 -0.4127 -0.3584
14678TIP3    H265450   2.728   1.520   0.753 -0.4141 -0.6897  0.8686
14679TIP3   OH265451   4.936   5.905  16.708  0.0985  0.3547 -0.0871
14679TIP3    H165452   4.947   5.947  16.793  2.8897 -1.4796  0.6180
14679TIP3    H265453   5.021   5.915  16.665 -0.3605 -1.1791 -1.4772
14680TIP3   OH265454   3.701   1.090  12.098 -1.0092  0.3561  0.1135
14680TIP3    H165455   3.796   1.080  12.102 -0.9892  0.7975  0.9309
14680TIP3    H265456   3.683   1.117  12.008 -0.3759  0.1274 -0.0855
14681TIP3   OH265457   6.300   4.835   4.976  0.3782 -0.1180  0.0819
14681TIP3    H165458   6.359   4.833   5.052  0.1839  2.4654  0.4108
14681TIP3    H265459   6.218   4.869   5.011 -0.1866 -0.2995 -1.0361
14682TIP3   OH265460   5.995   1.406  16.066  0.2474 -0.2243  0.1131
14682TIP3    H165461   5.903   1.380  16.065 -0.2951  1.5280 -2.4640
14682TIP3    H265462   5.994   1.498  16.091  1.4558 -0.5136  1.3329
14683TIP3   OH265463   3.822   1.432   1.606  0.2776 -0.0804 -0.5805
14683TIP3    H165464   3.889   1.404   1.544  0.3351 -0.9501 -0.1298
14683TIP3    H265465   3.739   1.417   1.560  0.3803  2.2122 -1.6540
14684TIP3   OH265466   1.725   5.375   2.673 -0.3453 -0.4395  0.6904
14684TIP3    H165467   1.812   5.358   2.709 -0.7802 -3.6214  0.5051
14684TIP3    H265468   1.713   5.469   2.682  2.5977 -0.0892  1.8690
14685TIP3   OH265469   0.447   3.534  17.176 -0.2163  0.5236  0.1337
14685TIP3    H165470   0.366   3.486  17.157  1.0915 -0.9347 -2.1227
14685TIP3    H265471   0.494   3.478  17.237  0.4167 -0.1410 -0.9399
14686TIP3   OH265472   1.660   3.910   1.472  0.2517 -0.4226 -0.0324
14686TIP3    H165473   1.730   3.908   1.538  0.3195  1.9216  0.0400
14686TIP3    H265474   1.607   3.985   1.495 -0.7532 -0.5802 -1.6622
14687TIP3   OH265475   3.339   6.692  17.310 -0.0207  0.3174  0.7242
14687TIP3    H165476   3.323   6.711  17.217 -2.0341  0.0384  0.9695
14687TIP3    H265477   3.410   6.752  17.335 -1.3339  2.4252 -0.3136
14688TIP3   OH265478   0.385   0.372   3.513  0.4663  0.1090 -0.2543
14688TIP3    H165479   0.460   0.383   3.455 -0.6469 -0.7722 -1.9769
14688TIP3    H265480   0.383   0.279   3.533  0.7341  0.3790  1.1038
14689TIP3   OH265481   5.531   4.211  10.603  0.2521 -0.3174 -0.0999
14689TIP3    H165482   5.514   4.244  10.691 -2.4663  1.1739 -1.0357
14689TIP3    H265483   5.609   4.258  10.574 -0.7957  1.8349  0.3489
14690TIP3   OH265484   3.685   0.766  16.984  0.4510 -0.2650  0.2585
14690TIP3    H165485   3.638   0.683  16.994  0.5983 -0.4233 -0.2950
14690TIP3    H265486   3.754   0.746  16.920 -1.5071  1.0710 -2.4620
14691TIP3   OH265487   2.269   4.553  14.316  0.3396  0.1010  0.1643
14691TIP3    H165488   2.232   4.639  14.297 -1.5098 -0.4033  1.2534
14691TIP3    H265489   2.325   4.568  14.392  0.9433  0.5312 -0.3502
14692TIP3   OH265490   5.307   2.247  14.026  0.1393 -0.1306 -0.2138
14692TIP3    H165491   5.213   2.243  14.014  0.1809 -1.0840 -0.3330
14692TIP3    H265492   5.321   2.217  14.116  0.3608 -0.5510 -0.3828
14693TIP3   OH265493   0.513   0.942  15.612  0.2142  0.7857  0.5841
14693TIP3    H165494   0.578   1.004  15.644  1.4465 -0.3312  0.3120
14693TIP3    H265495   0.451   0.996  15.563 -0.1239  2.1340  2.3758
14694TIP3   OH265496   2.109   2.980   4.698 -0.5299 -0.0872  0.1357
14694TIP3    H165497   2.115   3.028   4.780 -1.7243  0.4647 -0.0663
14694TIP3    H265498   2.037   3.022   4.651 -0.0909 -0.6015 -1.0554
14695TIP3   OH265499   2.400   1.858  14.821 -0.7183  0.8694 -0.4572
14695TIP3    H165500   2.357   1.931  14.777 -0.7559  1.2556  0.1983
14695TIP3    H265501   2.379   1.781  14.768  1.7045  1.6938 -2.8536
14696TIP3   OH265502   1.920   6.566   5.147 -0.0602 -0.3096  0.7964
14696TIP3    H165503   1.876   6.542   5.229  1.6759  0.5939  2.0466
14696TIP3    H265504   1.902   6.659   5.137 -2.4304 -0.8913 -1.2970
14697TIP3   OH265505   1.872   2.156   1.319 -0.0094 -0.1693 -0.4919
14697TIP3    H165506   1.957   2.123   1.347  1.0005  1.3374 -1.5799
14697TIP3    H265507   1.828   2.081   1.279  0.2520 -1.2786  1.1917
14698TIP3   OH265508   6.281   3.502   0.187  0.0196  0.4705 -0.0825
14698TIP3    H165509   6.377   3.500   0.178  0.0490 -0.2329  0.3770
14698TIP3    H265510   6.252   3.549   0.109  0.6771 -0.1887 -0.7463
14699TIP3   OH265511   1.945   3.108  15.603  0.1320  0.1080  0.4779
14699TIP3    H165512   1.939   3.133  15.511 -1.3840  0.7264  0.7113
14699TIP3    H265513   1.954   3.013  15.602 -1.8827 -0.1310 -0.3172
14700TIP3   OH265514   2.220   3.251  17.138  0.2488 -0.1608  0.1557
14700TIP3    H165515   2.266   3.240  17.055  3.1782  0.7650  1.5111
14700TIP3    H265516   2.133   3.284  17.113  1.8888  2.6890 -2.5185
14701TIP3   OH265517   3.384   1.467  15.584 -0.0604 -0.3533 -0.2311
14701TIP3    H165518   3.318   1.458  15.653  2.1974  0.6401  2.2232
14701TIP3    H265519   3.395   1.378  15.549 -0.2705 -1.1758  1.6985
14702TIP3   OH265520   5.609   3.025   6.006 -0.0335 -0.0341 -0.6960
14702TIP3    H165521   5.626   2.987   6.092  0.9971 -0.6216 -1.1397
14702TIP3    H265522   5.634   3.117   6.015  1.1599 -0.3415 -0.6572
14703TIP3   OH265523   0.878   1.891   1.983  0.0307 -0.0202  0.4806
14703TIP3    H165524   0.958   1.932   2.015 -0.0595  0.0793  0.5828
14703TIP3    H265525   0.808   1.946   2.019 -0.0834 -0.1262  0.4195
14704TIP3   OH265526   0.912   5.190   4.506 -0.0870  0.7255  0.1769
14704TIP3    H165527   0.912   5.134   4.584  0.4689  1.9760  1.1105
14704TIP3    H265528   0.969   5.263   4.529 -0.2306  1.3291 -1.2742
14705TIP3   OH265529   0.373   1.390  11.311 -0.1249  0.0643  0.1913
14705TIP3    H165530   0.365   1.420  11.401  0.6195  1.2528 -0.1119
14705TIP3    H265531   0.372   1.294  11.317  1.1500  0.0989  1.5969
14706TIP3   OH265532   1.685   4.166  15.851  0.0486 -0.7231 -0.0076
14706TIP3    H165533   1.598   4.143  15.883 -0.8582  0.3628 -1.5666
14706TIP3    H265534   1.676   4.257  15.821  2.1780  0.0066  1.3806
14707TIP3   OH265535   3.676   4.687   0.496 -0.2168  0.3055  0.7145
14707TIP3    H165536   3.632   4.649   0.572 -1.4211 -0.0275 -0.1222
14707TIP3    H265537   3.607   4.733   0.449  0.6727  1.1761  0.2314
14708TIP3   OH265538   1.909   4.161   5.204 -0.1722  0.0036  0.2966
14708TIP3    H165539   1.971   4.196   5.140 -0.1982  1.8825  1.2209
14708TIP3    H265540   1.964   4.117   5.269 -0.0449 -0.7264 -0.2904
14709TIP3   OH265541   0.989   2.016   5.443  0.5525 -0.4189 -0.3886
14709TIP3    H165542   1.083   2.022   5.428  0.7003  0.4050  0.7133
14709TIP3    H265543   0.951   2.080   5.382  0.6088 -1.3276 -1.4143
14710TIP3   OH265544   5.788   3.212  11.747  0.1507  0.4382 -0.0981
14710TIP3    H165545   5.875   3.174  11.732  0.1966 -0.0844  1.3140
14710TIP3    H265546   5.733   3.174  11.679  1.1122  1.1003 -1.2720
14711TIP3   OH265547   1.785   2.945  12.444 -0.3476 -0.1784 -0.3094
14711TIP3    H165548   1.764   2.857  12.412 -1.2010 -0.3799  0.7348
14711TIP3    H265549   1.818   2.931  12.532  1.0307  0.4427 -0.7036
14712TIP3   OH265550   2.564   4.235  13.315  0.5678 -0.1676  0.7220
14712TIP3    H165551   2.535   4.233  13.406  0.0841 -1.2654  0.5679
14712TIP3    H265552   2.495   4.284  13.269  1.0760  0.8470  1.0166
14713TIP3   OH265553   4.748   2.450   2.565 -0.4861  0.3998 -0.5052
14713TIP3    H165554   4.791   2.536   2.568  1.8249 -0.7195  1.1657
14713TIP3    H265555   4.762   2.420   2.475 -0.2159  1.2378 -0.7530
14714TIP3   OH265556   3.557   4.332  13.574  0.3060 -0.2535 -0.2003
14714TIP3    H165557   3.569   4.424  13.599 -0.7949  0.6180 -2.5508
14714TIP3    H265558   3.468   4.310  13.603  1.0599 -1.1090  1.6414
14715TIP3   OH265559   2.503   1.887  11.574 -0.4124 -0.6556  0.7497
14715TIP3    H165560   2.509   1.795  11.547  1.7347 -2.1099  5.3235
14715TIP3    H265561   2.420   1.892  11.622 -0.9262  0.0827 -0.1859
14716TIP3   OH265562   4.465   1.071  17.041  0.4159 -0.1713  0.1393
14716TIP3    H165563   4.414   1.142  17.081 -2.5441 -2.3558  0.5575
14716TIP3    H265564   4.416   1.049  16.962  0.0719 -3.0163  1.0616
14717TIP3   OH265565   2.928   2.118  12.903 -0.2228  0.3159  0.4284
14717TIP3    H165566   2.960   2.030  12.923 -2.1635 -0.0984  2.0523
14717TIP3    H265567   2.834   2.107  12.889 -0.1005  1.7608 -2.1930
14718TIP3   OH265568   4.262   0.763  17.052 -0.5826  0.0953  0.0455
14718TIP3    H165569   4.226   0.678  17.028  2.9830 -1.8440  0.8169
14718TIP3    H265570   4.274   0.759  17.147 -1.5205  2.0325  0.3057
14719TIP3   OH265571   1.641   6.251   4.284 -0.2441  0.2968 -0.1205
14719TIP3    H165572   1.631   6.217   4.195  1.1586 -1.4880  0.3582
14719TIP3    H265573   1.562   6.224   4.330 -0.5813  0.4743 -0.5930
14720TIP3   OH265574   5.975   1.399   5.370  0.5077 -0.2833 -0.3092
14720TIP3    H165575   5.935   1.366   5.289  0.6364 -1.2200 -0.0072
14720TIP3    H265576   5.994   1.491   5.352 -1.4952  0.1176 -0.5604
14721TIP3   OH265577   4.176   3.523   2.789  0.5028  0.0281  0.1072
14721TIP3    H165578   4.269   3.542   2.779  0.7048 -0.5234  0.8063
14721TIP3    H265579   4.161   3.527   2.883  0.2984 -1.9480  0.2101
14722TIP3   OH265580   5.674   5.199  15.168 -0.6326 -0.4591 -0.0681
14722TIP3    H165581   5.708   5.229  15.252  0.0023 -1.1880 -0.0508
14722TIP3    H265582   5.620   5.123  15.190 -0.8415 -0.3713 -0.2776
14723TIP3   OH265583   6.139   2.021   0.605  0.3336  0.2102 -0.1899
14723TIP3    H165584   6.049   2.043   0.628  0.7671  0.7857  1.0828
14723TIP3    H265585   6.137   2.005   0.510 -0.7111  2.2853 -0.5766
14724TIP3   OH265586   6.695   4.865  13.620  0.8423  0.2328  0.1677
14724TIP3    H165587   6.732   4.853  13.707  1.1858 -2.3369 -0.2376
14724TIP3    H265588   6.603   4.837  13.628  1.2665 -1.5008 -0.5522
14725TIP3   OH265589   0.855   4.473  12.836  0.2132  0.6760 -0.8883
14725TIP3    H165590   0.808   4.408  12.890  0.4640  1.0115 -0.2586
14725TIP3    H265591   0.940   4.483  12.880  0.1163  1.5501 -0.8867
14726TIP3   OH265592   5.706   3.687   3.831  0.1433  0.0179  0.0658
14726TIP3    H165593   5.620   3.648   3.813  0.4924 -0.4416 -0.6558
14726TIP3    H265594   5.767   3.613   3.825  0.7041  0.5137 -0.3739
14727TIP3   OH265595   3.615   5.374   0.177 -0.2284  0.0230 -0.3222
14727TIP3    H165596   3.534   5.376   0.228  0.0380  0.8262  0.0743
14727TIP3    H265597   3.601   5.303   0.113 -0.3769 -1.3392  1.1604
14728TIP3   OH265598   2.999   0.185   2.133  0.1722  0.4150 -0.2291
14728TIP3    H165599   3.079   0.139   2.160 -0.8530 -0.9797  0.5234
14728TIP3    H265600   3.009   0.273   2.170  0.1004 -0.5760  2.3611
14729TIP3   OH265601   1.611   1.540   5.085  0.4494 -0.3487  0.5652
14729TIP3    H165602   1.632   1.564   5.175 -0.8365  0.0249  0.7773
14729TIP3    H265603   1.586   1.447   5.090  0.4832 -0.3577  0.5699
14730TIP3   OH265604   1.819   3.733   5.589 -0.3787  0.3424 -0.4900
14730TIP3    H165605   1.737   3.782   5.581 -1.6366 -1.7741 -1.3636
14730TIP3    H265606   1.815   3.695   5.677 -0.7893 -0.4859 -0.8573
14731TIP3   OH265607   0.170   2.652   1.200 -0.5648 -0.0514 -0.0716
14731TIP3    H165608   0.080   2.628   1.221 -0.8661  1.4928  0.4843
14731TIP3    H265609   0.215   2.654   1.285 -0.0337 -0.6326 -0.3259
14732TIP3   OH265610   3.954   6.333  14.587 -0.2446 -0.3098 -0.3478
14732TIP3    H165611   4.049   6.330  14.599 -0.1548 -1.3880 -1.1545
14732TIP3    H265612   3.920   6.267  14.646 -0.6181  0.8342  0.7617
14733TIP3   OH265613   2.697   6.554  14.851 -0.6512  0.0001  0.3309
14733TIP3    H165614   2.622   6.497  14.837 -0.8683  0.0108  1.3642
14733TIP3    H265615   2.670   6.612  14.923 -0.9186  2.2682 -1.4756
14734TIP3   OH265616   2.451   1.080  16.141 -0.4166  1.0388 -0.1568
14734TIP3    H165617   2.444   1.110  16.050  2.1286  1.3352 -0.3123
14734TIP3    H265618   2.522   1.016  16.139 -1.9261 -0.7754  1.2275
14735TIP3   OH265619   3.730   2.024   3.033 -1.1099 -0.1167  0.4008
14735TIP3    H165620   3.681   1.967   3.092 -0.2011  0.0184  1.3182
14735TIP3    H265621   3.755   1.968   2.960 -0.6498 -0.7905  1.0573
14736TIP3   OH265622   3.113   2.622   6.723 -0.4018 -0.2812 -0.0776
14736TIP3    H165623   3.169   2.566   6.777  1.4704 -0.0233 -1.6555
14736TIP3    H265624   3.036   2.568   6.705  1.4731 -2.6255 -1.8166
14737TIP3   OH265625   5.655   1.267   0.575 -0.1784 -0.1990  0.2092
14737TIP3    H165626   5.624   1.209   0.506 -1.1772 -1.0133  1.3097
14737TIP3    H265627   5.751   1.258   0.573 -0.2779 -1.2901 -0.1435
14738TIP3   OH265628   6.057   4.964   3.454  0.4108  0.2402  0.3070
14738TIP3    H165629   6.143   4.922   3.461  1.2809  1.6962 -1.1566
14738TIP3    H265630   6.069   5.051   3.491 -0.1090  0.8763 -0.9728
14739TIP3   OH265631   0.235   0.902  12.162  0.2146  0.0964  0.5321
14739TIP3    H165632   0.292   0.962  12.114  1.5464 -0.2444  1.6330
14739TIP3    H265633   0.198   0.955  12.233  0.5356 -0.1047  0.8527
14740TIP3   OH265634   0.410   4.628  10.523 -0.4373  0.0860  0.0334
14740TIP3    H165635   0.496   4.601  10.490 -1.7670 -1.4899 -2.4816
14740TIP3    H265636   0.374   4.548  10.562 -1.5809  0.0600 -0.9859
14741TIP3   OH265637   1.912   3.169  13.504 -0.6013  0.3619  0.3123
14741TIP3    H165638   1.959   3.086  13.510  0.2309  0.6861 -1.0603
14741TIP3    H265639   1.825   3.150  13.538 -1.4104 -1.8880 -2.5628
14742TIP3   OH265640   0.950   2.569  17.429  0.1155  0.4733 -1.1819
14742TIP3    H165641   0.888   2.605  17.367  0.3043  0.1299 -1.5757
14742TIP3    H265642   0.976   2.485  17.391 -3.1984 -2.0233  1.4803
14743TIP3   OH265643   1.317   3.748   3.837  0.3317  0.2260 -0.6659
14743TIP3    H165644   1.239   3.741   3.782  0.9975 -1.5505 -1.4441
14743TIP3    H265645   1.350   3.659   3.844  1.6521  0.7720  0.6235
14744TIP3   OH265646   1.221   1.209  16.523 -0.1599  0.0374 -0.3651
14744TIP3    H165647   1.151   1.144  16.530  0.2189 -0.4392 -0.8812
14744TIP3    H265648   1.288   1.178  16.585  0.7070 -0.9718 -1.7537
14745TIP3   OH265649   2.426   2.800   0.847  0.0268 -0.3441 -0.2282
14745TIP3    H165650   2.395   2.710   0.832 -1.5945  0.2797 -0.8612
14745TIP3    H265651   2.406   2.846   0.766  0.7624  0.6263  0.1218
14746TIP3   OH265652   2.592   6.503   3.763 -0.2466 -0.8418 -0.4707
14746TIP3    H165653   2.668   6.557   3.747 -1.3029  1.3537  1.3715
14746TIP3    H265654   2.596   6.482   3.856 -1.0869 -1.9968 -0.6663
14747TIP3   OH265655   1.666   1.591   2.480 -0.9556 -0.1507  0.3483
14747TIP3    H165656   1.676   1.628   2.568  2.0592 -3.2733  1.5751
14747TIP3    H265657   1.574   1.563   2.477 -1.3068  0.6153  2.2368
14748TIP3   OH265658   0.611   1.752  14.380  0.6086 -0.7003  0.2926
14748TIP3    H165659   0.525   1.792  14.364  0.4909 -1.3643 -0.8897
14748TIP3    H265660   0.628   1.768  14.473  0.5370  1.9858 -0.0651
14749TIP3   OH265661   3.729   4.141   0.468  0.4217  0.1017 -0.3367
14749TIP3    H165662   3.676   4.068   0.501  0.5624 -0.7800 -1.9581
14749TIP3    H265663   3.808   4.139   0.522 -0.3691  0.2522  0.8705
14750TIP3   OH265664   3.514   5.131   2.416 -0.3351 -0.4872 -0.3477
14750TIP3    H165665   3.452   5.072   2.458  1.3510 -1.0565  1.4916
14750TIP3    H265666   3.588   5.075   2.391  2.4861  0.9361  3.7389
14751TIP3   OH265667   1.108   6.092  17.314  0.7702 -0.6450 -0.4646
14751TIP3    H165668   1.021   6.055  17.330  0.9493 -1.5102 -1.4135
14751TIP3    H265669   1.141   6.044  17.239  0.9062  1.6168 -1.9572
14752TIP3   OH265670   0.132   4.610   4.566 -0.2994  0.3875  0.1760
14752TIP3    H165671   0.156   4.519   4.583 -0.3079  0.2967 -0.2849
14752TIP3    H265672   0.206   4.661   4.599 -0.4280  0.2340  0.7100
14753TIP3   OH265673   5.225   3.033  12.982  0.1738 -0.2765 -0.1914
14753TIP3    H165674   5.290   3.039  12.912  0.6884 -0.7525  0.2304
14753TIP3    H265675   5.153   3.089  12.954  0.5091 -0.2194 -0.9514
14754TIP3   OH265676   5.103   6.327   3.531 -0.0428 -0.4376 -0.5564
14754TIP3    H165677   5.116   6.245   3.578  3.3542  0.1681 -0.1872
14754TIP3    H265678   5.074   6.388   3.598 -1.5147 -1.0460 -0.6128
14755TIP3   OH265679   4.993   3.650   6.447  0.1812  0.1246 -0.5029
14755TIP3    H165680   5.034   3.622   6.365  4.0904  0.3444  1.1908
14755TIP3    H265681   5.017   3.742   6.457  1.0320 -0.2532  1.4968
14756TIP3   OH265682   4.756   6.648   4.489  0.3932 -0.1594 -0.2565
14756TIP3    H165683   4.761   6.570   4.433  1.0393  1.1252 -2.0773
14756TIP3    H265684   4.697   6.707   4.444  0.5415  0.7398  0.6880
14757TIP3   OH265685   3.338   1.502  13.361  0.3022 -0.0549  0.2695
14757TIP3    H165686   3.358   1.512  13.268  1.3617  0.0737  0.4999
14757TIP3    H265687   3.264   1.442  13.363  0.7784 -0.6901 -0.6212
14758TIP3   OH265688   5.570   0.598  16.299 -0.2667  0.1295  0.3525
14758TIP3    H165689   5.560   0.629  16.209  1.9698  0.9064  0.3107
14758TIP3    H265690   5.561   0.677  16.353  1.2321  0.1952  0.5579
14759TIP3   OH265691   1.583   0.924   0.230 -0.4367 -0.0713  0.0205
14759TIP3    H165692   1.537   1.004   0.204 -0.3858 -0.1254 -0.2388
14759TIP3    H265693   1.632   0.898   0.151 -0.1503 -0.1453  0.2195
14760TIP3   OH265694   1.270   5.026   1.172 -0.1138  0.0437  0.1167
14760TIP3    H165695   1.312   5.100   1.128  0.8681 -0.4392  0.2011
14760TIP3    H265696   1.179   5.053   1.185  0.3600  1.4385  0.6354
14761TIP3   OH265697   6.000   3.704  10.653  0.5658 -0.0887  0.0139
14761TIP3    H165698   5.986   3.780  10.596  2.2027 -0.0186 -0.3601
14761TIP3    H265699   5.981   3.628  10.598 -0.7851  0.0285  0.2984
14762TIP3   OH265700   6.127   5.642   5.589 -0.4982  0.0052 -0.3152
14762TIP3    H165701   6.045   5.612   5.551 -1.1898  1.2416  0.1237
14762TIP3    H265702   6.145   5.725   5.545 -0.7228  0.9043  1.1981
14763TIP3   OH265703   5.506   2.199   1.755 -0.0656  0.5378  0.2559
14763TIP3    H165704   5.493   2.156   1.671  1.1562 -0.4322  0.5397
14763TIP3    H265705   5.494   2.129   1.820  2.8385  0.3219  0.6847
14764TIP3   OH265706   0.029   4.351  11.984 -0.4455 -0.4756  0.4628
14764TIP3    H165707   0.107   4.359  11.929 -1.5392  0.0023 -1.0812
14764TIP3    H265708   0.062   4.360  12.073  1.3085 -0.6497 -0.1273
14765TIP3   OH265709   6.658   2.487  16.021  0.4322  0.1880  0.0319
14765TIP3    H165710   6.696   2.511  15.936  0.9682 -0.2619  0.1368
14765TIP3    H265711   6.694   2.552  16.082  1.1060 -0.2729  0.1419
14766TIP3   OH265712   6.335   5.178  14.827  0.2131  0.0414  0.1517
14766TIP3    H165713   6.292   5.105  14.782  0.2130  0.5441 -0.6877
14766TIP3    H265714   6.270   5.247  14.828  0.3728  0.1886  0.5355
14767TIP3   OH265715   1.291   5.475  14.477 -0.5024 -0.3831 -0.2046
14767TIP3    H165716   1.360   5.501  14.539 -0.1486 -2.6162  0.4111
14767TIP3    H265717   1.209   5.494  14.523 -0.2553 -0.4499  0.2684
14768TIP3   OH265718   0.705   6.613  14.409  0.0150 -0.6994  0.7259
14768TIP3    H165719   0.734   6.529  14.374 -1.3824 -0.8360 -0.1999
14768TIP3    H265720   0.670   6.592  14.496  0.7734 -0.8603  0.9971
14769TIP3   OH265721   2.879   5.581  12.297  0.0723  0.2245 -0.2290
14769TIP3    H165722   2.885   5.669  12.259  0.7531  0.6167  0.7411
14769TIP3    H265723   2.809   5.588  12.362  0.4832  0.2054  0.2219
14770TIP3   OH265724   5.537   1.389  13.959  0.3071  0.4955 -0.4000
14770TIP3    H165725   5.492   1.383  14.043  0.2131 -1.3793 -0.5503
14770TIP3    H265726   5.583   1.474  13.963  1.2866 -0.0506  2.0283
14771TIP3   OH265727   3.530   2.223   0.813  0.9637 -0.0227 -0.2895
14771TIP3    H165728   3.451   2.169   0.812  0.6267  0.4529  0.1252
14771TIP3    H265729   3.554   2.231   0.720  2.2775 -2.6587 -0.2483
14772TIP3   OH265730   1.927   3.443  16.288  0.0442  0.3927 -0.4009
14772TIP3    H165731   1.831   3.433  16.283  0.0653 -0.5808  0.6245
14772TIP3    H265732   1.961   3.369  16.238  0.2396 -0.3485  0.7951
14773TIP3   OH265733   0.364   6.024  12.768  0.0189 -0.2591  0.7741
14773TIP3    H165734   0.424   6.091  12.801  1.1365 -0.4093 -0.8360
14773TIP3    H265735   0.285   6.036  12.819  0.7875  1.1710  1.7014
14774TIP3   OH265736   2.205   5.896   1.698 -0.0067 -0.7283 -0.7916
14774TIP3    H165737   2.174   5.893   1.788 -0.1429 -0.5007 -0.8317
14774TIP3    H265738   2.297   5.923   1.706 -0.2959  0.2643 -0.7852
14775TIP3   OH265739   2.303   0.020   0.096 -0.3425  0.3965  1.0650
14775TIP3    H165740   2.323  -0.057   0.043 -0.6235  0.6983  0.5061
14775TIP3    H265741   2.336  -0.001   0.183  0.5253  0.0677  0.6614
14776TIP3   OH265742   5.021   6.236  11.633 -0.0573  0.7014 -0.1887
14776TIP3    H165743   5.039   6.326  11.606 -1.2401  1.5612  1.6619
14776TIP3    H265744   4.931   6.219  11.604 -0.6083  0.9220  1.2694
14777TIP3   OH265745   3.404   2.923   2.098  0.3022  0.3140 -0.1575
14777TIP3    H165746   3.358   2.969   2.168  1.0004 -0.9044  1.1375
14777TIP3    H265747   3.450   2.851   2.141  3.1644  1.2410 -1.4121
14778TIP3   OH265748   0.286   2.913  13.940  0.1367 -0.7583  0.4223
14778TIP3    H165749   0.209   2.946  13.986 -1.0098 -1.5895 -0.8440
14778TIP3    H265750   0.270   2.933  13.848  1.4719 -0.8884  0.1375
14779TIP3   OH265751   4.145   2.414   3.644 -0.6396 -0.3539 -0.0583
14779TIP3    H165752   4.225   2.399   3.595 -0.6934  0.2816 -0.3494
14779TIP3    H265753   4.085   2.454   3.581 -0.6902  0.5332  0.5384
14780TIP3   OH265754   0.823   5.773  13.936  0.7583 -0.1697 -0.7372
14780TIP3    H165755   0.857   5.803  14.020  1.2788 -0.5442 -0.8093
14780TIP3    H265756   0.867   5.827  13.871  2.2456 -1.5109 -0.9151
14781TIP3   OH265757   1.522   6.221  15.274  0.3186 -0.4038 -0.3497
14781TIP3    H165758   1.547   6.191  15.186  0.1459  0.9639 -0.8969
14781TIP3    H265759   1.428   6.205  15.279  0.0504  0.7942 -0.9940
14782TIP3   OH265760   6.439   3.106  17.043  0.5556  0.0556  0.4367
14782TIP3    H165761   6.408   3.051  17.115 -1.9259 -1.2695 -1.5036
14782TIP3    H265762   6.382   3.182  17.043 -2.4183 -1.9066 -2.5091
14783TIP3   OH265763   1.491   2.675  14.835 -0.5568 -0.4775  0.3536
14783TIP3    H165764   1.468   2.768  14.836  0.8233 -0.1215  0.6933
14783TIP3    H265765   1.462   2.642  14.920  0.8811  0.1710  1.1373
14784TIP3   OH265766   0.741   0.940  16.546  0.1885 -0.6255  0.2568
14784TIP3    H165767   0.676   0.923  16.478 -0.2430  0.8691  0.2747
14784TIP3    H265768   0.744   0.859  16.597  0.4799 -1.7588 -1.4791
14785TIP3   OH265769   5.515   6.605   3.381 -0.3720 -0.4271 -0.1504
14785TIP3    H165770   5.609   6.622   3.384 -0.3712 -0.5403  1.6782
14785TIP3    H265771   5.507   6.511   3.367 -0.2404 -0.2987 -1.1375
14786TIP3   OH265772   0.938   3.223   2.711 -0.0041  0.4837 -0.6665
14786TIP3    H165773   1.022   3.261   2.684 -0.4274  1.9847  0.0591
14786TIP3    H265774   0.891   3.209   2.629  0.5773  0.5292 -1.0157
14787TIP3   OH265775   5.767   3.599  13.771 -0.0974  0.3581 -0.3709
14787TIP3    H165776   5.843   3.649  13.740  0.6793 -1.3256 -1.3747
14787TIP3    H265777   5.692   3.648  13.740  0.5819  1.6822  0.0035
14788TIP3   OH265778   5.325   3.550  13.103 -0.6074 -0.3375 -0.4132
14788TIP3    H165779   5.309   3.583  13.015  0.2444 -0.2559 -0.5403
14788TIP3    H265780   5.420   3.554  13.114 -0.7913  2.9456  1.7302
14789TIP3   OH265781   6.524   5.383   2.903 -0.7180  0.2176  0.0133
14789TIP3    H165782   6.587   5.454   2.891 -0.7663  0.1146 -0.9159
14789TIP3    H265783   6.439   5.425   2.898 -0.7878 -0.0570 -1.9083
14790TIP3   OH265784   0.138   5.962  17.446 -0.2993 -0.2606  0.0268
14790TIP3    H165785   0.089   5.892  17.403 -1.6258 -1.2791  2.9052
14790TIP3    H265786   0.129   6.037  17.387 -0.7174 -1.8686 -2.0995
14791TIP3   OH265787   1.628   4.733  11.771  0.4172  0.1342 -0.2977
14791TIP3    H165788   1.550   4.750  11.717  0.1172  1.2131  0.4381
14791TIP3    H265789   1.681   4.812  11.760  1.4257 -0.5840 -0.7789
14792TIP3   OH265790   6.460   4.985  14.643  0.1260  0.4189  0.0645
14792TIP3    H165791   6.477   4.896  14.612  0.4669  0.2648  0.6839
14792TIP3    H265792   6.365   4.990  14.653  0.0252  0.4104 -0.8050
14793TIP3   OH265793   0.844   1.223   5.930 -0.0271  0.0446  0.2066
14793TIP3    H165794   0.784   1.180   5.870 -0.8285 -1.4338  1.9491
14793TIP3    H265795   0.794   1.295   5.967 -0.1936 -0.2063  0.4763
14794TIP3   OH265796   0.366   2.061   2.723  0.4089 -0.2011  0.1052
14794TIP3    H165797   0.445   2.049   2.670  0.3666  0.2055 -0.0575
14794TIP3    H265798   0.398   2.066   2.813  0.5702 -0.0572  0.0412
14795TIP3   OH265799   0.452   3.526  15.684  0.2089 -0.0493  0.6469
14795TIP3    H165800   0.542   3.556  15.677  0.4455 -0.5589  1.4494
14795TIP3    H265801   0.408   3.565  15.608  0.3543  2.7221  1.8628
14796TIP3   OH265802   1.668   6.447  14.521 -0.1163  0.2147  0.2705
14796TIP3    H165803   1.672   6.519  14.584  0.6037  1.3325 -0.9929
14796TIP3    H265804   1.707   6.373  14.567  0.6954  1.0809  1.0325
14797TIP3   OH265805   2.752   2.502   3.065  0.0300 -0.1071  0.0663
14797TIP3    H165806   2.831   2.556   3.074  0.1781 -0.3879  0.4707
14797TIP3    H265807   2.743   2.489   2.971  1.7168 -1.8776  0.0844
14798TIP3   OH265808   0.200   0.122  14.934  0.2389 -0.5176 -0.2989
14798TIP3    H165809   0.274   0.122  14.995  0.8369  1.1417 -0.9558
14798TIP3    H265810   0.241   0.113  14.847 -0.3386  0.2624 -0.6591
14799TIP3   OH265811   3.750   1.382   0.673 -0.2918  0.4630 -0.0868
14799TIP3    H165812   3.696   1.442   0.725 -0.9752 -1.3055  1.3699
14799TIP3    H265813   3.839   1.395   0.706 -0.8597 -1.4397  2.5219
14800TIP3   OH265814   6.416   1.343  17.537  0.0502 -0.1867  0.5356
14800TIP3    H165815   6.456   1.424  17.504 -2.3536  1.6090  1.7117
14800TIP3    H265816   6.323   1.355  17.522 -0.5470 -1.9395  2.4802
14801TIP3   OH265817   4.965   2.035  16.492  0.2517  0.3835  0.1784
14801TIP3    H165818   4.937   2.040  16.401  0.7065  0.6963  0.0510
14801TIP3    H265819   4.970   1.941  16.510  2.1334  0.2366 -0.7670
14802TIP3   OH265820   2.187   0.861  16.550 -0.1138  0.2749  0.0855
14802TIP3    H165821   2.121   0.825  16.608  1.5430 -0.3453  1.6736
14802TIP3    H265822   2.194   0.798  16.479 -0.4957 -0.1566  0.4257
14803TIP3   OH265823   6.160   3.698   6.009 -0.4557  0.0083 -0.1495
14803TIP3    H165824   6.201   3.619   6.044 -0.1984 -0.3813 -1.2957
14803TIP3    H265825   6.097   3.666   5.944  0.1966  0.7583 -1.1849
14804TIP3   OH265826   0.311   2.530  11.178  0.2256 -0.2171  0.6091
14804TIP3    H165827   0.303   2.527  11.083 -1.1416 -1.7566  0.7311
14804TIP3    H265828   0.311   2.624  11.199 -0.8593  0.1331 -0.8152
14805TIP3   OH265829   1.943   1.337  15.372  0.1410 -0.3265 -0.2804
14805TIP3    H165830   1.948   1.428  15.343  0.6446 -0.3823 -0.3805
14805TIP3    H265831   1.851   1.313  15.360  0.4028 -0.5064 -2.3636
14806TIP3   OH265832   3.256   4.669   6.485 -0.0765 -0.2877 -0.7185
14806TIP3    H165833   3.312   4.723   6.430 -0.5675 -1.0592 -2.0037
14806TIP3    H265834   3.172   4.668   6.439 -0.5667 -0.7542  0.1709
14807TIP3   OH265835   2.727   3.029  11.548 -0.4294 -0.0309 -0.1835
14807TIP3    H165836   2.712   3.049  11.455 -0.6118 -0.9483 -0.3564
14807TIP3    H265837   2.642   2.999  11.580 -1.1172  2.7935  0.9847
14808TIP3   OH265838   1.236   4.904   2.114  0.2286  0.1181 -0.0439
14808TIP3    H165839   1.171   4.926   2.046 -1.4632  0.1363  1.5070
14808TIP3    H265840   1.247   4.985   2.164 -0.9250 -0.6877  1.5784
14809TIP3   OH265841   1.072   3.883  16.638 -0.5444 -0.0990 -0.6294
14809TIP3    H165842   1.059   3.962  16.689 -2.2541 -0.1659 -0.9166
14809TIP3    H265843   1.062   3.812  16.701 -0.6241 -0.1288 -0.6754
14810TIP3   OH265844   0.838   5.260  17.112 -0.1259 -0.4847  0.1467
14810TIP3    H165845   0.924   5.278  17.149 -0.6281  0.0627  1.1205
14810TIP3    H265846   0.779   5.316  17.163 -0.7594  1.0124 -2.1119
14811TIP3   OH265847   3.426   4.010  13.917  0.1736 -0.0948 -0.0406
14811TIP3    H165848   3.398   4.009  14.008 -0.0633  0.2152 -0.1106
14811TIP3    H265849   3.409   4.099  13.887 -0.3643 -0.3682 -0.5758
14812TIP3   OH265850   3.834   5.599  15.862 -0.1084 -0.1063 -0.3438
14812TIP3    H165851   3.780   5.530  15.823  0.1588  0.2561 -1.3823
14812TIP3    H265852   3.924   5.572  15.844  0.0432 -0.2666  0.6136
14813TIP3   OH265853   6.071   3.334   6.041  0.0546 -0.6358 -0.1672
14813TIP3    H165854   6.014   3.310   6.114 -1.3301  0.5297 -0.8225
14813TIP3    H265855   6.140   3.387   6.081 -2.1339  2.2768  0.0602
14814TIP3   OH265856   4.767   3.180  16.996  0.1883 -0.0510  0.2679
14814TIP3    H165857   4.852   3.152  16.964  0.1432 -1.1448  1.0724
14814TIP3    H265858   4.776   3.180  17.092 -0.7403 -0.2468  0.3600
14815TIP3   OH265859   0.080   5.494   1.600 -0.4643  0.4383  0.1680
14815TIP3    H165860   0.131   5.576   1.599  1.0820 -0.4704  0.7778
14815TIP3    H265861   0.102   5.454   1.684 -0.1068 -1.2744 -0.7142
14816TIP3   OH265862   3.681   6.388  13.513 -0.6465 -0.4083  0.0115
14816TIP3    H165863   3.616   6.403  13.445 -1.1177  1.8532  0.8658
14816TIP3    H265864   3.663   6.300  13.544  0.0859 -1.8415 -3.2299
14817TIP3   OH265865   1.206   6.662  17.143  0.2920  0.8019  0.3606
14817TIP3    H165866   1.299   6.649  17.125  0.1445 -0.2979  0.3528
14817TIP3    H265867   1.180   6.586  17.194 -0.5457  1.2396  0.6021
14818TIP3   OH265868   5.504   1.737   2.101  0.4884  0.3851  0.0077
14818TIP3    H165869   5.590   1.776   2.115  1.2543 -1.1671 -0.1530
14818TIP3    H265870   5.467   1.786   2.027  1.3017  0.9643 -0.0260
14819TIP3   OH265871   4.100   5.465   0.863 -0.3778 -0.0588  0.0778
14819TIP3    H165872   4.008   5.439   0.871 -0.7191  1.2672  0.7999
14819TIP3    H265873   4.106   5.504   0.776 -0.3404 -0.7236 -0.2209
14820TIP3   OH265874   5.235   2.069  16.351 -0.0442  0.4735  0.0484
14820TIP3    H165875   5.233   1.996  16.413 -0.4369  2.0614  2.0436
14820TIP3    H265876   5.158   2.055  16.296  0.5755 -1.2454 -0.4185
14821TIP3   OH265877   4.488   0.461  11.859  0.3087 -0.5988  0.6098
14821TIP3    H165878   4.485   0.556  11.850  1.1617 -0.6969 -1.0501
14821TIP3    H265879   4.401   0.432  11.831  0.4136 -0.3664  0.0232
14822TIP3   OH265880   0.339   2.640  10.681 -0.1639 -0.2006  0.0959
14822TIP3    H165881   0.320   2.593  10.600  1.5858 -1.1184  0.1591
14822TIP3    H265882   0.254   2.673  10.711 -0.9764 -0.6476 -1.6002
14823TIP3   OH265883   6.189   4.118   0.123  0.2124  0.6158  0.0486
14823TIP3    H165884   6.267   4.076   0.087 -0.2902 -0.6200  0.3084
14823TIP3    H265885   6.220   4.199   0.162  1.4386 -0.0293  0.4817
14824TIP3   OH265886   6.077   6.510   0.717  0.0525  0.1186 -0.0706
14824TIP3    H165887   6.063   6.415   0.710  0.0281  0.1074  0.1387
14824TIP3    H265888   6.047   6.545   0.633 -0.8576  0.0543  0.2232
14825TIP3   OH265889   4.369   4.777  17.287 -0.4263 -0.4414 -0.2663
14825TIP3    H165890   4.359   4.859  17.335  1.8873 -0.1578 -0.1814
14825TIP3    H265891   4.384   4.805  17.196 -0.0948 -0.7802 -0.3162
14826TIP3   OH265892   5.163   3.159   4.481 -0.1428  0.4565 -0.0161
14826TIP3    H165893   5.168   3.146   4.576  1.6973 -0.6057 -0.2088
14826TIP3    H265894   5.119   3.081   4.448  0.5924  0.0916 -0.1547
14827TIP3   OH265895   4.386   3.156   0.232  0.4991  0.1408 -0.4300
14827TIP3    H165896   4.364   3.249   0.239  0.1323  0.1461 -1.3975
14827TIP3    H265897   4.306   3.115   0.200  0.9440 -0.3505 -0.9319
14828TIP3   OH265898   1.739   2.855   3.053  0.1017 -0.6108  0.5397
14828TIP3    H165899   1.652   2.864   3.093 -0.0067 -1.7791  0.6136
14828TIP3    H265900   1.774   2.944   3.049 -0.9745 -0.1648  0.7955
14829TIP3   OH265901   5.683   3.246  14.387  0.9877  0.5291  0.3872
14829TIP3    H165902   5.682   3.151  14.375  2.4924  0.5489 -0.0002
14829TIP3    H265903   5.604   3.276  14.341  0.4749 -0.5179  0.5427
14830TIP3   OH265904   6.006   4.380   5.993 -0.8306  0.0901  0.2953
14830TIP3    H165905   6.081   4.329   6.023 -0.5519  0.5462  0.3793
14830TIP3    H265906   6.020   4.468   6.030 -0.8321  0.4785 -0.6051
14831TIP3   OH265907   0.021   1.280  14.613 -0.6376  0.3521  0.6101
14831TIP3    H165908  -0.025   1.200  14.588  1.6945 -0.7680 -0.3157
14831TIP3    H265909   0.096   1.250  14.664  0.4770  1.9124 -0.0484
14832TIP3   OH265910   6.425   4.415  17.202 -0.2283  0.1405 -0.0122
14832TIP3    H165911   6.346   4.413  17.256 -0.2149 -0.1352 -0.0003
14832TIP3    H265912   6.469   4.497  17.226  0.5544 -0.6848  1.5012
14833TIP3   OH265913   3.733   5.814   5.631  0.2489 -0.0548 -0.1591
14833TIP3    H165914   3.718   5.724   5.659  2.8121 -0.1796  1.0865
14833TIP3    H265915   3.738   5.865   5.712 -1.7161  1.3822 -0.8578
14834TIP3   OH265916   5.094   1.927   3.047 -0.1274 -0.1493  0.0919
14834TIP3    H165917   5.095   2.020   3.028 -0.0606 -0.0541  0.5489
14834TIP3    H265918   5.001   1.904   3.049 -0.2009  0.2081  1.3867
14835TIP3   OH265919   5.048   4.579   5.937 -0.1328 -0.4124 -0.0099
14835TIP3    H165920   5.022   4.556   6.026  0.7149  0.3166  0.4447
14835TIP3    H265921   5.039   4.498   5.888 -1.1822 -0.6830  0.6045
14836TIP3   OH265922   2.758   0.787  10.764 -0.5902  0.1888  0.5015
14836TIP3    H165923   2.700   0.719  10.730  0.6123 -1.1313  0.9950
14836TIP3    H265924   2.844   0.767  10.726 -0.4177  2.0985 -0.2148
14837TIP3   OH265925   4.606   0.885   3.896 -0.0902 -0.4591  0.0628
14837TIP3    H165926   4.581   0.793   3.903  1.6698 -0.9537  0.1098
14837TIP3    H265927   4.563   0.927   3.971 -2.1424 -0.8954 -0.7812
14838TIP3   OH265928   0.623   3.567  16.854 -0.2282 -0.3220 -0.0069
14838TIP3    H165929   0.630   3.582  16.948  0.5915  0.7835 -0.2160
14838TIP3    H265930   0.593   3.651  16.819  0.1887 -0.4990 -0.8080
14839TIP3   OH265931   5.913   6.316  12.272 -0.2849 -0.4915  0.0467
14839TIP3    H165932   5.887   6.289  12.360  0.8302 -0.4519  0.4044
14839TIP3    H265933   5.966   6.395  12.285  0.9504 -1.1948 -0.5364
14840TIP3   OH265934   5.050   6.195  15.028 -0.1072  0.0732  0.4363
14840TIP3    H165935   5.119   6.240  14.979 -1.1017  1.3001  0.1068
14840TIP3    H265936   5.086   6.184  15.116  0.3488  1.0895  0.3873
14841TIP3   OH265937   2.949   4.547   1.592 -0.7696  0.1924  0.6486
14841TIP3    H165938   2.940   4.525   1.685  1.7413 -0.8544  0.7232
14841TIP3    H265939   3.044   4.542   1.575 -1.0170  1.7004 -1.6616
14842TIP3   OH265940   2.688   2.215   0.958 -0.1693  0.3001  0.5804
14842TIP3    H165941   2.776   2.237   0.988  0.0946  0.1948 -0.0966
14842TIP3    H265942   2.641   2.191   1.037  0.3853  0.4446  0.9599
14843TIP3   OH265943   3.451   3.189  17.540  0.2041 -0.2191 -0.0753
14843TIP3    H165944   3.526   3.131  17.556 -0.0017 -0.5046 -0.1304
14843TIP3    H265945   3.410   3.199  17.626 -0.2999 -0.9136 -0.2236
14844TIP3   OH265946   1.622   4.967  17.372  0.4586  0.3781  0.9484
14844TIP3    H165947   1.629   4.922  17.456 -0.8267  0.7679  1.2831
14844TIP3    H265948   1.537   5.009  17.374 -0.1750 -0.6430 -1.0644
14845TIP3   OH265949   2.205   4.149  15.194  0.0432  0.2380 -0.0803
14845TIP3    H165950   2.183   4.205  15.119  0.2087  0.4172  0.0019
14845TIP3    H265951   2.233   4.066  15.155 -2.7070 -0.7466 -0.1401
14846TIP3   OH265952   6.333   6.651  15.430 -0.5843  0.7839  0.3253
14846TIP3    H165953   6.300   6.703  15.503  3.2502  2.2012  1.2984
14846TIP3    H265954   6.338   6.562  15.465  1.5254  1.4986  2.0805
14847TIP3   OH265955   3.965   3.993   4.210  0.2682  0.0620 -0.2893
14847TIP3    H165956   3.932   3.977   4.122 -1.5047 -1.1999  0.5439
14847TIP3    H265957   4.032   4.061   4.199  1.4305 -1.3760 -2.8290
14848TIP3   OH265958   3.797   1.244  16.741 -0.0231 -0.1083  0.5774
14848TIP3    H165959   3.812   1.310  16.809 -0.5972 -0.6307  1.2379
14848TIP3    H265960   3.835   1.281  16.662  0.1761  0.7584  1.0649
14849TIP3   OH265961   6.695   0.964  14.118 -0.2516 -0.2204  0.4131
14849TIP3    H165962   6.721   1.034  14.059 -0.3216  0.1165  0.7775
14849TIP3    H265963   6.697   0.885  14.064  0.0036  0.0339  0.0453
14850TIP3   OH265964   0.483   0.479  16.242  0.2724 -0.0592  0.1532
14850TIP3    H165965   0.517   0.550  16.188 -0.1259 -0.2681 -0.3850
14850TIP3    H265966   0.558   0.421  16.256  0.9090  1.0645  1.6186
14851TIP3   OH265967   6.560   4.979  13.187 -0.2998  0.2333  0.0112
14851TIP3    H165968   6.602   4.894  13.193 -0.9529 -0.4808 -3.5313
14851TIP3    H265969   6.507   4.986  13.267  1.7424 -1.4818  1.6072
14852TIP3   OH265970   1.509   4.419  11.362 -0.4481  0.0663 -0.3985
14852TIP3    H165971   1.547   4.358  11.298  0.7047  0.1215  0.2146
14852TIP3    H265972   1.524   4.377  11.446 -0.1707  0.9207 -0.0124
14853TIP3   OH265973   0.126   1.745   3.388 -0.2779  0.0029 -0.4515
14853TIP3    H165974   0.032   1.756   3.406 -0.3563 -1.6732  0.4050
14853TIP3    H265975   0.134   1.654   3.360  1.1242  0.0437 -0.2440
14854TIP3   OH265976   0.240   3.063  12.826  0.6099 -0.2222 -0.2251
14854TIP3    H165977   0.319   3.030  12.784  0.1224  0.7768 -2.0669
14854TIP3    H265978   0.168   3.028  12.773  0.0467  3.3095 -2.1797
14855TIP3   OH265979   0.355   3.417  16.407 -0.8537 -0.4784 -0.5606
14855TIP3    H165980   0.312   3.332  16.406 -1.3802 -0.2188 -1.8819
14855TIP3    H265981   0.316   3.465  16.334  0.3095  0.4577 -0.6023
14856TIP3   OH265982   0.142   2.328  12.460  0.6487  0.1172  0.4135
14856TIP3    H165983   0.121   2.274  12.384  1.5843  0.2406  0.0580
14856TIP3    H265984   0.196   2.272  12.515  0.2028  0.1219  0.8723
14857TIP3   OH265985   0.286   4.039  13.286  0.4581 -0.0609 -0.0689
14857TIP3    H165986   0.241   4.117  13.254  0.3224 -0.1278 -0.0434
14857TIP3    H265987   0.305   4.058  13.377 -0.7686 -0.5795  0.3141
14858TIP3   OH265988   2.752   2.257   5.230 -0.2447  0.2571  0.5034
14858TIP3    H165989   2.830   2.264   5.175 -0.2533 -3.1934 -0.2168
14858TIP3    H265990   2.786   2.251   5.319  0.2588  0.0443  0.3044
14859TIP3   OH265991   6.247   0.983   4.099 -0.0465 -0.2707  0.1836
14859TIP3    H165992   6.198   0.906   4.068 -0.3615  0.7333 -1.9508
14859TIP3    H265993   6.221   1.053   4.040  1.2394  1.1821  1.2808
14860TIP3   OH265994   5.264   1.832  11.545 -0.1995  0.3787  0.3295
14860TIP3    H165995   5.330   1.857  11.481  0.5937  0.1215  1.0161
14860TIP3    H265996   5.258   1.908  11.604  1.1680 -0.4388  1.5842
14861TIP3   OH265997   4.476   6.493  16.391 -0.0853 -0.6870 -0.0189
14861TIP3    H165998   4.392   6.471  16.351 -0.7126 -0.7548  1.2735
14861TIP3    H265999   4.475   6.448  16.476 -0.7307  2.8471  2.0612
14862TIP3   OH266000   1.877   3.286  12.855 -1.0076  0.0554  0.2558
14862TIP3    H166001   1.874   3.304  12.761  0.0804  1.9051  0.5194
14862TIP3    H266002   1.844   3.197  12.864  1.5252 -1.2797 -2.1837
14863TIP3   OH266003   3.608   0.548  12.047  0.3173 -0.5908 -0.1551
14863TIP3    H166004   3.616   0.536  11.953  1.2563 -1.8429  0.0493
14863TIP3    H266005   3.626   0.641  12.062 -0.9508 -0.1491 -1.3001
14864TIP3   OH266006   0.054   1.957   4.186 -0.1467  0.3019 -0.0868
14864TIP3    H166007   0.002   1.894   4.235 -1.0752  0.3959 -0.9132
14864TIP3    H266008   0.028   2.043   4.221 -3.0560  0.6127 -2.6383
14865TIP3   OH266009   4.427   1.781   3.622 -0.2455 -0.4194 -0.2564
14865TIP3    H166010   4.416   1.767   3.716  1.8006 -0.6978  0.0063
14865TIP3    H266011   4.395   1.870   3.607  1.1773  0.3889  1.1097
14866TIP3   OH266012   0.221   5.036  13.084 -0.0439  0.0152 -0.1690
14866TIP3    H166013   0.294   5.089  13.053  1.4419 -0.3356  2.5007
14866TIP3    H266014   0.148   5.098  13.093  0.9981  1.1611  0.6403
14867TIP3   OH266015   4.041   6.282  14.012  0.2688  0.5104 -0.1419
14867TIP3    H166016   4.083   6.219  14.071  0.1353 -1.3783 -1.9671
14867TIP3    H266017   3.965   6.314  14.062 -0.0599 -1.3076  0.5963
14868TIP3   OH266018   4.914   5.225   1.607 -0.3122  0.1036  0.4550
14868TIP3    H166019   4.928   5.257   1.518 -1.4755  1.3078  0.6762
14868TIP3    H266020   4.850   5.285   1.645 -0.0259 -0.5275  2.0355
14869TIP3   OH266021   5.543   1.061   1.521 -0.0398  0.1532  0.1430
14869TIP3    H166022   5.590   1.108   1.589  0.2304  0.0986 -0.0033
14869TIP3    H266023   5.606   0.996   1.489 -1.2759 -2.2879  2.2946
14870TIP3   OH266024   6.254   0.545  12.899  0.3832 -0.5087  0.1069
14870TIP3    H166025   6.344   0.545  12.932  0.6109 -0.1458 -0.4971
14870TIP3    H266026   6.205   0.496  12.964  0.5756  1.2179  1.6473
14871TIP3   OH266027   6.304   6.342   1.628 -0.7201 -0.0270 -0.6397
14871TIP3    H166028   6.386   6.296   1.609  0.5042  1.5077  0.7042
14871TIP3    H266029   6.327   6.435   1.623 -2.3952  0.4355 -0.2422
14872TIP3   OH266030   2.962   1.870   3.079  0.4455 -0.4392 -0.4906
14872TIP3    H166031   2.982   1.788   3.123 -1.4992 -1.2101 -0.9564
14872TIP3    H266032   2.866   1.873   3.074  0.4340  2.0157 -0.2070
14873TIP3   OH266033   0.511   0.888   2.252  0.3181  0.4292  0.2551
14873TIP3    H166034   0.583   0.888   2.189  1.1374 -0.2681  1.1456
14873TIP3    H266035   0.531   0.959   2.313  1.3600 -0.9795  1.6514
14874TIP3   OH266036   1.691   5.671  15.006 -0.9498 -0.2552 -0.1912
14874TIP3    H166037   1.621   5.672  15.072 -1.3144 -0.9988 -0.5475
14874TIP3    H266038   1.733   5.586  15.018 -1.0229 -0.3969 -0.9180
14875TIP3   OH266039   0.332   0.335   5.149 -0.0949 -0.4638 -1.2318
14875TIP3    H166040   0.314   0.305   5.060 -1.8689  0.6802 -1.3108
14875TIP3    H266041   0.245   0.347   5.188  0.6254  0.4654  0.1615
14876TIP3   OH266042   5.637   2.228  14.083 -0.4406  0.0076 -0.6765
14876TIP3    H166043   5.689   2.307  14.069  1.3010 -1.0818 -0.6721
14876TIP3    H266044   5.565   2.255  14.140 -0.5316  1.8107 -1.5957
14877TIP3   OH266045   0.747   2.911   4.563  0.1201  0.8345  0.1795
14877TIP3    H166046   0.782   2.998   4.546  2.6255  0.3182  2.0843
14877TIP3    H266047   0.803   2.852   4.512 -0.3798  0.2057  0.3454
14878TIP3   OH266048   3.000   5.157   1.014 -1.0288  0.2734  0.1595
14878TIP3    H166049   3.078   5.212   1.015 -0.4210 -0.5547  0.1870
14878TIP3    H266050   2.999   5.116   1.100  0.8868 -2.8578 -1.1128
14879TIP3   OH266051   1.022   1.875   5.773  0.4121  0.0284 -0.3084
14879TIP3    H166052   0.957   1.822   5.727 -0.8407  1.3943 -0.2159
14879TIP3    H266053   1.104   1.859   5.727 -0.3868 -0.2626 -1.6855
14880TIP3   OH266054   1.855   5.383  17.387  0.0199 -0.0976 -0.3479
14880TIP3    H166055   1.855   5.368  17.481  0.1153 -1.2746 -0.5191
14880TIP3    H266056   1.794   5.318  17.352 -2.4271  2.2384 -0.8455
14881TIP3   OH266057   0.845   2.554  13.684  0.3745 -0.3529 -0.0645
14881TIP3    H166058   0.778   2.528  13.747  0.4672 -1.5682 -0.4396
14881TIP3    H266059   0.802   2.622  13.631 -1.2370 -2.2554 -1.3924
14882TIP3   OH266060   3.158   2.449  13.651  0.3482 -0.4440 -0.7228
14882TIP3    H166061   3.194   2.370  13.611  1.5236 -1.0394  1.3679
14882TIP3    H266062   3.066   2.451  13.623  0.3236 -2.4914 -0.9005
14883TIP3   OH266063   3.597   2.881  15.625 -0.0235  0.4089  0.2151
14883TIP3    H166064   3.515   2.839  15.598 -0.0987  1.0459 -0.5786
14883TIP3    H266065   3.665   2.833  15.579  0.1067 -0.4020  1.2095
14884TIP3   OH266066   5.414   1.884   4.697 -0.3917  0.0952 -0.6179
14884TIP3    H166067   5.483   1.822   4.672  0.3051 -0.0817  1.5470
14884TIP3    H266068   5.359   1.892   4.619 -0.2243 -2.8509 -1.1408
14885TIP3   OH266069   2.097   1.482   3.059 -0.8329 -0.3054 -0.1604
14885TIP3    H166070   2.043   1.520   3.128 -1.8925  1.4352 -1.8494
14885TIP3    H266071   2.039   1.422   3.013  0.0956 -2.0880  0.8699
14886TIP3   OH266072   0.756   5.496  14.920 -0.1624  0.0839 -0.0989
14886TIP3    H166073   0.717   5.424  14.871 -1.0090 -2.0214  3.2963
14886TIP3    H266074   0.684   5.558  14.934 -0.2636  0.0195 -0.3344
14887TIP3   OH266075   4.455   5.270   1.629  0.3619 -0.4736  0.2604
14887TIP3    H166076   4.545   5.289   1.656  1.2281 -1.7468 -1.4630
14887TIP3    H266077   4.400   5.307   1.698  2.1388  1.5022  0.7137
14888TIP3   OH266078   1.344   1.887  15.637 -0.3315 -0.0587  0.1364
14888TIP3    H166079   1.264   1.913  15.591  0.4126  1.2584 -0.4947
14888TIP3    H266080   1.406   1.865  15.567  0.5987  1.3040  0.4791
14889TIP3   OH266081   6.473   2.690   2.101 -0.4040 -0.1114 -0.2691
14889TIP3    H166082   6.428   2.683   2.016 -0.2693 -1.2540 -0.2539
14889TIP3    H266083   6.405   2.670   2.165  0.1717 -2.3028 -0.2635
14890TIP3   OH266084   2.219   2.147   3.793  0.4169  0.2543 -0.0236
14890TIP3    H166085   2.270   2.131   3.714  2.1037  1.7442  0.6990
14890TIP3    H266086   2.195   2.239   3.789  0.9104  0.4771  1.3748
14891TIP3   OH266087   5.926   3.115  15.086 -0.0073 -0.0643  0.1888
14891TIP3    H166088   5.858   3.158  15.137  1.3323  1.0147  1.1487
14891TIP3    H266089   5.947   3.176  15.015 -2.6938 -2.0432 -2.5844
14892TIP3   OH266090   1.701   5.416   1.457  0.0821 -0.4216 -0.3375
14892TIP3    H166091   1.706   5.418   1.362  0.6806 -0.9900 -0.3273
14892TIP3    H266092   1.616   5.454   1.478  0.5296  1.0074 -1.0241
14893TIP3   OH266093   4.887   6.114   3.644  0.4742 -0.0588  0.3979
14893TIP3    H166094   4.956   6.144   3.703  0.2338 -1.3478  1.3696
14893TIP3    H266095   4.818   6.180   3.654  0.1433 -0.6211  2.1270
14894TIP3   OH266096   1.660   3.220  13.672  0.3313  0.3179 -0.3978
14894TIP3    H166097   1.718   3.241  13.746  0.8589 -0.5152 -0.5593
14894TIP3    H266098   1.597   3.158  13.708  1.3155 -1.0314 -0.9027
14895TIP3   OH266099   2.576   0.102  14.079  0.0904 -0.5420  0.0354
14895TIP3    H166100   2.518   0.067  14.012 -1.6810  1.4693  0.3756
14895TIP3    H266101   2.531   0.082  14.162 -0.3913  1.3740  0.2894
14896TIP3   OH266102   0.778   2.521  12.276 -0.2834 -0.3167  0.1301
14896TIP3    H166103   0.723   2.597  12.261 -1.7234 -1.5565 -1.1761
14896TIP3    H266104   0.846   2.527  12.208  1.1800  1.1087  1.6228
14897TIP3   OH266105   3.806   3.908   5.642 -0.4345  0.3931 -0.0309
14897TIP3    H166106   3.789   3.907   5.736 -0.3836 -2.6481  0.0601
14897TIP3    H266107   3.897   3.936   5.634  0.1267 -0.9901  1.0419
14898TIP3   OH266108   6.340   2.239   4.627  0.2307  0.3415 -0.0927
14898TIP3    H166109   6.327   2.332   4.608  0.2959  0.4111  0.2034
14898TIP3    H266110   6.336   2.232   4.722 -0.9862 -0.1451 -0.1654
14899TIP3   OH266111   2.008   5.563   0.591 -0.6966 -0.2406 -0.2395
14899TIP3    H166112   2.013   5.628   0.662 -3.1700 -1.4745  1.1923
14899TIP3    H266113   1.943   5.598   0.530 -0.8413 -0.6031 -0.2981
14900TIP3   OH266114   5.317   0.059  13.700  0.3002 -0.0319 -0.3893
14900TIP3    H166115   5.296   0.151  13.719 -0.4208 -0.5071  1.2599
14900TIP3    H266116   5.292   0.047  13.608 -0.7890  1.0824 -0.2533
14901TIP3   OH266117   3.753   4.953  12.995  0.2559 -0.1285  0.1350
14901TIP3    H166118   3.742   5.021  13.062  1.7644 -0.1207  0.4007
14901TIP3    H266119   3.703   4.985  12.920 -0.9864  0.1332  1.0559
14902TIP3   OH266120   3.051   5.043   3.397 -0.4765  1.0085  0.0361
14902TIP3    H166121   3.043   5.038   3.302  0.8467 -0.3802 -0.0490
14902TIP3    H266122   3.145   5.056   3.412 -0.1089 -2.0153  1.1485
14903TIP3   OH266123   1.689   2.213  15.884 -0.7105 -0.2926 -0.2916
14903TIP3    H166124   1.608   2.168  15.861  0.6760 -1.4709 -3.4943
14903TIP3    H266125   1.756   2.144  15.882  0.5177  0.7625  1.6091
14904TIP3   OH266126   2.191   5.998  17.365 -1.2140 -0.2101  0.6305
14904TIP3    H166127   2.247   6.027  17.293 -1.1556  0.7453  1.0572
14904TIP3    H266128   2.240   5.927  17.406 -1.1138 -0.5650 -0.0761
14905TIP3   OH266129   6.262   3.515  15.015  0.3876  0.1258  0.6607
14905TIP3    H166130   6.271   3.580  14.945 -1.0535  1.2262  1.4324
14905TIP3    H266131   6.202   3.556  15.078  0.3565 -1.4984  1.7484
14906TIP3   OH266132   5.252   3.116   0.328  0.2945 -0.4587  0.4825
14906TIP3    H166133   5.186   3.176   0.363 -0.9121 -0.4639 -1.6054
14906TIP3    H266134   5.212   3.030   0.333  0.0748 -0.4586 -0.8162
14907TIP3   OH266135   1.819   5.219  12.830 -0.0305  0.0947 -0.3792
14907TIP3    H166136   1.733   5.255  12.849  1.0630  2.2630  0.7873
14907TIP3    H266137   1.854   5.194  12.915  1.0119  0.5158 -0.6609
14908TIP3   OH266138   0.636   1.064  15.211  0.0282 -1.2121 -0.4198
14908TIP3    H166139   0.653   1.005  15.137  0.2322 -0.8418 -0.6741
14908TIP3    H266140   0.572   1.018  15.265  0.5078 -1.8554 -0.3887
14909TIP3   OH266141   2.637   3.701   5.652 -0.3746  0.1664 -0.1151
14909TIP3    H166142   2.709   3.743   5.700 -0.7150 -0.4082  0.9350
14909TIP3    H266143   2.674   3.619   5.619 -0.8389 -0.7467  1.4992
14910TIP3   OH266144   1.320   1.949  15.055 -0.1691 -0.0791  0.1230
14910TIP3    H166145   1.384   1.937  15.125 -0.1431  0.9356  0.2803
14910TIP3    H266146   1.299   2.042  15.056 -3.2235 -0.6328  1.4646
14911TIP3   OH266147   3.029   1.939   2.084  0.7325  0.0241 -0.5393
14911TIP3    H166148   2.978   1.950   2.164  2.0991 -0.3809  0.4148
14911TIP3    H266149   2.975   1.883   2.029  0.3181 -0.7209  0.6001
14912TIP3   OH266150   2.110   3.377  10.930 -0.4556  0.5419  0.2894
14912TIP3    H166151   2.107   3.435  11.006 -0.9658  0.7293  0.1315
14912TIP3    H266152   2.046   3.414  10.870  0.1922  0.5957 -0.3785
14913TIP3   OH266153   5.359   0.617   5.685 -0.6436 -0.5155  0.6760
14913TIP3    H166154   5.383   0.559   5.757 -2.0809 -0.7120  1.0442
14913TIP3    H266155   5.296   0.566   5.633  1.6265 -1.0367 -1.7579
14914TIP3   OH266156   3.767   4.892  15.310  0.3172  0.1610  0.4609
14914TIP3    H166157   3.752   4.880  15.404 -0.3836 -0.2600  0.2997
14914TIP3    H266158   3.718   4.971  15.287 -2.3750 -1.5656 -0.1926
14915TIP3   OH266159   5.880   4.594   1.592 -0.2192  0.1568  0.2286
14915TIP3    H166160   5.845   4.676   1.626 -0.5523  0.6939 -1.3187
14915TIP3    H266161   5.841   4.586   1.504  0.9154 -0.9355 -0.2041
14916TIP3   OH266162   0.319   2.742  14.690  0.1102  0.3038 -0.9650
14916TIP3    H166163   0.309   2.820  14.745  0.8558 -0.2890  0.0265
14916TIP3    H266164   0.344   2.777  14.604  0.7595  1.1460 -0.4474
14917TIP3   OH266165   1.803   2.339   0.228  0.1656 -0.0992 -0.1153
14917TIP3    H166166   1.820   2.423   0.186  0.8546  0.6830  1.6314
14917TIP3    H266167   1.867   2.280   0.189  0.1494  0.3587 -0.8531
14918TIP3   OH266168   6.702   2.456  11.778  0.0232  0.3316 -0.8274
14918TIP3    H166169   6.643   2.381  11.784 -1.1317  1.2473 -0.4829
14918TIP3    H266170   6.739   2.465  11.866  0.3966 -0.0024 -0.9453
14919TIP3   OH266171   2.625   4.180  16.337 -0.5415 -0.3838 -0.1324
14919TIP3    H166172   2.578   4.225  16.267 -0.8043 -1.3417 -0.6028
14919TIP3    H266173   2.715   4.212  16.330 -0.4459 -0.8292 -1.2694
14920TIP3   OH266174   0.159   3.077   5.757  0.5123 -0.5344  0.4088
14920TIP3    H166175   0.209   3.152   5.724  1.6082 -1.3358  0.1962
14920TIP3    H266176   0.115   3.041   5.679 -1.4753  0.8942  0.7767
14921TIP3   OH266177   4.856   6.433   2.339 -0.3790  0.5220 -0.7046
14921TIP3    H166178   4.842   6.496   2.410  1.9137 -1.2113  1.4207
14921TIP3    H266179   4.774   6.384   2.335  0.7895 -2.6748  4.4359
14922TIP3   OH266180   2.527   3.143   5.492 -0.4880  0.0930  0.0174
14922TIP3    H166181   2.513   3.068   5.434 -0.0022 -0.8897  1.1380
14922TIP3    H266182   2.612   3.178   5.465  0.6625 -1.5310  1.3266
14923TIP3   OH266183   3.614   0.573  12.807  0.0979  0.5087 -0.2609
14923TIP3    H166184   3.639   0.651  12.856  1.0233  0.7889 -1.1274
14923TIP3    H266185   3.640   0.592  12.716  0.7727 -0.9554 -0.4243
14924TIP3   OH266186   5.139   3.847   1.331 -0.2747  0.6274 -0.0623
14924TIP3    H166187   5.128   3.808   1.245  0.7494  0.7836 -0.2805
14924TIP3    H266188   5.110   3.780   1.392 -1.2451  0.6080 -0.5299
14925TIP3   OH266189   3.073   5.255   0.312  0.2845  0.1116  0.2391
14925TIP3    H166190   3.030   5.188   0.366  2.1350 -0.3622  1.2013
14925TIP3    H266191   3.032   5.247   0.226  0.2055 -2.0275  0.4280
14926TIP3   OH266192   0.403   1.018  12.936 -0.0250 -0.3728  0.6809
14926TIP3    H166193   0.448   1.065  12.866 -1.8377 -0.6038 -0.6964
14926TIP3    H266194   0.380   0.933  12.897 -2.1298 -0.0493  1.1070
14927TIP3   OH266195   6.162   2.399   5.235  0.2533  0.1074 -0.2222
14927TIP3    H166196   6.109   2.323   5.212 -1.2345  0.1659  2.6391
14927TIP3    H266197   6.108   2.474   5.207  0.7288  0.1589 -1.0357
14928TIP3   OH266198   2.050   1.411   1.257  0.3346  0.1060  0.4060
14928TIP3    H166199   1.990   1.408   1.332 -1.0404  0.3393 -0.6374
14928TIP3    H266200   2.044   1.324   1.218 -0.2272  0.4797 -0.3656
14929TIP3   OH266201   1.290   5.759  12.460 -0.2008  0.1069  0.3311
14929TIP3    H166202   1.338   5.842  12.464 -0.6254  0.3454  0.5713
14929TIP3    H266203   1.219   5.776  12.398  0.4274 -0.4619 -0.5722
14930TIP3   OH266204   4.804   3.352  13.584 -0.1098 -0.3799  0.1536
14930TIP3    H166205   4.806   3.269  13.632  0.1070 -0.8051 -0.5685
14930TIP3    H266206   4.713   3.382  13.592 -0.7201 -1.6975 -1.2165
14931TIP3   OH266207   6.228   4.248   2.220 -0.7375  0.4388 -0.3319
14931TIP3    H166208   6.167   4.238   2.293 -1.3088 -0.2305 -0.8770
14931TIP3    H266209   6.307   4.286   2.259 -0.0939 -2.1203  1.1132
14932TIP3   OH266210   1.158   1.771   4.158 -0.0338  0.0098  0.7781
14932TIP3    H166211   1.236   1.826   4.167 -0.0362  0.1610 -0.0139
14932TIP3    H266212   1.174   1.721   4.077 -0.6761 -0.0978  0.7149
14933TIP3   OH266213   1.675   4.531  11.107 -0.4963 -0.0095  0.3856
14933TIP3    H166214   1.693   4.625  11.108  1.8628 -0.3178 -1.6561
14933TIP3    H266215   1.581   4.524  11.095 -0.6829  2.1141  0.2646
14934TIP3   OH266216   1.433   1.528  10.338  0.0229  0.6256  0.2034
14934TIP3    H166217   1.367   1.535  10.407 -1.5175 -0.6481 -1.0501
14934TIP3    H266218   1.396   1.577  10.264  0.6691  0.2587 -0.3794
14935TIP3   OH266219   1.193   0.718  14.630 -0.8247  0.3337 -0.2039
14935TIP3    H166220   1.178   0.704  14.536 -1.8167 -0.4658  0.0612
14935TIP3    H266221   1.170   0.810  14.644 -1.4704  0.2399 -0.5990
14936TIP3   OH266222   1.005   3.566   2.637  0.0477 -0.1487 -0.4130
14936TIP3    H166223   1.068   3.636   2.622 -0.5727  0.5846  0.2968
14936TIP3    H266224   0.975   3.540   2.549  0.7618  0.0191 -0.7066
14937TIP3   OH266225   3.048   6.471  17.292 -0.5621 -0.5680  0.1227
14937TIP3    H166226   3.021   6.490  17.202  1.1749  0.1072 -0.2997
14937TIP3    H266227   3.003   6.389  17.313 -1.6993 -0.2821 -1.0244
14938TIP3   OH266228   3.164   0.791  13.255  0.0272  0.1428 -0.4870
14938TIP3    H166229   3.085   0.809  13.307  0.0684 -1.9106  0.3833
14938TIP3    H266230   3.218   0.736  13.312  2.1902  1.5972 -1.0166
14939TIP3   OH266231   2.862   4.442   2.601 -0.5016  0.0945  0.4424
14939TIP3    H166232   2.955   4.443   2.576 -0.1143  0.1724  1.8211
14939TIP3    H266233   2.819   4.497   2.535 -0.0331 -2.0682 -1.8265
14940TIP3   OH266234   3.401   0.494   0.009  0.1494  0.0036  0.0818
14940TIP3    H166235   3.374   0.586   0.009 -2.6618 -0.6955 -2.2019
14940TIP3    H266236   3.321   0.445  -0.007  1.7123 -2.8490  0.2806
14941TIP3   OH266237   3.210   3.682   0.483  0.0523 -0.0684 -0.2915
14941TIP3    H166238   3.212   3.701   0.390 -1.4353 -0.6381 -0.4645
14941TIP3    H266239   3.122   3.648   0.499  0.8167 -1.6066  0.9952
14942TIP3   OH266240   3.309   4.409   0.393  0.2025 -0.5278 -0.1272
14942TIP3    H166241   3.301   4.483   0.452 -1.1513  1.0785 -2.1879
14942TIP3    H266242   3.403   4.390   0.390  0.5428  0.9098  0.6502
14943TIP3   OH266243   1.930   0.132  16.845 -0.1645  0.0779  0.2863
14943TIP3    H166244   1.920   0.225  16.864  0.7494  0.1331  0.5400
14943TIP3    H266245   1.960   0.128  16.754 -0.1338  0.0351  0.2977
14944TIP3   OH266246   3.414   3.120   1.682  0.2101  0.4750  0.4433
14944TIP3    H166247   3.457   3.066   1.616 -0.9412  1.4950 -1.2221
14944TIP3    H266248   3.398   3.204   1.638 -0.8461  1.1091  1.9396
14945TIP3   OH266249   5.151   0.379   1.674 -0.1736 -0.2329  0.1430
14945TIP3    H166250   5.089   0.327   1.623  1.0702 -0.2418 -1.4515
14945TIP3    H266251   5.168   0.456   1.619 -0.5303  0.9307  1.6063
14946TIP3   OH266252   5.163   5.613   1.836  0.3202 -0.3939 -0.2515
14946TIP3    H166253   5.170   5.555   1.760 -0.1141 -1.6310  0.6175
14946TIP3    H266254   5.203   5.695   1.808 -1.8267 -0.0260 -2.5794
14947TIP3   OH266255   5.479   4.668  16.573  0.4734 -0.5037  0.2375
14947TIP3    H166256   5.528   4.606  16.627  0.2754 -0.6551  0.2453
14947TIP3    H266257   5.532   4.678  16.494  0.6983 -0.3844  0.4024
14948TIP3   OH266258   3.200   5.511  13.970  0.2437 -0.2631 -0.4738
14948TIP3    H166259   3.280   5.491  14.018 -0.8267 -0.0096  1.5369
14948TIP3    H266260   3.165   5.589  14.014 -1.2270 -0.5187 -1.1200
14949TIP3   OH266261   3.132   3.707   1.169 -0.4210  0.4833 -0.7397
14949TIP3    H166262   3.065   3.746   1.225  0.2527 -0.1943  0.5958
14949TIP3    H266263   3.198   3.775   1.160  0.6951 -0.2059  1.4823
14950TIP3   OH266264   5.765   1.760  17.105 -0.3124  0.2100 -0.0076
14950TIP3    H166265   5.835   1.807  17.060 -1.8479  1.1890 -1.4849
14950TIP3    H266266   5.728   1.702  17.039  0.2992 -1.7439  1.2712
14951TIP3   OH266267   2.858   1.829  13.422  0.3461  0.3840 -0.5542
14951TIP3    H166268   2.830   1.821  13.513  0.9063  0.9861 -0.3223
14951TIP3    H266269   2.856   1.923  13.404 -0.2960  0.2308 -1.3382
14952TIP3   OH266270   2.222   4.544   5.625  0.0994 -0.2136  0.0853
14952TIP3    H166271   2.236   4.613   5.559 -1.2129  1.9340  1.9190
14952TIP3    H266272   2.291   4.559   5.690  1.0565 -1.9839 -0.4683
14953TIP3   OH266273   1.797   0.762  10.285 -0.3471 -0.0781 -0.2709
14953TIP3    H166274   1.737   0.797  10.219 -1.1723 -0.3209  0.3350
14953TIP3    H266275   1.796   0.667  10.270 -2.4134 -0.4234  1.5658
14954TIP3   OH266276   1.325   5.499  17.292 -0.0320 -0.0292 -0.2056
14954TIP3    H166277   1.421   5.495  17.284 -0.0727  0.7551 -1.3677
14954TIP3    H266278   1.304   5.591  17.278 -1.0660 -0.4393 -1.6016
14955TIP3   OH266279   2.342   3.683  15.568  0.7446  0.7296 -0.5125
14955TIP3    H166280   2.284   3.617  15.606  1.0109  0.0103 -1.3310
14955TIP3    H266281   2.371   3.645  15.485  2.1892  1.1808 -0.2424
14956TIP3   OH266282   6.209   6.106  13.796 -0.1535 -0.6503 -0.3986
14956TIP3    H166283   6.129   6.150  13.825  1.1895  1.6886  0.0588
14956TIP3    H266284   6.196   6.014  13.820 -1.9343 -0.0158  1.3521
14957TIP3   OH266285   0.930   0.450  12.538 -0.0395  0.4226  0.1027
14957TIP3    H166286   0.861   0.503  12.579  0.3676  0.4326  0.8011
14957TIP3    H266287   0.934   0.371  12.593 -0.8605 -0.5003 -1.1115
14958TIP3   OH266288   5.751   3.953   4.484 -0.0499  0.2861 -0.2561
14958TIP3    H166289   5.843   3.970   4.463  0.4785 -0.8637  0.9919
14958TIP3    H266290   5.722   4.033   4.528  1.0796 -0.1870  1.4867
14959TIP3   OH266291   0.177   0.833  16.123  0.4017  0.6716 -0.0148
14959TIP3    H166292   0.157   0.890  16.197  0.0675  0.4755  0.0507
14959TIP3    H266293   0.234   0.765  16.160  1.3652  1.3252 -0.2367
14960TIP3   OH266294   5.614   5.801  10.671 -0.4144  0.1759  0.0922
14960TIP3    H166295   5.653   5.764  10.751 -1.8364 -1.5424  0.0665
14960TIP3    H266296   5.600   5.725  10.615 -0.7769  1.1819 -1.2206
14961TIP3   OH266297   0.878   1.481   0.361 -0.2767  0.3241  0.1631
14961TIP3    H166298   0.911   1.509   0.275  0.1788  1.4842  0.6812
14961TIP3    H266299   0.934   1.407   0.385  0.0466  0.4336 -0.2382
14962TIP3   OH266300   1.395   3.986   2.033 -0.1864  0.0649  0.1298
14962TIP3    H166301   1.320   4.041   2.054  0.0562  1.1650 -1.6415
14962TIP3    H266302   1.358   3.909   1.990 -0.5496 -1.4317  2.8471
14963TIP3   OH266303   0.805   1.442  13.971 -0.4158 -0.2062  0.3645
14963TIP3    H166304   0.734   1.499  14.002 -2.1242 -2.1411  0.2205
14963TIP3    H266305   0.834   1.482  13.889 -0.7839  1.0657  0.8384
14964TIP3   OH266306   2.014   3.391  17.017  0.1283 -0.5518  0.0842
14964TIP3    H166307   1.973   3.463  16.968  1.0289 -0.7630 -1.0343
14964TIP3    H266308   1.944   3.355  17.071 -0.6006  0.4846 -0.1407
14965TIP3   OH266309   1.661   4.888  15.885  0.7695 -0.5384  0.2363
14965TIP3    H166310   1.616   4.961  15.926  0.4675 -0.8793  0.5244
14965TIP3    H266311   1.714   4.850  15.955  0.0865 -1.2567  0.3760
14966TIP3   OH266312   6.521   1.650   0.859 -0.0350 -0.0070  0.0788
14966TIP3    H166313   6.599   1.696   0.829  0.0942 -1.4750 -2.1022
14966TIP3    H266314   6.492   1.698   0.936  0.9149  2.7668 -1.1863
14967TIP3   OH266315   5.866   5.078  16.121 -0.3984 -0.0290  0.3620
14967TIP3    H166316   5.906   5.158  16.153  0.2476 -0.8633  1.7395
14967TIP3    H266317   5.930   5.043  16.059 -1.5008  1.4140 -1.7114
14968TIP3   OH266318   3.883   3.480   5.050 -0.6198  0.3982 -0.0459
14968TIP3    H166319   3.856   3.545   5.115  0.4346 -0.0157  0.8373
14968TIP3    H266320   3.867   3.396   5.093  4.0748  0.0461  1.5827
14969TIP3   OH266321   0.750   1.691   0.832  0.8442  0.1398  0.0740
14969TIP3    H166322   0.816   1.666   0.767  0.4134  0.9812 -0.7301
14969TIP3    H266323   0.776   1.779   0.859  1.3305 -0.4085  1.4935
14970TIP3   OH266324   2.619   2.254  17.006  0.2908 -0.3454  0.1427
14970TIP3    H166325   2.703   2.209  17.015  0.1321 -0.9527 -1.2125
14970TIP3    H266326   2.555   2.197  17.048  0.4807 -0.0733  0.8172
14971TIP3   OH266327   0.326   2.389   5.166 -0.1651 -0.0680 -0.6285
14971TIP3    H166328   0.237   2.395   5.131 -0.9223 -0.1229  1.1870
14971TIP3    H266329   0.319   2.424   5.254  1.2144 -1.8096  0.2239
14972TIP3   OH266330   3.512   3.655  16.282 -0.9570  0.2322 -0.3700
14972TIP3    H166331   3.534   3.693  16.197 -2.4637  1.4056 -0.2589
14972TIP3    H266332   3.425   3.689  16.303 -2.2050 -2.8301 -0.0006
14973TIP3   OH266333   0.837   1.169   1.739  0.5642 -0.1357  0.0916
14973TIP3    H166334   0.773   1.216   1.685 -0.8250 -0.7287  1.1852
14973TIP3    H266335   0.873   1.235   1.797  0.4274  0.0627 -0.0492
14974TIP3   OH266336   0.645   4.967   1.656 -0.2815 -0.0090 -0.2978
14974TIP3    H166337   0.579   4.942   1.591 -1.4629  0.3640  0.7253
14974TIP3    H266338   0.601   5.033   1.710  0.9915  0.3547  0.3196
14975TIP3   OH266339   4.348   2.385  15.380 -0.2724  0.1403  0.3824
14975TIP3    H166340   4.348   2.315  15.315  1.3306 -0.1845  0.7122
14975TIP3    H266341   4.337   2.341  15.464 -3.9059  0.6551  0.3534
14976TIP3   OH266342   1.624   5.032  16.681 -0.1272 -0.1044  0.0570
14976TIP3    H166343   1.646   4.975  16.607 -0.2175 -0.7062  0.4819
14976TIP3    H266344   1.680   5.109  16.670  2.5404 -1.7174  1.2896
14977TIP3   OH266345   5.973   0.097  14.976 -0.2569  0.2787  0.0432
14977TIP3    H166346   6.044   0.069  14.918 -0.0236 -1.3515  1.0447
14977TIP3    H266347   5.895   0.055  14.941 -0.1259 -0.6563  0.8263
14978TIP3   OH266348   1.484   6.176   1.180  0.0333 -0.4210 -0.1014
14978TIP3    H166349   1.516   6.192   1.269  0.4249 -0.8367 -0.1667
14978TIP3    H266350   1.505   6.085   1.163  0.8179 -0.0947 -0.9742
14979TIP3   OH266351   4.917   2.203   0.976 -0.1407 -0.2680  0.6134
14979TIP3    H166352   4.987   2.246   1.024  0.4486 -2.3022  1.6784
14979TIP3    H266353   4.941   2.110   0.976 -3.0820 -1.1366  1.5254
14980TIP3   OH266354   2.990   3.942  16.428 -0.1770 -0.7381  0.5293
14980TIP3    H166355   2.959   3.926  16.517  0.9120 -0.9738  0.8795
14980TIP3    H266356   3.073   3.989  16.440 -0.4386 -0.0169 -0.3801
14981TIP3   OH266357   0.374   6.183   4.169  0.1527  0.3014  0.5203
14981TIP3    H166358   0.332   6.124   4.106  2.5022 -0.4699 -0.4016
14981TIP3    H266359   0.378   6.133   4.251  1.4496 -0.5911 -0.0555
14982TIP3   OH266360   0.240   1.746  14.905 -0.4119 -0.0676 -0.1108
14982TIP3    H166361   0.177   1.706  14.965 -0.8267  2.2927  1.1226
14982TIP3    H266362   0.300   1.795  14.961  2.5811 -2.1488 -1.2466
14983TIP3   OH266363   3.877   2.916  16.700  0.0087  0.6059 -0.0491
14983TIP3    H166364   3.951   2.872  16.741 -0.3026  0.9339  0.8881
14983TIP3    H266365   3.905   2.930  16.609  0.9984  0.5075  0.2273
14984TIP3   OH266366   6.548   2.528   3.409  0.2039  0.2465 -0.9166
14984TIP3    H166367   6.576   2.479   3.331 -1.5917 -3.6437  0.5880
14984TIP3    H266368   6.562   2.466   3.482 -2.1684  2.0568  1.2550
14985TIP3   OH266369   1.275   6.624   2.461  0.7044 -0.8790  0.1884
14985TIP3    H166370   1.257   6.628   2.555  0.5930  1.3228  0.1229
14985TIP3    H266371   1.205   6.676   2.421  0.2455 -2.4783 -1.2364
14986TIP3   OH266372   3.854   6.713  16.228  0.7136  0.5811 -0.0624
14986TIP3    H166373   3.786   6.745  16.169 -1.0315 -2.0999  0.3194
14986TIP3    H266374   3.926   6.687  16.170 -0.4858 -0.8855 -0.9413
14987TIP3   OH266375   3.176   0.612  17.260  0.0021 -0.5228  0.2474
14987TIP3    H166376   3.157   0.589  17.170 -0.6945 -0.0441  0.2623
14987TIP3    H266377   3.115   0.560  17.312 -1.1359  0.8138  0.3127
14988TIP3   OH266378   6.046   5.417   0.943  0.4593 -0.3462 -0.1668
14988TIP3    H166379   6.053   5.467   1.024 -1.1733 -0.5668  0.1466
14988TIP3    H266380   6.112   5.455   0.884 -0.2111  1.6467  0.3187
14989TIP3   OH266381   0.510   2.829   2.926  0.6137  0.0957 -0.4174
14989TIP3    H166382   0.486   2.844   2.834 -0.9423  0.7179  0.0537
14989TIP3    H266383   0.474   2.905   2.972  1.4390 -0.1832  0.7096
14990TIP3   OH266384   5.709   0.708   0.135  0.5423 -0.2308 -0.3425
14990TIP3    H166385   5.770   0.766   0.090 -0.0859  0.7721  0.0496
14990TIP3    H266386   5.693   0.637   0.073 -2.1882  2.3108 -2.8812
14991TIP3   OH266387   1.961   2.062  16.476  0.8898 -0.1190 -0.3592
14991TIP3    H166388   1.929   1.996  16.415  0.1481 -1.0936  1.0435
14991TIP3    H266389   1.882   2.104  16.510  1.2171 -0.3736  0.7668
14992TIP3   OH266390   5.670   2.203  15.563 -0.1158 -0.3122  0.4808
14992TIP3    H166391   5.583   2.211  15.602 -0.7333  2.1982 -1.1849
14992TIP3    H266392   5.721   2.274  15.603  0.3109  0.0227 -0.6238
14993TIP3   OH266393   3.605   1.291  15.066 -0.1279  0.2126 -0.8215
14993TIP3    H166394   3.612   1.383  15.042 -2.3915  0.4732 -0.7705
14993TIP3    H266395   3.609   1.290  15.162  1.2922  0.0698 -0.8686
14994TIP3   OH266396   2.873   2.468  16.366  0.6362 -0.1639 -0.4076
14994TIP3    H166397   2.840   2.551  16.331  2.3414  0.2611 -1.1805
14994TIP3    H266398   2.835   2.460  16.453 -0.8169  0.6271 -0.9475
14995TIP3   OH266399   4.713   6.068  14.692 -0.3223  0.0658 -0.5087
14995TIP3    H166400   4.722   6.163  14.687 -0.8459  0.0980 -0.9224
14995TIP3    H266401   4.669   6.052  14.776 -0.4926  0.2127 -0.5681
14996TIP3   OH266402   1.396   2.743  15.852 -0.3587 -0.4295 -0.7278
14996TIP3    H166403   1.409   2.651  15.872 -1.7680 -1.1799 -2.9336
14996TIP3    H266404   1.370   2.783  15.935  0.3878 -1.9662  0.2745
14997TIP3   OH266405   1.728   3.606  11.313 -0.4211 -0.8392 -0.4107
14997TIP3    H166406   1.708   3.699  11.315 -1.5596 -1.0636 -0.6861
14997TIP3    H266407   1.698   3.573  11.398  2.0447 -0.5817  0.6253
14998TIP3   OH266408   1.389   2.234  16.981 -0.2103  0.3924  0.5013
14998TIP3    H166409   1.412   2.163  17.042  0.7321 -1.5218 -1.9195
14998TIP3    H266410   1.454   2.227  16.911 -1.2738  2.4453 -0.7735
14999TIP3   OH266411   4.465   3.653   0.215 -0.0077  0.5602  0.2721
14999TIP3    H166412   4.551   3.623   0.245  0.1277  1.3477  0.7078
14999TIP3    H266413   4.476   3.748   0.204 -0.8075  0.6582  0.2849
15000TIP3   OH266414   2.405   4.353  13.842  0.2502 -0.5024  0.5754
15000TIP3    H166415   2.440   4.280  13.892  0.4418  0.3092  1.6641
15000TIP3    H266416   2.387   4.420  13.907  2.5399  1.4376 -0.6206
15001TIP3   OH266417   6.166   6.024  16.478 -0.0648  0.4687  0.5823
15001TIP3    H166418   6.142   6.102  16.428  1.6731 -0.3519 -1.7150
15001TIP3    H266419   6.245   6.051  16.527  1.0274 -0.0103 -0.8515
15002TIP3   OH266420   2.741   4.169  12.758  0.5077  0.3126 -0.2836
15002TIP3    H166421   2.822   4.124  12.780 -0.3164 -0.5397  1.1571
15002TIP3    H266422   2.689   4.103  12.712 -0.0553  0.2856  0.3761
15003TIP3   OH266423   5.698   0.956   0.695 -0.5161  0.1230 -0.0538
15003TIP3    H166424   5.666   1.035   0.739 -1.6135  0.1409 -0.8385
15003TIP3    H266425   5.682   0.886   0.757 -0.8552  0.3283  0.0935
15004TIP3   OH266426   2.056   4.782   1.885  1.0347  0.0486 -0.1515
15004TIP3    H166427   1.973   4.831   1.879 -0.2190 -2.0649 -1.3281
15004TIP3    H266428   2.092   4.806   1.971 -0.6731  1.2246  0.2870
15005TIP3   OH266429   1.262   6.561  11.468  0.1906 -0.2188  0.6829
15005TIP3    H166430   1.345   6.514  11.455  0.8205  1.1202 -0.5024
15005TIP3    H266431   1.287   6.653  11.463 -1.3210  0.2046  0.7314
15006TIP3   OH266432   5.529   5.997   5.248  0.1017 -0.4520  0.9358
15006TIP3    H166433   5.532   6.043   5.332  1.5799  0.6342  0.3317
15006TIP3    H266434   5.438   6.004   5.220  0.3318  2.8083  0.5629
15007TIP3   OH266435   6.132   0.420  14.885  0.4609  0.2345 -0.5827
15007TIP3    H166436   6.112   0.327  14.875  0.5972  0.3392 -2.2073
15007TIP3    H266437   6.047   0.462  14.894  0.2069  0.1724 -2.3625
15008TIP3   OH266438   1.828   4.506   1.838 -0.2961 -0.3824  0.5735
15008TIP3    H166439   1.768   4.535   1.907 -0.1777 -0.3314  0.6559
15008TIP3    H266440   1.785   4.430   1.799 -1.4859  0.9715 -0.8561
15009TIP3   OH266441   3.103   0.451   0.774  0.1585  0.5144  0.1452
15009TIP3    H166442   3.146   0.375   0.812 -0.8947 -0.4791 -0.5656
15009TIP3    H266443   3.022   0.461   0.824 -1.0097 -0.5168 -1.4298
15010TIP3   OH266444   5.782   4.556   3.526 -0.4335  0.4871  0.1349
15010TIP3    H166445   5.817   4.616   3.460  0.4583 -2.2348 -2.0858
15010TIP3    H266446   5.856   4.541   3.586  0.9922 -1.8170 -1.9980
15011TIP3   OH266447   4.798   5.521   3.025 -0.1591 -0.2330  0.2458
15011TIP3    H166448   4.819   5.579   3.098 -2.2674  0.2661  0.5257
15011TIP3    H266449   4.829   5.435   3.053 -1.1487 -0.1063  1.8722
15012TIP3   OH266450   2.319   2.150   0.518  0.5194  0.5090  0.1249
15012TIP3    H166451   2.338   2.206   0.443  0.8413  1.6310  1.0102
15012TIP3    H266452   2.232   2.116   0.500  1.3680 -0.8833 -1.7084
15013TIP3   OH266453   6.437   4.899  16.386  0.2844  0.0476  0.8290
15013TIP3    H166454   6.431   4.803  16.383  0.5196 -0.0523  2.3896
15013TIP3    H266455   6.527   4.917  16.358 -0.3290 -0.0233 -1.3156
15014TIP3   OH266456   0.104   0.969   1.976  0.1209  0.5322 -0.8028
15014TIP3    H166457   0.192   0.933   1.966  0.0172  0.2468 -0.7245
15014TIP3    H266458   0.090   1.021   1.897  0.6274  1.1720 -0.4816
15015TIP3   OH266459   5.183   3.998  11.206  0.6450  0.1090 -0.3093
15015TIP3    H166460   5.234   4.064  11.159  0.3546  0.3099 -0.3445
15015TIP3    H266461   5.146   3.943  11.137  0.0271  0.5437 -0.3356
15016TIP3   OH266462   2.368   3.683   3.247 -0.1799  0.0089 -0.3911
15016TIP3    H166463   2.299   3.624   3.276  0.8087 -0.7814  0.4617
15016TIP3    H266464   2.446   3.654   3.295  0.5743  1.3489 -0.7412
15017TIP3   OH266465   1.032   6.662  15.576  0.0811 -0.2418 -0.3719
15017TIP3    H166466   1.101   6.719  15.610 -1.0392  0.0104  1.6810
15017TIP3    H266467   1.070   6.574  15.578  1.1798  0.1564 -1.7704
15018TIP3   OH266468   2.470   2.445  15.312  0.8287  0.1995 -0.1785
15018TIP3    H166469   2.448   2.465  15.221  1.0864  1.1051 -0.0478
15018TIP3    H266470   2.493   2.529  15.351 -0.4355  0.0136  1.0579
15019TIP3   OH266471   4.618   4.521   3.148 -0.6961  0.0705 -0.3254
15019TIP3    H166472   4.667   4.523   3.230  1.0003 -2.0859 -1.1734
15019TIP3    H266473   4.623   4.610   3.114 -1.9170  1.1666  2.0972
15020TIP3   OH266474   0.137   3.276   3.171 -0.1040  0.2652  0.0207
15020TIP3    H166475   0.130   3.347   3.107  1.6456  0.3923 -0.0671
15020TIP3    H266476   0.231   3.265   3.185 -0.3217 -2.0189  0.0632
15021TIP3   OH266477   1.686   2.748  10.680 -0.3800  0.2846 -0.4064
15021TIP3    H166478   1.649   2.677  10.732  1.7416 -0.8619 -0.3237
15021TIP3    H266479   1.640   2.743  10.596 -1.4292 -0.0747  0.1747
15022TIP3   OH266480   6.219   2.665  16.876 -0.7898  0.0324 -0.8938
15022TIP3    H166481   6.282   2.732  16.848 -1.4793  0.2729 -1.9090
15022TIP3    H266482   6.152   2.713  16.924 -0.4010 -0.1793 -0.1165
15023TIP3   OH266483   4.780   2.931  11.970 -0.2741  0.5669  0.4318
15023TIP3    H166484   4.864   2.958  11.932 -1.1450  0.8764 -1.3866
15023TIP3    H266485   4.793   2.940  12.065  1.6099  0.9739  0.1832
15024TIP3   OH266486   3.210   2.254   5.747  0.5858  0.0678  0.0153
15024TIP3    H166487   3.169   2.192   5.687 -0.8601  1.1651 -0.1764
15024TIP3    H266488   3.210   2.209   5.831 -1.1451  0.0418  0.0411
15025TIP3   OH266489   2.841   5.931  14.054 -0.3306  0.1996  0.1907
15025TIP3    H166490   2.768   5.921  13.993 -0.7412 -0.7377  0.8104
15025TIP3    H266491   2.829   5.860  14.117 -0.2435  1.4656  1.6988
15026TIP3   OH266492   3.158   0.315   2.738  0.2831 -0.6525  0.0800
15026TIP3    H166493   3.217   0.390   2.742  0.1231 -0.5231  0.0307
15026TIP3    H266494   3.198   0.256   2.673  0.5692 -0.7518  0.3472
15027TIP3   OH266495   3.354   0.827  17.276 -0.0999  0.0473 -0.0400
15027TIP3    H166496   3.278   0.769  17.287  0.7222 -0.8869  0.8452
15027TIP3    H266497   3.327   0.888  17.208 -1.7997 -0.0356  0.5043
15028TIP3   OH266498   3.911   6.195  15.319  0.0491  0.5555  0.3860
15028TIP3    H166499   4.006   6.201  15.331  0.2399  1.4666 -1.2197
15028TIP3    H266500   3.892   6.258  15.249 -1.3792 -1.3580 -1.0831
15029TIP3   OH266501   5.159   4.126   3.982 -0.2276  0.5195  0.3885
15029TIP3    H166502   5.220   4.169   3.921 -0.3898  0.1519 -0.0418
15029TIP3    H266503   5.216   4.075   4.040 -0.1478 -0.3720 -0.4457
15030TIP3   OH266504   0.000   1.888  14.393 -0.0051  0.2554 -0.3019
15030TIP3    H166505   0.024   1.866  14.483  1.7151 -0.9072 -0.9712
15030TIP3    H266506  -0.051   1.812  14.363  1.6185 -0.5897 -1.0552
15031TIP3   OH266507   0.620   4.636  10.871  0.1448 -0.6202  0.2238
15031TIP3    H166508   0.541   4.684  10.897 -0.3303 -2.1237  1.7183
15031TIP3    H266509   0.650   4.681  10.792 -0.0262  2.3664  1.7049
15032TIP3   OH266510   3.385   1.062   5.776  0.7229 -0.8532 -0.4951
15032TIP3    H166511   3.353   1.115   5.703 -0.6532 -1.5082 -0.3990
15032TIP3    H266512   3.310   1.008   5.801  1.5559 -1.5525  0.5779
15033TIP3   OH266513   3.220   2.309  12.171 -0.3314  0.2086 -0.4669
15033TIP3    H166514   3.277   2.297  12.247 -1.5816 -0.5369  0.3944
15033TIP3    H266515   3.255   2.385  12.126  0.3558  0.7626  0.9526
15034TIP3   OH266516   4.511   5.072   3.048 -0.5789 -0.6502  0.1365
15034TIP3    H166517   4.479   5.055   3.137 -2.3464  0.0894 -0.3165
15034TIP3    H266518   4.449   5.135   3.012  1.5190  0.9879 -0.7859
15035TIP3   OH266519   5.350   3.125  15.679 -0.5362 -0.5743 -1.0068
15035TIP3    H166520   5.258   3.102  15.664  0.0859 -2.6668 -1.8469
15035TIP3    H266521   5.391   3.044  15.706  0.8883  0.5679  0.4134
15036TIP3   OH266522   4.197   5.467  15.041  0.3082  0.0097  0.7867
15036TIP3    H166523   4.156   5.389  15.079 -0.7076 -0.0555 -0.3742
15036TIP3    H266524   4.129   5.504  14.984  1.5171  0.5105 -0.3610
15037TIP3   OH266525   6.125   6.361   5.407  0.2424  0.5906 -0.4782
15037TIP3    H166526   6.219   6.363   5.423  0.4010 -0.4995 -1.1868
15037TIP3    H266527   6.102   6.451   5.383  1.0503  0.9118 -0.0646
15038TIP3   OH266528   4.444   1.950   4.518  0.0908 -0.1310 -0.3446
15038TIP3    H166529   4.462   1.924   4.608 -2.6220  1.9869  0.9805
15038TIP3    H266530   4.521   2.002   4.493  0.3971  0.2645  1.2419
15039TIP3   OH266531   1.966   3.266   3.691  0.2676  0.1243  0.9084
15039TIP3    H166532   2.017   3.307   3.761  0.2042  0.0036  1.0254
15039TIP3    H266533   1.881   3.311   3.694  0.6378  0.9059  0.1746
15040TIP3   OH266534   1.724   4.426  16.728  0.6771 -0.4037  0.6603
15040TIP3    H166535   1.691   4.489  16.664  0.7373 -0.1011  0.9275
15040TIP3    H266536   1.646   4.389  16.768  0.6521  0.0376  1.0240
15041TIP3   OH266537   3.840   5.955   0.421  0.3892  0.3416  0.4307
15041TIP3    H166538   3.774   6.006   0.469  0.3853  0.0483  0.7425
15041TIP3    H266539   3.790   5.882   0.383  0.3954  0.5632 -0.0081
15042TIP3   OH266540   5.279   5.128   1.687 -0.4141 -0.2802 -0.2979
15042TIP3    H166541   5.259   5.094   1.600  0.0788 -1.2584 -0.0373
15042TIP3    H266542   5.371   5.153   1.682 -0.6333  0.5581 -0.3300
15043TIP3   OH266543   5.255   2.910  10.918  0.0098 -0.1774  0.0705
15043TIP3    H166544   5.266   2.993  10.872 -1.1660 -0.3131 -0.5028
15043TIP3    H266545   5.240   2.846  10.848 -1.2318 -0.4924  0.5800
15044TIP3   OH266546   4.750   3.680   0.661  0.2350  0.0708 -0.2462
15044TIP3    H166547   4.694   3.756   0.675  2.1293  1.5939 -0.5907
15044TIP3    H266548   4.699   3.607   0.696 -1.8130  1.4026 -0.2500
15045TIP3   OH266549   1.633   1.310  11.379 -0.0152 -0.3911  0.3687
15045TIP3    H166550   1.596   1.390  11.417  1.2571  0.9745 -1.1062
15045TIP3    H266551   1.694   1.278  11.445 -0.7185 -0.2909  1.0794
15046TIP3   OH266552   2.297   1.259   1.990  0.6338 -0.0378 -0.1929
15046TIP3    H166553   2.293   1.354   2.005 -0.3399 -0.3671  2.0117
15046TIP3    H266554   2.248   1.246   1.908  0.0377  1.2866 -0.0804
15047TIP3   OH266555   0.895   5.700  12.545 -0.1368 -0.2173  0.1191
15047TIP3    H166556   0.927   5.713  12.455  0.3520 -0.1550  0.2963
15047TIP3    H266557   0.942   5.622  12.576  0.4498  0.3338  0.6534
15048TIP3   OH266558   0.957   1.707  15.223  0.2839  0.1976  0.0742
15048TIP3    H166559   1.035   1.713  15.168 -0.2858 -1.7001 -1.0239
15048TIP3    H266560   0.888   1.749  15.172 -0.2674 -1.6516 -0.8008
15049TIP3   OH266561   3.225   0.052   1.960 -0.1191  0.4020 -0.1758
15049TIP3    H166562   3.242   0.004   1.879 -0.5312 -0.1347  0.0551
15049TIP3    H266563   3.131   0.071   1.957  0.0419  1.2377 -0.2862
15050TIP3   OH266564   1.137   3.919  16.375 -0.5954  0.3667 -0.4480
15050TIP3    H166565   1.116   3.913  16.468  2.3383 -1.3917  0.2250
15050TIP3    H266566   1.131   3.828  16.344  1.7930  0.3841 -1.0968
15051TIP3   OH266567   4.929   6.366  16.797  0.6501 -0.2218  0.7438
15051TIP3    H166568   4.982   6.359  16.876  0.8578 -1.4715  0.5150
15051TIP3    H266569   4.972   6.308  16.735  0.2472  0.4249 -0.1624
15052TIP3   OH266570   6.232   3.848  13.407 -0.2546 -0.0697 -0.1570
15052TIP3    H166571   6.241   3.915  13.340 -0.3762  0.9394  0.8164
15052TIP3    H266572   6.272   3.886  13.485 -0.2834 -1.1493  0.4066
15053TIP3   OH266573   2.255   3.327  14.465  0.5091  0.2290  0.1705
15053TIP3    H166574   2.275   3.361  14.378  0.1799 -0.9595 -0.3895
15053TIP3    H266575   2.269   3.402  14.524 -0.0140  1.2582 -0.9797
15054TIP3   OH266576   1.528   1.504   3.517 -0.4399  0.2046  0.0660
15054TIP3    H166577   1.516   1.568   3.587  3.2438  0.8929  0.3051
15054TIP3    H266578   1.537   1.556   3.437 -0.6030 -0.2559 -0.2604
15055TIP3   OH266579   3.895   0.102  17.455 -0.4019  0.8178 -0.5265
15055TIP3    H166580   3.864   0.119  17.366 -1.6252 -0.6732 -0.4507
15055TIP3    H266581   3.836   0.152  17.511 -0.0022  1.2950 -0.5314
15056TIP3   OH266582   2.430   2.101   3.240  0.1522  0.0997  0.3719
15056TIP3    H166583   2.356   2.061   3.193 -1.5874  2.3586  1.0408
15056TIP3    H266584   2.493   2.123   3.171 -0.6631 -0.1021 -0.4551
15057TIP3   OH266585   1.856   2.362  17.346 -0.3474 -0.3422  0.1774
15057TIP3    H166586   1.920   2.340  17.413 -0.2809 -2.3915 -0.4978
15057TIP3    H266587   1.894   2.437  17.299  1.3111 -1.1905  0.1197
15058TIP3   OH266588   4.493   4.350  15.084 -0.0233 -0.1735 -0.6309
15058TIP3    H166589   4.441   4.404  15.145 -2.3629 -1.7788 -1.0690
15058TIP3    H266590   4.557   4.411  15.047  1.1593  1.0259  2.9434
15059TIP3   OH266591   2.269   5.393  11.608 -0.1121 -0.8631  0.3003
15059TIP3    H166592   2.323   5.314  11.602  0.2008 -0.6321  0.0437
15059TIP3    H266593   2.319   5.460  11.562 -0.2615 -0.4492  0.7375
15060TIP3   OH266594   0.339   2.154  12.530 -0.5565  0.4105 -0.0264
15060TIP3    H166595   0.369   2.152  12.621  1.3774  0.3202 -0.6210
15060TIP3    H266596   0.288   2.074  12.519  1.5098 -1.0065  0.2724
15061TIP3   OH266597   5.670   5.315   1.514  0.0666 -0.5073 -0.0851
15061TIP3    H166598   5.602   5.368   1.554 -0.6430 -1.2965 -0.2223
15061TIP3    H266599   5.679   5.239   1.572  1.8962  0.2847  0.7493
15062TIP3   OH266600   0.944   0.243   1.377 -0.5091  0.3667 -0.3913
15062TIP3    H166601   0.887   0.200   1.313 -0.1923  1.5779 -1.5470
15062TIP3    H266602   0.983   0.316   1.328  0.9139  0.4326  0.7780
15063TIP3   OH266603   5.330   0.954  17.278 -0.2506 -0.3452  0.2221
15063TIP3    H166604   5.326   1.035  17.228  2.8347  0.3024  0.8286
15063TIP3    H266605   5.306   0.886  17.215 -0.4881  0.8090 -0.9831
15064TIP3   OH266606   0.447   0.462   1.897 -0.4532  0.5282 -0.1808
15064TIP3    H166607   0.454   0.540   1.841 -1.5788  1.0994  0.4299
15064TIP3    H266608   0.354   0.459   1.921 -0.2785 -0.5938  0.4037
15065TIP3   OH266609   2.864   3.885  12.362 -0.0754  1.0788  0.3976
15065TIP3    H166610   2.862   3.799  12.320 -0.4554  1.5257 -0.5410
15065TIP3    H266611   2.780   3.890  12.408 -0.4752  1.3145 -0.3382
15066TIP3   OH266612   4.861   3.023   5.876 -0.2659  0.7324 -0.4935
15066TIP3    H166613   4.903   3.055   5.956 -1.7726  1.0623  0.1869
15066TIP3    H266614   4.799   2.957   5.907  0.6218 -0.6843 -1.6053
15067TIP3   OH266615   1.318   0.132   3.679 -0.1951  0.5091 -0.6856
15067TIP3    H166616   1.355   0.050   3.647  1.6953  0.4868  1.2950
15067TIP3    H266617   1.386   0.197   3.662  1.0464  0.4578  3.1197
15068TIP3   OH266618   2.725   4.104   0.631  0.0582  0.1425  0.6717
15068TIP3    H166619   2.798   4.165   0.618  0.3157 -0.3314 -0.2083
15068TIP3    H266620   2.688   4.128   0.716  0.6600  0.9925  0.7044
15069TIP3   OH266621   1.118   4.233  12.716  0.7153 -0.2452  0.0629
15069TIP3    H166622   1.069   4.302  12.671  1.8276  1.8284  1.8315
15069TIP3    H266623   1.196   4.220  12.661  0.9439  0.6072  0.1628
15070TIP3   OH266624   2.000   6.206   4.606 -0.1461  0.8246  0.0885
15070TIP3    H166625   1.962   6.221   4.692 -1.0167 -2.8655  0.4809
15070TIP3    H266626   1.926   6.186   4.549  0.7093 -1.2091 -0.4062
15071TIP3   OH266627   0.495   3.406   4.373 -0.2935  0.3915 -0.2091
15071TIP3    H166628   0.419   3.388   4.430  0.8000  0.0558  1.2156
15071TIP3    H266629   0.530   3.489   4.405  1.3427 -0.6363  0.7951
15072TIP3   OH266630   5.859   3.823  15.509 -0.1069 -0.4957 -0.6752
15072TIP3    H166631   5.811   3.778  15.579 -0.2391 -1.4998 -1.3904
15072TIP3    H266632   5.818   3.908  15.502  0.0476 -0.2905  0.6189
15073TIP3   OH266633   4.806   0.978  15.803 -0.1526  0.6687 -0.1036
15073TIP3    H166634   4.842   0.930  15.877  0.0263 -1.2970 -1.3993
15073TIP3    H266635   4.862   1.055  15.795  0.6394  0.2375  0.9911
15074TIP3   OH266636   6.012   1.105   4.700  0.0295  0.7889 -0.4257
15074TIP3    H166637   6.011   1.015   4.733 -2.1519  1.6371  2.2137
15074TIP3    H266638   5.932   1.112   4.648  1.2930  0.6574 -2.4517
15075TIP3   OH266639   6.715   5.019   5.925 -0.3336 -0.2541 -0.2934
15075TIP3    H166640   6.643   4.999   5.985 -1.3231  0.8614 -1.0713
15075TIP3    H266641   6.787   5.045   5.983 -0.4909 -1.4560  0.4954
15076TIP3   OH266642   3.818   3.426   1.393 -0.6454 -0.1716 -0.0496
15076TIP3    H166643   3.842   3.481   1.319 -0.2163 -0.4630 -0.1352
15076TIP3    H266644   3.762   3.357   1.356  0.4764 -0.9712 -0.3237
15077TIP3   OH266645   1.749   4.320   0.509  0.2759 -0.5260  0.3354
15077TIP3    H166646   1.782   4.387   0.568  1.4140 -2.0194  1.5037
15077TIP3    H266647   1.673   4.283   0.554 -2.1346  1.7637 -1.5844
15078TIP3   OH266648   3.604   4.676  17.324 -0.3440  0.4509  0.0532
15078TIP3    H166649   3.650   4.719  17.396  0.3069  0.0092 -0.0855
15078TIP3    H266650   3.628   4.726  17.246 -1.2654  1.0920  0.1732
15079TIP3   OH266651   6.033   4.240   1.213  0.4268 -0.1736  0.2169
15079TIP3    H166652   6.071   4.183   1.145 -0.4538 -2.0660  1.2217
15079TIP3    H266653   6.109   4.274   1.260  1.0561  1.2247 -1.6900
15080TIP3   OH266654   0.570   5.529  14.183  0.7618  0.4275  0.2413
15080TIP3    H166655   0.596   5.496  14.269 -0.6785  0.7052  0.8098
15080TIP3    H266656   0.540   5.452  14.135  2.0496  0.1905 -0.2266
15081TIP3   OH266657   4.084   4.440  11.841  0.5217  0.4969 -0.0066
15081TIP3    H166658   4.109   4.495  11.916 -0.3405  0.3304  0.4215
15081TIP3    H266659   4.017   4.382  11.876  0.7764 -0.2211 -0.6867
15082TIP3   OH266660   6.304   5.551   4.222 -0.0811 -0.4090  0.0438
15082TIP3    H166661   6.290   5.624   4.282  1.5241 -1.9259  2.4209
15082TIP3    H266662   6.380   5.577   4.169 -0.9070  0.5287 -0.7264
15083TIP3   OH266663   2.575   3.398   1.622 -0.1626 -0.2472 -0.0022
15083TIP3    H166664   2.653   3.381   1.568 -1.2979  1.4527 -2.4054
15083TIP3    H266665   2.608   3.448   1.697  1.0775  0.8060 -1.1778
15084TIP3   OH266666   0.172   3.222  14.247 -0.1310  0.0294  0.1871
15084TIP3    H166667   0.264   3.201  14.264 -0.2190 -0.7885 -0.2814
15084TIP3    H266668   0.123   3.148  14.283 -0.5127 -0.1735 -0.7117
15085TIP3   OH266669   4.283   5.290   2.499 -0.0360 -0.2597  0.1264
15085TIP3    H166670   4.203   5.253   2.537  0.6003  0.0371  1.8308
15085TIP3    H266671   4.253   5.331   2.418 -1.2333 -1.9983 -0.3821
15086TIP3   OH266672   5.948   6.576   1.678 -0.1623 -0.1962  0.3198
15086TIP3    H166673   5.975   6.499   1.729 -0.9262 -0.6371  0.0816
15086TIP3    H266674   5.948   6.545   1.587  0.8548  0.4845  0.0724
15087TIP3   OH266675   6.207   5.433   5.380  0.2956 -0.3346  0.6037
15087TIP3    H166676   6.148   5.490   5.331 -0.1483 -0.9379  0.4128
15087TIP3    H266677   6.149   5.370   5.423  0.7482 -0.4218  1.1061
15088TIP3   OH266678   6.711   5.179  11.075  0.1189 -0.0297 -0.2451
15088TIP3    H166679   6.733   5.270  11.054 -0.8218  0.1120 -0.6658
15088TIP3    H266680   6.686   5.141  10.991  2.0216 -1.1433 -0.3631
15089TIP3   OH266681   1.956   5.192   0.577 -0.8309  0.0220 -0.5135
15089TIP3    H166682   1.862   5.178   0.587 -1.3825  2.2314 -1.8151
15089TIP3    H266683   1.981   5.140   0.501 -0.8298 -1.0958  0.2343
15090TIP3   OH266684   6.369   2.939  13.732  0.0832  0.7809 -0.7001
15090TIP3    H166685   6.379   2.971  13.822 -1.5908 -1.1593  0.2410
15090TIP3    H266686   6.295   2.987  13.697  0.2818  1.0207 -0.7914
15091TIP3   OH266687   6.378   2.685   2.900  0.3380  0.8526  0.4485
15091TIP3    H166688   6.343   2.707   2.986  0.6308  1.7369  0.3466
15091TIP3    H266689   6.306   2.700   2.840  0.5218  1.5050  0.3854
15092TIP3   OH266690   1.131   4.463   5.114  0.8533 -0.1868  0.3795
15092TIP3    H166691   1.178   4.469   5.030 -0.0367 -1.4904 -0.2543
15092TIP3    H266692   1.041   4.484   5.092  0.8214  0.6503  1.2691
15093TIP3   OH266693   3.264   6.594  13.462  0.0723 -0.0322  0.0167
15093TIP3    H166694   3.252   6.660  13.530  3.4613 -0.8973  1.6563
15093TIP3    H266695   3.184   6.541  13.466 -0.2876  0.5682  2.6155
15094TIP3   OH266696   5.254   0.028   0.282 -0.1790  0.1441 -0.1978
15094TIP3    H166697   5.325   0.087   0.256 -0.0541 -0.1076 -0.4300
15094TIP3    H266698   5.297  -0.041   0.333 -0.4686  0.8294  1.0145
15095TIP3   OH266699   2.227   2.772  12.452 -0.0296  0.0703  0.0941
15095TIP3    H166700   2.280   2.695  12.473 -1.3433 -0.5262  1.3005
15095TIP3    H266701   2.147   2.737  12.413  0.3505  0.9643 -1.6018
15096TIP3   OH266702   2.334   1.052   2.576 -0.0624 -0.3371 -0.0137
15096TIP3    H166703   2.312   1.079   2.665 -0.7846  0.5537 -0.4427
15096TIP3    H266704   2.305   0.961   2.570 -0.3664 -0.2787  0.5383
15097TIP3   OH266705   6.415   0.147   1.324  0.2284  0.7671  0.2850
15097TIP3    H166706   6.455   0.220   1.278 -0.4078  0.7218 -0.3651
15097TIP3    H266707   6.365   0.100   1.256  1.2734 -0.7459  0.5060
15098TIP3   OH266708   0.609   3.504  11.280 -0.4680  0.5015 -0.3650
15098TIP3    H166709   0.635   3.532  11.193 -0.4251 -1.7568 -1.1492
15098TIP3    H266710   0.671   3.547  11.339  0.3106  1.0539 -1.5458
15099TIP3   OH266711   2.582   0.203   4.528  0.4323 -0.3543  0.2682
15099TIP3    H166712   2.496   0.238   4.551 -0.0463 -0.8895 -0.6518
15099TIP3    H266713   2.629   0.200   4.611 -0.5474 -0.3465  0.8472
15100TIP3   OH266714   3.816   1.848  17.235 -0.2726 -0.5263 -0.3051
15100TIP3    H166715   3.773   1.885  17.158 -0.6804  0.6917  0.4757
15100TIP3    H266716   3.750   1.791  17.275 -0.2502 -0.7248 -0.5506
15101TIP3   OH266717   4.622   4.703   5.579  0.8806 -0.3448 -0.0140
15101TIP3    H166718   4.542   4.651   5.581  0.3201  0.4852  1.5072
15101TIP3    H266719   4.693   4.640   5.587  0.3747 -1.0748 -1.1573
15102TIP3   OH266720   6.540   0.575   3.643  0.2921 -0.5936  0.2610
15102TIP3    H166721   6.533   0.558   3.549 -0.5300 -0.4194  0.2757
15102TIP3    H266722   6.633   0.568   3.663  0.4682 -0.6419 -0.5644
15103TIP3   OH266723   2.299   1.182  12.816 -0.5766 -0.4358  0.4639
15103TIP3    H166724   2.275   1.191  12.724 -0.1598 -2.2756  0.1409
15103TIP3    H266725   2.393   1.161  12.815 -0.7199 -1.1904  1.2360
15104TIP3   OH266726   3.672   3.613   3.601 -0.3125 -0.5245  0.0659
15104TIP3    H166727   3.693   3.690   3.547 -1.5807 -0.6584 -0.6484
15104TIP3    H266728   3.691   3.641   3.690  2.0003 -0.3399 -0.4042
15105TIP3   OH266729   5.307   0.356   5.599  0.4400  0.4127 -0.1981
15105TIP3    H166730   5.302   0.277   5.654 -0.3761  0.8928  0.4443
15105TIP3    H266731   5.320   0.323   5.511  0.2977 -0.4418  0.0889
15106TIP3   OH266732   2.986   6.184   6.155  0.0482  0.1880  0.4769
15106TIP3    H166733   2.957   6.225   6.074 -0.0933  1.2519  1.0398
15106TIP3    H266734   3.059   6.239   6.185 -1.1362  0.9762  2.0452
15107TIP3   OH266735   1.132   3.037  14.699  0.6178  0.0469 -0.0471
15107TIP3    H166736   1.085   3.018  14.618  1.9258 -1.5278 -0.4935
15107TIP3    H266737   1.067   3.081  14.755 -1.5101 -2.2981 -0.4830
15108TIP3   OH266738   3.105   1.156  15.142  0.1880  0.6734 -0.2971
15108TIP3    H166739   3.170   1.201  15.196 -0.1073  2.1073 -1.0777
15108TIP3    H266740   3.114   1.197  15.056  0.7460 -1.6412 -1.4251
15109TIP3   OH266741   5.744   1.884   2.151 -0.3286 -0.8825  0.3684
15109TIP3    H166742   5.823   1.830   2.147 -0.0204 -0.3879 -0.9311
15109TIP3    H266743   5.773   1.971   2.122 -1.3242 -0.6665 -0.0189
15110TIP3   OH266744   2.215   6.436   4.255 -0.1806  0.0475  0.1628
15110TIP3    H166745   2.210   6.346   4.288 -2.0641 -0.1793 -0.6333
15110TIP3    H266746   2.124   6.467   4.254  0.1776  1.1991 -1.6628
15111TIP3   OH266747   5.341   4.969   5.345 -0.4590 -0.4879  0.4365
15111TIP3    H166748   5.274   4.904   5.368 -0.9941  0.5349  1.9485
15111TIP3    H266749   5.406   4.962   5.415 -0.3259  0.3220  0.4033
15112TIP3   OH266750   1.613   3.289  10.573  0.7997  0.5418 -0.8621
15112TIP3    H166751   1.552   3.329  10.636  0.7349  0.8283 -1.1066
15112TIP3    H266752   1.558   3.230  10.522  1.2407 -1.4936  0.8497
15113TIP3   OH266753   3.805   1.523  15.465  0.3250 -0.2713 -0.1043
15113TIP3    H166754   3.836   1.613  15.461  1.1122 -0.5190  0.2399
15113TIP3    H266755   3.711   1.529  15.447  0.3498  0.6240  0.0298
15114TIP3   OH266756   6.056   2.872  12.534  0.0014  0.3613  0.1167
15114TIP3    H166757   6.043   2.800  12.472  2.0611  0.1458 -0.1306
15114TIP3    H266758   6.015   2.948  12.492 -0.9046 -0.3351 -0.2956
15115TIP3   OH266759   3.806   2.311  12.530 -0.5096  0.0381  0.2015
15115TIP3    H166760   3.798   2.395  12.577 -0.7978  1.2782 -1.9191
15115TIP3    H266761   3.861   2.332  12.454 -0.1580 -1.8479 -0.0963
15116TIP3   OH266762   0.779   0.285   4.000  0.6271  0.2086  0.4700
15116TIP3    H166763   0.718   0.357   3.984 -0.5165 -0.2836  2.2249
15116TIP3    H266764   0.864   0.327   4.012  0.1882  1.1556  0.3398
15117TIP3   OH266765   0.206   3.750   5.358  0.1450 -0.8417 -0.1858
15117TIP3    H166766   0.121   3.756   5.314 -0.4572 -0.7917  0.9438
15117TIP3    H266767   0.211   3.828   5.413  1.5592 -0.1185 -1.2736
15118TIP3   OH266768   5.367   6.404   3.527  0.2784 -0.6354  0.5849
15118TIP3    H166769   5.285   6.363   3.501  1.7537 -1.4540 -3.4272
15118TIP3    H266770   5.367   6.489   3.483  1.8438 -0.9473 -0.0711
15119TIP3   OH266771   2.321   0.240   4.652  0.2262 -0.1820  0.3712
15119TIP3    H166772   2.294   0.240   4.744  1.2277  0.1872  0.6734
15119TIP3    H266773   2.274   0.314   4.613  0.1318 -0.0768  0.6822
15120TIP3   OH266774   2.536   0.585   1.015 -0.3015 -0.4582 -0.1448
15120TIP3    H166775   2.568   0.534   1.090 -1.5660 -0.6802  0.2664
15120TIP3    H266776   2.478   0.526   0.968 -0.3529  0.0250 -0.6991
15121TIP3   OH266777   2.985   0.646   0.587 -0.6882  0.2618 -0.7328
15121TIP3    H166778   3.059   0.699   0.617 -2.1028  0.1082  3.8076
15121TIP3    H266779   3.002   0.558   0.622 -2.6322  0.0535 -0.1644
15122TIP3   OH266780   3.790   6.176   3.489 -0.6458 -0.0867  0.1779
15122TIP3    H166781   3.793   6.132   3.573 -1.2623 -0.5521 -0.0370
15122TIP3    H266782   3.811   6.267   3.509  0.2423 -0.3964  0.6773
15123TIP3   OH266783   4.705   1.208  15.533  0.3382  0.3161  0.3489
15123TIP3    H166784   4.684   1.190  15.624  1.3865 -0.7756  0.4106
15123TIP3    H266785   4.623   1.236  15.494 -0.1490  0.6926  1.5973
15124TIP3   OH266786   6.539   2.032  11.583 -0.3509  0.2458 -0.0815
15124TIP3    H166787   6.514   1.978  11.509 -0.0246  0.1578 -0.1303
15124TIP3    H266788   6.523   1.977  11.660  0.4836 -0.1285 -0.1596
15125TIP3   OH266789   2.646   0.735  14.957  0.0601  0.0863  0.0211
15125TIP3    H166790   2.580   0.759  15.021 -0.2488 -0.9320  0.1001
15125TIP3    H266791   2.598   0.692  14.887  0.6357 -0.8421  0.1676
15126TIP3   OH266792   5.554   3.111  14.003 -0.0553  0.1544  0.5151
15126TIP3    H166793   5.585   3.186  13.952  0.6573 -0.2059  0.4041
15126TIP3    H266794   5.517   3.150  14.082  0.4915  0.6142  0.5537
15127TIP3   OH266795   1.233   1.494   2.527 -0.2178 -0.5748  0.1769
15127TIP3    H166796   1.235   1.543   2.609  0.0016  0.1315 -0.2442
15127TIP3    H266797   1.143   1.503   2.496 -0.4859 -1.4356  0.6891
15128TIP3   OH266798   1.442   1.188   1.337  0.0527 -0.0101 -0.5141
15128TIP3    H166799   1.528   1.168   1.374  0.9249  0.2846 -2.2480
15128TIP3    H266800   1.458   1.265   1.282 -1.7342  1.1969  0.5658
15129TIP3   OH266801   6.002   4.058  12.016  0.3697  0.2457  0.4493
15129TIP3    H166802   5.962   4.033  12.099  0.7267 -0.8312  0.3178
15129TIP3    H266803   5.974   3.989  11.955  1.2023  0.2874  0.0090
15130TIP3   OH266804   0.088   1.738  15.423 -0.4334 -0.6210  0.1087
15130TIP3    H166805   0.080   1.649  15.457 -1.5186 -0.9807 -0.9944
15130TIP3    H266806   0.006   1.752  15.376  0.9343 -0.1443 -2.2892
15131TIP3   OH266807   5.187   1.344  11.484 -0.1396 -0.3904  0.1618
15131TIP3    H166808   5.112   1.400  11.505 -0.0775  0.4374 -1.6642
15131TIP3    H266809   5.149   1.257  11.469 -0.6079 -0.1755  0.0933
15132TIP3   OH266810   2.244   0.057   5.143 -0.1716  0.5475  0.3040
15132TIP3    H166811   2.245   0.014   5.058 -0.5726  1.0119  0.0587
15132TIP3    H266812   2.205  -0.007   5.202  0.9272 -0.1191  0.3359
15133TIP3   OH266813   4.444   0.646  13.074  0.6362 -0.3413  0.1308
15133TIP3    H166814   4.355   0.666  13.045  1.0259  0.7304 -0.3895
15133TIP3    H266815   4.435   0.628  13.168  0.1574  2.0448  0.6219
15134TIP3   OH266816   2.944   1.478  13.600 -0.0983 -0.7858 -0.1784
15134TIP3    H166817   2.937   1.426  13.520 -1.2798 -0.3511 -0.3841
15134TIP3    H266818   2.867   1.535  13.598  0.1355 -0.3990  1.0059
15135TIP3   OH266819   5.645   2.955  16.080 -0.1467  0.7478  0.3429
15135TIP3    H166820   5.613   2.896  16.148 -0.8925  0.1258 -0.5190
15135TIP3    H266821   5.568   3.005  16.053 -0.1202  0.2126 -0.7929
15136TIP3   OH266822   5.876   4.276  14.953 -0.1659  0.1338  0.1259
15136TIP3    H166823   5.806   4.316  15.005  0.0122  0.0436  0.4304
15136TIP3    H266824   5.853   4.299  14.863 -0.4463  0.3288  0.2434
15137TIP3   OH266825   5.442   5.405  12.419  0.4431 -0.0846 -0.0080
15137TIP3    H166826   5.469   5.324  12.375  0.1764  0.2402 -0.7864
15137TIP3    H266827   5.363   5.380  12.467 -0.2401 -0.0570 -1.0832
15138TIP3   OH266828   3.677   1.577   3.084 -0.6213 -0.6200  0.5666
15138TIP3    H166829   3.661   1.507   3.147 -2.0161  0.0036  0.9276
15138TIP3    H266830   3.598   1.581   3.030  0.2040 -0.5788 -0.6977
15139TIP3   OH266831   4.875   1.541  16.960 -0.4786  0.1519 -0.2832
15139TIP3    H166832   4.883   1.591  16.879 -3.3623  0.1266 -0.6961
15139TIP3    H266833   4.847   1.605  17.026 -0.9461 -0.3274 -0.0067
15140TIP3   OH266834   6.347   4.207   3.423  0.1374  0.5207  0.1204
15140TIP3    H166835   6.419   4.200   3.486 -0.3119  1.5408  0.7762
15140TIP3    H266836   6.388   4.235   3.342  0.8081 -1.3617 -0.2432
15141TIP3   OH266837   6.101   4.884   6.789 -0.0806  0.3236 -0.5810
15141TIP3    H166838   6.040   4.816   6.819  0.1774 -1.0176 -2.8563
15141TIP3    H266839   6.187   4.841   6.790  0.5339  1.5152  0.5159
15142TIP3   OH266840   4.026   5.840   0.241  0.1966  0.6594 -0.1019
15142TIP3    H166841   3.970   5.903   0.195 -1.0240  1.4014  2.2412
15142TIP3    H266842   3.996   5.843   0.332  0.4965 -2.8829  0.2640
15143TIP3   OH266843   0.696   0.772  13.679  0.4517 -0.3268 -1.2274
15143TIP3    H166844   0.725   0.783  13.588  0.2556 -0.6015 -1.3260
15143TIP3    H266845   0.656   0.685  13.680 -0.2784  0.0012 -1.0707
15144TIP3   OH266846   1.095   1.644   0.962 -0.2531 -0.1797 -0.3226
15144TIP3    H166847   1.023   1.625   1.022  1.3198 -1.2340  1.3266
15144TIP3    H266848   1.145   1.714   1.005  0.3282 -0.2219 -0.9004
15145TIP3   OH266849   4.725   1.524  15.911  0.5274 -0.2252  0.6177
15145TIP3    H166850   4.650   1.549  15.965  0.5141 -0.5217  0.7417
15145TIP3    H266851   4.749   1.604  15.865  0.3712 -0.0322  0.8642
15146TIP3   OH266852   3.554   1.135   1.003  0.1656  0.2762  0.1921
15146TIP3    H166853   3.525   1.045   1.018 -0.4779  0.1031 -1.8152
15146TIP3    H266854   3.478   1.189   1.024  0.0948  0.2410  0.0250
15147TIP3   OH266855   5.498   6.344  12.544  0.0998 -0.0143 -0.0009
15147TIP3    H166856   5.502   6.252  12.517  0.5046 -0.4090  1.3157
15147TIP3    H266857   5.461   6.390  12.469  0.4671 -1.1603 -0.9076
15148TIP3   OH266858   2.980   1.094   0.661  0.2758  0.6385  0.5228
15148TIP3    H166859   2.907   1.036   0.681  0.1745  0.2346 -0.9197
15148TIP3    H266860   2.939   1.171   0.620  0.6103  0.5831  0.0722
15149TIP3   OH266861   3.721   2.703   2.449  0.6379  0.0011 -0.0265
15149TIP3    H166862   3.788   2.769   2.431  0.9350  0.2381  1.7589
15149TIP3    H266863   3.661   2.746   2.510  0.3011 -1.0642  0.4133
15150TIP3   OH266864   5.513   3.160   2.861  0.2802  0.6887 -0.2577
15150TIP3    H166865   5.503   3.171   2.955  0.6550  2.0764 -0.3530
15150TIP3    H266866   5.463   3.081   2.840  0.9058 -0.1459  1.2117
15151TIP3   OH266867   3.087   6.114   5.812 -0.1801  0.3261  0.0593
15151TIP3    H166868   3.073   6.203   5.779  3.4752  0.4202 -1.7279
15151TIP3    H266869   3.151   6.125   5.883  0.2902 -0.8792 -0.1651
15152TIP3   OH266870   4.494   3.567  13.340  0.1572  0.0284 -0.3498
15152TIP3    H166871   4.402   3.544  13.354 -0.4181  2.4550  0.2797
15152TIP3    H266872   4.504   3.567  13.245  0.0106 -1.8366 -0.4180
15153TIP3   OH266873   4.144   4.099  15.919  0.1942  0.6595 -0.4663
15153TIP3    H166874   4.164   4.188  15.891  0.3682  1.1544  1.1312
15153TIP3    H266875   4.077   4.069  15.857  2.1182  0.8379 -2.7400
15154TIP3   OH266876   3.244   4.211  10.674  0.2321  0.0763  0.1679
15154TIP3    H166877   3.302   4.220  10.750  0.4172  1.4172 -0.1004
15154TIP3    H266878   3.222   4.301  10.650 -2.7748 -0.3674  0.8561
15155TIP3   OH266879   4.962   3.431   0.866  0.2382 -0.1998 -0.9092
15155TIP3    H166880   4.902   3.501   0.839  0.7122  0.4436 -0.3385
15155TIP3    H266881   5.047   3.458   0.832  0.4582 -0.4090 -0.5287
15156TIP3   OH266882   4.539   1.736   2.791  0.1808 -0.2299 -1.0911
15156TIP3    H166883   4.601   1.809   2.786 -0.2674  0.2326 -0.1503
15156TIP3    H266884   4.593   1.659   2.806  0.5171  0.2370  0.1960
15157TIP3   OH266885   3.051   6.146  14.993 -0.0167 -0.7434  0.7582
15157TIP3    H166886   3.073   6.165  14.902  2.8780 -1.1537  1.2814
15157TIP3    H266887   2.977   6.086  14.989  0.7555 -1.6292 -1.3781
15158TIP3   OH266888   5.573   1.339   2.273 -0.2848  0.1028  0.1901
15158TIP3    H166889   5.562   1.245   2.258 -0.3996 -0.1107  1.5195
15158TIP3    H266890   5.647   1.363   2.218  0.0302 -0.8570  0.1727
15159TIP3   OH266891   6.249   6.351  15.428  0.1037 -0.4609  0.2894
15159TIP3    H166892   6.304   6.300  15.488  0.5070 -1.9105 -1.2533
15159TIP3    H266893   6.174   6.378  15.482 -0.3342 -3.0498  1.0903
15160TIP3   OH266894   0.308   4.275   5.108  0.0177  0.4850 -0.4351
15160TIP3    H166895   0.283   4.358   5.148 -2.1449  0.4904 -1.6418
15160TIP3    H266896   0.230   4.220   5.115  1.0406 -1.0839 -0.6386
15161TIP3   OH266897   5.446   2.446  13.606  0.1929  0.0630 -0.0504
15161TIP3    H166898   5.429   2.443  13.700  2.1933 -0.6939  0.3334
15161TIP3    H266899   5.503   2.371  13.589  0.9311  0.9292 -1.6431
15162TIP3   OH266900   0.207   5.674  17.322  0.3232 -0.0161  0.4015
15162TIP3    H166901   0.250   5.607  17.374  0.7615  0.7530  1.0433
15162TIP3    H266902   0.260   5.682  17.243 -0.6145 -1.5314 -0.4299
15163TIP3   OH266903   6.251   1.006   5.841 -1.2072 -0.0629  0.2543
15163TIP3    H166904   6.206   1.014   5.925  0.4742 -0.0741  1.1989
15163TIP3    H266905   6.342   1.030   5.860 -0.3879 -1.8092 -1.1720
15164TIP3   OH266906   6.030   0.345   3.864  0.1325 -1.1398  0.0985
15164TIP3    H166907   6.121   0.355   3.835  0.5829 -1.8773  1.1792
15164TIP3    H266908   6.016   0.418   3.924  0.8583 -2.3909  1.8726
15165TIP3   OH266909   3.746   2.510   0.986  0.3545 -0.3080 -0.5281
15165TIP3    H166910   3.742   2.496   0.891  0.8167  1.0343 -0.7594
15165TIP3    H266911   3.690   2.586   1.002  0.7279 -0.1759  0.2024
15166TIP3   OH266912   5.367   0.570  14.070 -0.6719  0.2996 -0.3244
15166TIP3    H166913   5.383   0.657  14.036 -1.5382  0.4653 -0.3464
15166TIP3    H266914   5.272   0.558  14.060 -0.7445 -0.1620  0.8116
15167TIP3   OH266915   5.796   4.339  16.002  0.1878 -0.2966 -0.0033
15167TIP3    H166916   5.795   4.246  16.026 -0.5684 -0.9852 -2.4044
15167TIP3    H266917   5.703   4.362  15.994  0.3891  0.3657 -0.4901
15168TIP3   OH266918   4.804   6.642  17.465  0.0582 -0.7064 -0.5679
15168TIP3    H166919   4.809   6.550  17.438  1.3773 -0.3106 -1.8020
15168TIP3    H266920   4.849   6.644  17.549 -1.6142 -1.4797  0.3927
15169TIP3   OH266921   6.405   5.805  13.427 -0.2693  0.1812  0.2792
15169TIP3    H166922   6.373   5.715  13.441  1.5252 -0.6570 -0.6314
15169TIP3    H266923   6.360   5.835  13.348 -1.1549  0.2337  0.7967
15170TIP3   OH266924   6.350   0.870   2.499 -0.4955  0.3495 -0.3025
15170TIP3    H166925   6.352   0.904   2.589 -0.8828  1.9471 -0.8742
15170TIP3    H266926   6.442   0.852   2.479 -0.4318 -0.2828  0.4898
15171TIP3   OH266927   5.856   6.541   4.893  0.3690  0.4506 -0.1431
15171TIP3    H166928   5.850   6.469   4.831 -0.1384 -1.7350  2.2453
15171TIP3    H266929   5.766   6.572   4.903  0.8507  3.1139 -2.8576
15172TIP3   OH266930   3.974   3.568   3.930  0.1350  0.5052 -0.0372
15172TIP3    H166931   3.879   3.566   3.935 -0.0147 -0.5487 -2.1457
15172TIP3    H266932   3.993   3.554   3.837  2.3665 -0.0874  0.4575
15173TIP3   OH266933   0.567   6.662   3.686  0.3998 -0.4969  0.0696
15173TIP3    H166934   0.565   6.682   3.779  0.8935 -0.9013  0.1695
15173TIP3    H266935   0.625   6.729   3.649 -1.5139  1.0446 -0.3071
15174TIP3   OH266936   2.408   4.693   1.951  0.0018  0.5521  0.4071
15174TIP3    H166937   2.423   4.600   1.966  1.2201  0.5930 -0.3651
15174TIP3    H266938   2.466   4.715   1.878 -1.7142  1.4996 -0.7395
15175TIP3   OH266939   1.425   4.680  11.307 -0.2518  0.2287  0.0460
15175TIP3    H166940   1.462   4.598  11.339  1.3782  0.9945  0.2843
15175TIP3    H266941   1.331   4.672  11.321 -0.1589 -1.6795 -0.1892
15176TIP3   OH266942   2.321   6.274  16.536 -0.0207  0.2507  0.1574
15176TIP3    H166943   2.379   6.298  16.608  1.0131 -0.5775 -0.3824
15176TIP3    H266944   2.261   6.209  16.575  0.7658 -0.4705  0.2010
15177TIP3   OH266945   0.342   5.991  16.283  0.2995  0.0786  0.0239
15177TIP3    H166946   0.274   6.041  16.237  0.3895 -0.9863 -1.3285
15177TIP3    H266947   0.294   5.923  16.330  0.2682  0.6847  0.8730
15178TIP3   OH266948   3.708   3.877   0.172  0.3424  0.0335  0.0351
15178TIP3    H166949   3.619   3.889   0.138  0.1032  0.8732  0.9045
15178TIP3    H266950   3.697   3.875   0.267  1.0351 -1.9162  0.1175
15179TIP3   OH266951   0.336   1.920   5.980  0.3113 -0.5242  0.0339
15179TIP3    H166952   0.407   1.908   6.043 -0.4506 -0.8709  0.8464
15179TIP3    H266953   0.319   2.014   5.980  0.7443 -0.4416 -0.1447
15180TIP3   OH266954   3.873   4.541   1.170 -0.3451  0.1474 -0.2597
15180TIP3    H166955   3.933   4.573   1.102  0.2838  1.6678  0.9536
15180TIP3    H266956   3.833   4.620   1.206 -0.8426 -0.6377  0.9897
15181TIP3   OH266957   5.275   5.306   1.160 -0.0920 -0.7753 -0.4376
15181TIP3    H166958   5.228   5.258   1.092  0.1089 -2.6157  0.6490
15181TIP3    H266959   5.319   5.377   1.113 -0.6508 -1.4609 -2.0804
15182TIP3   OH266960   4.232   0.346   3.160  0.5405 -0.3075  0.3191
15182TIP3    H166961   4.301   0.359   3.225 -2.1136 -1.3258  3.6635
15182TIP3    H266962   4.215   0.252   3.161 -0.9111 -0.0872 -0.2960
15183TIP3   OH266963   6.120   2.823   2.133 -0.0648  0.5288  0.4285
15183TIP3    H166964   6.107   2.734   2.166 -0.8053  0.5437  0.1941
15183TIP3    H266965   6.159   2.870   2.207  0.9177 -0.1347  0.3488
15184TIP3   OH266966   5.257   1.285  13.103  0.1456 -0.1393  0.8058
15184TIP3    H166967   5.199   1.279  13.179 -0.2542 -1.2899  0.4281
15184TIP3    H266968   5.324   1.349  13.128 -0.8092  0.5956  1.5651
15185TIP3   OH266969   2.196   3.340  13.549  0.7831 -0.4951 -0.1660
15185TIP3    H166970   2.200   3.255  13.504 -0.2522 -0.8816  0.4342
15185TIP3    H266971   2.204   3.405  13.479 -0.7218 -1.0851 -0.9319
15186TIP3   OH266972   2.336   4.370   4.102  0.2169 -0.6173 -0.1203
15186TIP3    H166973   2.315   4.464   4.104  2.2765 -0.1025  1.1554
15186TIP3    H266974   2.412   4.364   4.044  0.7096 -1.3344  0.5777
15187TIP3   OH266975   0.434   5.124  16.030  0.2278  0.3308 -0.5624
15187TIP3    H166976   0.485   5.195  16.070 -1.3298  0.1374  1.9841
15187TIP3    H266977   0.497   5.052  16.020  0.8186  0.5094  1.3382
15188TIP3   OH266978   2.955   3.885   1.654 -0.3618 -0.1385 -0.1124
15188TIP3    H166979   2.984   3.803   1.695 -0.5854 -0.1049  0.1163
15188TIP3    H266980   3.006   3.952   1.699 -0.3344 -0.1341 -0.1504
15189TIP3   OH266981   1.347   6.127   0.659 -1.1326  0.2029  0.0881
15189TIP3    H166982   1.334   6.035   0.681  0.0521  0.5194  2.3876
15189TIP3    H266983   1.442   6.139   0.664 -1.2821  1.5736 -0.0749
15190TIP3   OH266984   5.019   4.996   2.503  0.6596  0.2550 -0.5195
15190TIP3    H166985   5.061   4.913   2.522 -0.5753  0.0573  1.7413
15190TIP3    H266986   4.957   4.977   2.432  1.4680 -0.3704 -1.0662
15191TIP3   OH266987   4.948   5.392   5.403 -0.3002 -0.0738  0.6968
15191TIP3    H166988   4.908   5.332   5.467  1.1412 -0.6514  1.1069
15191TIP3    H266989   5.017   5.436   5.452  0.4754 -0.1252 -0.3122
15192TIP3   OH266990   5.540   0.788  16.858  0.1279 -0.0569  0.6911
15192TIP3    H166991   5.446   0.804  16.867 -0.1021 -0.7309 -0.3438
15192TIP3    H266992   5.577   0.818  16.941 -0.9437  0.5876  0.9601
15193TIP3   OH266993   0.970   1.065  16.537  0.0048  0.1169  0.3708
15193TIP3    H166994   0.972   1.063  16.633 -1.1711  1.4795  0.4520
15193TIP3    H266995   0.890   1.018  16.514  0.8287 -1.1402 -0.0160
15194TIP3   OH266996   1.769   2.696  14.080 -0.3326 -0.2585  0.4886
15194TIP3    H166997   1.805   2.618  14.122  3.5436 -0.0895 -2.0067
15194TIP3    H266998   1.786   2.684  13.986 -2.6132  2.1740 -0.3809
15195TIP3   OH266999   5.932   1.336  13.369 -0.3270 -0.3833 -0.2435
15195TIP3    H167000   6.007   1.277  13.372  0.9583  1.0052 -2.1385
15195TIP3    H267001   5.875   1.299  13.301 -1.0012 -0.9892  0.6232
15196TIP3   OH267002   1.512   3.398  12.183  0.2608  0.1525  0.4297
15196TIP3    H167003   1.477   3.317  12.148 -0.3680 -0.2382  1.8600
15196TIP3    H267004   1.560   3.371  12.262  2.2080  0.8967 -0.4316
15197TIP3   OH267005   1.026   5.857  10.337  0.0282 -0.4155  0.6482
15197TIP3    H167006   1.012   5.938  10.386  1.8584  0.1631  0.2981
15197TIP3    H267007   1.111   5.826  10.366 -0.5349 -2.1122  0.5848
15198TIP3   OH267008   5.245   0.948  14.201 -0.1202 -0.1162  0.1397
15198TIP3    H167009   5.269   1.038  14.178  0.5000 -0.1500  0.6172
15198TIP3    H267010   5.171   0.957  14.260  1.2329  0.2069  1.8732
15199TIP3   OH267011   6.646   2.533   1.207  0.2483  0.4377  0.0241
15199TIP3    H167012   6.566   2.481   1.210 -0.5754  1.7152  1.0972
15199TIP3    H267013   6.682   2.526   1.295  1.7287 -0.6851 -0.6269
15200TIP3   OH267014   6.369   0.463   0.707 -0.3390 -0.0267 -0.2027
15200TIP3    H167015   6.386   0.426   0.794 -2.6673  0.2191  0.4377
15200TIP3    H267016   6.365   0.557   0.721  0.4980  0.1201 -0.8498
15201TIP3   OH267017   2.402   2.674  14.708 -0.3310  0.0051 -0.2245
15201TIP3    H167018   2.338   2.697  14.775  0.9739 -0.5514  1.2713
15201TIP3    H267019   2.368   2.713  14.628 -0.0648  3.9818  1.4027
15202TIP3   OH267020   6.461   4.899   4.668  0.2273  0.1471 -0.1991
15202TIP3    H167021   6.399   4.921   4.599 -0.6855  0.3621  0.6660
15202TIP3    H267022   6.434   4.812   4.697  1.7787 -0.7756 -1.3646
15203TIP3   OH267023   5.586   5.625  13.440  0.0189  0.0280 -0.6737
15203TIP3    H167024   5.633   5.569  13.502 -0.0975 -0.3063 -0.8851
15203TIP3    H267025   5.633   5.708  13.443 -0.5662  0.3388  0.5784
15204TIP3   OH267026   0.754   1.881  11.121  0.1891  0.2856 -0.0254
15204TIP3    H167027   0.776   1.963  11.167 -1.7046  0.6575  0.2875
15204TIP3    H267028   0.663   1.865  11.144  0.6219 -2.1372  0.1947
15205TIP3   OH267029   2.885   4.776  11.422 -0.0850  0.4257  0.4449
15205TIP3    H167030   2.960   4.718  11.438 -0.8168 -0.5049  0.5830
15205TIP3    H267031   2.888   4.792  11.327  0.2530  0.3426  0.4377
15206TIP3   OH267032   1.310   4.865   4.352  0.5055  0.4455 -0.3412
15206TIP3    H167033   1.253   4.941   4.365 -0.3887 -0.2523 -0.0825
15206TIP3    H267034   1.368   4.865   4.428  0.3529  0.7380 -0.2243
15207TIP3   OH267035   0.494   4.907  12.731  0.1625 -0.3769 -0.0693
15207TIP3    H167036   0.416   4.960  12.747  0.9261  0.5031  1.0116
15207TIP3    H267037   0.518   4.874  12.818  2.2428  1.2512  0.0523
15208TIP3   OH267038   1.496   5.042   1.990 -0.0828  0.6630 -0.0857
15208TIP3    H167039   1.426   5.102   1.964 -2.0109  0.3524  3.6848
15208TIP3    H267040   1.450   4.965   2.023  2.1820 -0.7680 -0.0599
15209TIP3   OH267041   5.848   4.960  13.972  0.1071  0.0297  0.5285
15209TIP3    H167042   5.864   5.042  14.019  3.4196  0.5119 -1.1094
15209TIP3    H267043   5.813   4.988  13.887  0.6766 -0.2685  0.1902
15210TIP3   OH267044   2.187   1.582   0.501 -0.2957  0.3065  0.1625
15210TIP3    H167045   2.126   1.510   0.519  2.0437 -1.8984 -0.1047
15210TIP3    H267046   2.190   1.588   0.405 -0.3360  0.6458  0.1799
15211TIP3   OH267047   2.153   2.067  13.265 -0.4311  0.2844  0.2875
15211TIP3    H167048   2.131   2.006  13.336 -0.2315  0.5766  0.6061
15211TIP3    H267049   2.180   2.147  13.310  1.4054 -0.0862 -0.0511
15212TIP3   OH267050   4.739   5.198  13.250 -0.7036  0.3865 -0.0373
15212TIP3    H167051   4.689   5.263  13.201 -1.6324  0.4703  0.9754
15212TIP3    H267052   4.703   5.202  13.339  0.2754 -0.4300  0.4248
15213TIP3   OH267053   2.473   6.507  11.421  0.1795  0.1613  0.6432
15213TIP3    H167054   2.485   6.493  11.327  1.3621  0.7646  0.6920
15213TIP3    H267055   2.524   6.439  11.463 -1.6252 -1.1109  0.8842
15214TIP3   OH267056   4.239   1.238  17.590 -1.5749 -0.6086  0.0409
15214TIP3    H167057   4.311   1.178  17.608 -0.7631 -0.1631 -1.5091
15214TIP3    H267058   4.214   1.273  17.676  0.2594 -0.5643  0.5978
15215TIP3   OH267059   5.681   5.977  12.258 -0.4038  0.5359  0.9039
15215TIP3    H167060   5.728   5.984  12.341  1.0023  0.3332  0.1564
15215TIP3    H267061   5.749   5.961  12.193 -1.5526 -0.1011 -0.1901
15216TIP3   OH267062   0.448   3.613   3.976 -0.4057 -0.2085  0.5284
15216TIP3    H167063   0.523   3.572   3.934  0.0475 -0.2632  1.3592
15216TIP3    H267064   0.485   3.682   4.031 -0.9463 -0.2816  1.0043
15217TIP3   OH267065   1.675   2.505  16.231  0.0120 -0.3183 -0.2399
15217TIP3    H167066   1.690   2.529  16.323 -0.7239  1.8007 -0.6039
15217TIP3    H267067   1.585   2.472  16.229 -0.5455  1.0953 -0.3785
15218TIP3   OH267068   6.396   5.394  16.505 -0.6808 -0.4336  0.1932
15218TIP3    H167069   6.350   5.313  16.527 -0.2118 -0.8059 -0.1674
15218TIP3    H267070   6.488   5.375  16.521 -0.6049  0.1543  0.4647
15219TIP3   OH267071   4.783   3.772   6.183 -0.2803 -0.0447 -0.1333
15219TIP3    H167072   4.831   3.846   6.221  1.2937 -0.7878 -0.6017
15219TIP3    H267073   4.696   3.778   6.223 -0.3585  2.3163 -0.5089
15220TIP3   OH267074   3.137   6.593   4.356 -0.6237  0.3901 -0.5521
15220TIP3    H167075   3.044   6.583   4.379 -0.5992 -0.9929 -0.9769
15220TIP3    H267076   3.149   6.539   4.278  0.7631 -0.2624  0.0777
15221TIP3   OH267077   3.782   4.804  16.628 -0.7679 -0.5474 -0.1035
15221TIP3    H167078   3.723   4.759  16.568 -0.3973  0.9919 -1.7219
15221TIP3    H267079   3.725   4.855  16.685 -1.1975 -2.9792  1.8219
15222TIP3   OH267080   2.563   3.953   5.575  0.0547 -0.2342 -0.1175
15222TIP3    H167081   2.480   3.944   5.527  0.5279 -0.8000 -0.8464
15222TIP3    H267082   2.593   3.863   5.588 -0.0840 -0.1062  1.3073
15223TIP3   OH267083   2.980   1.995  14.161 -0.0228  0.3598 -0.3319
15223TIP3    H167084   3.017   1.937  14.228  1.0854  0.0413 -1.1960
15223TIP3    H267085   2.891   2.014  14.193  0.3321 -0.1049  1.0160
15224TIP3   OH267086   5.602   6.588  14.668  0.8203  0.1954 -0.2180
15224TIP3    H167087   5.565   6.522  14.609 -1.2558  0.6714  0.4370
15224TIP3    H267088   5.669   6.632  14.616  0.1214 -0.4217 -1.7065
15225TIP3   OH267089   3.293   6.232   5.960 -0.1730  0.0288 -0.4402
15225TIP3    H167090   3.364   6.202   6.016 -0.9858 -0.4829  0.3623
15225TIP3    H267091   3.242   6.291   6.016 -2.1208 -2.0075  0.0656
15226TIP3   OH267092   2.218   2.944  11.873  0.1644  0.1445 -0.4852
15226TIP3    H167093   2.170   3.025  11.889 -0.6486 -0.3030 -0.5844
15226TIP3    H267094   2.275   2.964  11.799  1.4940  1.2297  0.7922
15227TIP3   OH267095   6.108   4.410  13.265  0.1764 -0.2877 -0.5700
15227TIP3    H167096   6.144   4.347  13.202 -1.2941  0.9677 -2.8013
15227TIP3    H267097   6.014   4.391  13.268 -0.2751  1.5415 -1.1279
15228TIP3   OH267098   1.048   5.328  12.000 -0.3835 -0.1670  0.4284
15228TIP3    H167099   1.048   5.253  12.059  0.3663  0.3299  1.0657
15228TIP3    H267100   1.110   5.304  11.931  0.1082 -0.0013  0.8079
15229TIP3   OH267101   0.827   5.884   5.102  0.4193 -0.3121 -0.2412
15229TIP3    H167102   0.859   5.814   5.045  0.8493  1.3245 -2.1291
15229TIP3    H267103   0.902   5.943   5.112 -0.2270  0.4112  0.4474
15230TIP3   OH267104   1.844   3.307  14.574  0.3135 -0.0756  0.3184
15230TIP3    H167105   1.757   3.289  14.610 -0.8835 -0.9126 -2.6721
15230TIP3    H267106   1.886   3.221  14.568  0.7967  0.1487  0.4168
15231TIP3   OH267107   3.357   1.862   2.903  0.0226 -0.5267 -0.0156
15231TIP3    H167108   3.413   1.935   2.878 -0.1263 -0.1363  0.7525
15231TIP3    H267109   3.275   1.878   2.858  0.1801 -0.5444 -0.3159
15232TIP3   OH267110   0.933   1.325   1.405 -0.6330 -0.1478  0.0252
15232TIP3    H167111   0.907   1.407   1.447 -0.0426  0.0504  0.0065
15232TIP3    H267112   1.025   1.337   1.381 -0.6877 -0.6147 -0.4608
15233TIP3   OH267113   5.681   4.349   4.262  0.0070  0.1885  0.1140
15233TIP3    H167114   5.739   4.408   4.214 -0.0926 -0.4722 -0.8333
15233TIP3    H267115   5.593   4.378   4.238 -0.0460 -0.8233 -0.9791
15234TIP3   OH267116   1.561   2.698   4.029 -0.7572  0.2649  0.0116
15234TIP3    H167117   1.519   2.774   3.988 -0.2455  0.5543  0.0237
15234TIP3    H267118   1.507   2.623   4.001  0.5856  0.2040 -2.6657
15235TIP3   OH267119   2.805   4.325  14.564  0.1860  0.6106 -0.8606
15235TIP3    H167120   2.756   4.246  14.543 -1.0481  1.5247 -1.4939
15235TIP3    H267121   2.879   4.323  14.503  0.3830 -0.2249 -0.6180
15236TIP3   OH267122   3.095   3.947  15.706 -0.2262  0.2763  0.6485
15236TIP3    H167123   3.032   4.003  15.752 -2.4598 -2.3096  0.9500
15236TIP3    H267124   3.065   3.947  15.615  1.1964  1.3977  0.1496
15237TIP3   OH267125   5.613   6.598  16.655  0.1291  0.3145 -0.8900
15237TIP3    H167126   5.698   6.600  16.700  1.1505 -1.3191 -2.6403
15237TIP3    H267127   5.550   6.582  16.725  1.2848  1.1443  0.3941
15238TIP3   OH267128   5.714   2.014   3.024 -0.3043  0.3024 -0.7103
15238TIP3    H167129   5.648   1.983   3.086  0.6691  0.4037  0.4097
15238TIP3    H267130   5.797   1.992   3.065  0.5662  4.9453  0.6219
15239TIP3   OH267131   6.565   1.046   1.735  0.1234  0.5602 -0.3762
15239TIP3    H167132   6.513   1.092   1.669  1.5221  1.4500 -0.8916
15239TIP3    H267133   6.543   1.088   1.818  0.8858  1.7362 -0.7535
15240TIP3   OH267134   5.457   4.298   3.372  0.6053 -0.4390  0.0320
15240TIP3    H167135   5.376   4.347   3.357  1.1211  0.0071 -1.5001
15240TIP3    H267136   5.494   4.337   3.452  0.3332  0.7929 -0.4156
15241TIP3   OH267137   3.294   3.818  12.047  0.2807  0.1587  0.2054
15241TIP3    H167138   3.382   3.806  12.083  0.6300  2.7508  0.4253
15241TIP3    H267139   3.285   3.913  12.037 -2.3634 -0.0550 -0.1832
15242TIP3   OH267140   2.226   3.944   0.552  0.3445  0.0410  0.0101
15242TIP3    H167141   2.276   3.864   0.562  1.2503  0.3214 -1.8996
15242TIP3    H267142   2.136   3.919   0.576  0.6211 -1.5023 -0.4518
15243TIP3   OH267143   3.414   1.316   6.937  0.0999 -0.0692 -0.0772
15243TIP3    H167144   3.374   1.229   6.951 -1.4779  0.3796 -1.4519
15243TIP3    H267145   3.340   1.373   6.917  1.4026  0.8632 -2.6561
15244TIP3   OH267146   6.109   3.563  15.791  0.5549  0.2635  0.0211
15244TIP3    H167147   6.130   3.597  15.877  1.6660 -0.6748  0.1544
15244TIP3    H267148   6.112   3.467  15.801 -0.8611  0.1034 -0.7016
15245TIP3   OH267149   4.656   4.156  16.987  0.1434 -0.6266  0.4668
15245TIP3    H167150   4.691   4.137  17.075 -0.2241 -1.6091  0.4133
15245TIP3    H267151   4.610   4.239  16.997  0.9104 -0.2487  0.9792
15246TIP3   OH267152   3.615   3.198   6.550  0.0564 -0.2733 -0.0211
15246TIP3    H167153   3.624   3.288   6.580  0.8038 -1.0515  2.3088
15246TIP3    H267154   3.690   3.184   6.493  1.1981 -0.0341  1.3683
15247TIP3   OH267155   3.919   2.980   3.613  0.4787 -0.5854  0.1726
15247TIP3    H167156   3.846   2.919   3.605  0.1350 -0.0811 -0.6733
15247TIP3    H267157   3.951   2.968   3.702 -1.0184 -0.3895  0.7753
15248TIP3   OH267158   5.654   2.852  10.856  0.2470 -0.5833  0.6520
15248TIP3    H167159   5.750   2.852  10.860  0.2550  1.2934  1.5374
15248TIP3    H267160   5.631   2.943  10.837 -1.3351 -1.3832 -1.7933
15249TIP3   OH267161   5.919   1.478   4.502  0.1664 -0.1148 -0.0688
15249TIP3    H167162   5.834   1.461   4.541 -0.0124  1.3250  0.2119
15249TIP3    H267163   5.940   1.397   4.455 -1.2676 -0.5457 -0.0152
15250TIP3   OH267164   3.709   3.264  15.105 -0.0976  0.3746  0.3945
15250TIP3    H167165   3.709   3.316  15.186  1.7381 -1.2637  1.5307
15250TIP3    H267166   3.801   3.257  15.082 -0.6174  1.6104 -2.4690
15251TIP3   OH267167   0.756   1.768  14.743 -0.2420  0.2943  0.5540
15251TIP3    H167168   0.660   1.768  14.741 -0.2422 -0.2308 -0.0356
15251TIP3    H267169   0.780   1.855  14.775 -0.9048  1.1435 -1.1207
15252TIP3   OH267170   4.797   2.930  16.389  0.3701  0.1977 -0.5109
15252TIP3    H167171   4.739   2.986  16.440 -0.3785 -0.3012 -0.7924
15252TIP3    H267172   4.861   2.990  16.352  2.2360  0.3658  2.6403
15253TIP3   OH267173   6.539   2.035   1.211  0.7753 -0.0813  0.3199
15253TIP3    H167174   6.543   2.130   1.206 -0.2534  0.0255  1.1949
15253TIP3    H267175   6.531   2.016   1.305  3.3813 -1.1523  0.4096
15254TIP3   OH267176   1.416   2.585   0.650  0.0740  0.0826 -0.2116
15254TIP3    H167177   1.358   2.635   0.592 -2.5603 -0.8263  1.4620
15254TIP3    H267178   1.359   2.520   0.690  2.2493 -0.7469  1.7599
15255TIP3   OH267179   6.009   1.505   1.065  0.1690 -0.2813  0.1243
15255TIP3    H167180   5.976   1.585   1.106  2.7066  0.5960  0.6164
15255TIP3    H267181   5.997   1.520   0.971  1.7335  1.2810  0.1235
15256TIP3   OH267182   1.831   1.139   4.840  0.2763 -0.4746 -0.1342
15256TIP3    H167183   1.909   1.108   4.887  1.0616  1.1722 -0.2637
15256TIP3    H267184   1.865   1.203   4.778 -1.0575 -0.6972 -1.1433
15257TIP3   OH267185   1.882   5.652  14.234  0.3582  0.0762 -0.1017
15257TIP3    H167186   1.901   5.704  14.311 -0.1056  2.4685 -1.5051
15257TIP3    H267187   1.901   5.562  14.260 -1.2850  0.5585  3.2744
15258TIP3   OH267188   6.389   1.984  16.412  0.2827 -0.4007  0.3769
15258TIP3    H167189   6.479   1.991  16.380 -0.5042  0.1951 -1.8958
15258TIP3    H267190   6.381   1.894  16.444  0.6365 -1.8141 -3.0616
15259TIP3   OH267191   5.837   2.146   0.394 -0.3448  0.1951 -0.7273
15259TIP3    H167192   5.893   2.184   0.327  0.9983 -1.4811 -0.6429
15259TIP3    H267193   5.856   2.197   0.473  1.1275 -0.3438 -0.7032
15260TIP3   OH267194   1.146   4.721  12.037  0.3026  0.3022 -0.9237
15260TIP3    H167195   1.084   4.752  12.103  1.9309  0.0956  0.7810
15260TIP3    H267196   1.204   4.796  12.021  1.2529 -0.3100 -0.4603
15261TIP3   OH267197   6.325   0.573  14.387 -0.0041  0.2086  0.1307
15261TIP3    H167198   6.373   0.594  14.307  1.3134 -3.1743 -0.1499
15261TIP3    H267199   6.393   0.557  14.452 -0.9405  0.0257  1.0970
15262TIP3   OH267200   2.691   0.034   2.213 -0.0131  0.2682 -0.3415
15262TIP3    H167201   2.661   0.078   2.293 -4.1819 -3.1561  0.3426
15262TIP3    H267202   2.762  -0.022   2.242 -1.1140 -0.5255  0.9815
15263TIP3   OH267203   0.911   3.631  12.359  0.0745  0.0551  0.0033
15263TIP3    H167204   0.918   3.537  12.342  1.8396 -0.5578  3.2554
15263TIP3    H267205   1.001   3.661  12.363 -0.4472  1.7147 -0.0888
15264TIP3   OH267206   3.554   6.704  15.505  0.3277 -0.5560 -0.5876
15264TIP3    H167207   3.559   6.753  15.587 -2.1484  0.5147 -0.9803
15264TIP3    H267208   3.602   6.757  15.442 -0.6507  0.4119 -0.5545
15265TIP3   OH267209   1.999   0.875   4.940  0.2823 -0.1304 -0.1009
15265TIP3    H167210   1.905   0.861   4.951  0.4541 -1.0726  0.2542
15265TIP3    H267211   2.040   0.813   5.001  1.1485 -0.6272 -1.1616
15266TIP3   OH267212   6.459   0.875   0.150  0.6007  0.0684  0.2812
15266TIP3    H167213   6.502   0.810   0.095  0.4547 -0.4256  0.7518
15266TIP3    H267214   6.473   0.958   0.103  2.1112 -0.0612  0.4416
15267TIP3   OH267215   4.303   4.166  13.862 -0.4584  0.3652  0.3002
15267TIP3    H167216   4.286   4.124  13.946 -0.0625  0.1460  0.2743
15267TIP3    H267217   4.354   4.243  13.884  2.3942 -1.2987  0.0605
15268TIP3   OH267218   6.520   1.863  14.605 -0.3762  0.6058 -0.0601
15268TIP3    H167219   6.606   1.844  14.643  0.1289 -0.3741 -1.5664
15268TIP3    H267220   6.459   1.807  14.652  0.4732 -1.7938 -1.6546
15269TIP3   OH267221   3.395   1.094   6.142  0.2049 -0.4803 -0.2931
15269TIP3    H167222   3.412   1.125   6.231  1.8271  0.7233 -0.9853
15269TIP3    H267223   3.436   1.159   6.085 -1.4381 -0.8119 -1.9718
15270TIP3   OH267224   3.227   6.393   5.428  0.2834 -0.4238 -0.1345
15270TIP3    H167225   3.148   6.341   5.437 -0.3969  0.8769  2.6023
15270TIP3    H267226   3.298   6.333   5.452  0.1631 -1.5001 -2.2748
15271TIP3   OH267227   6.407   6.159   4.387  0.0689  0.4134 -0.2930
15271TIP3    H167228   6.490   6.195   4.416  0.4352 -0.1878 -0.5685
15271TIP3    H267229   6.431   6.085   4.331 -0.6459 -0.1550  0.1207
15272TIP3   OH267230   3.662   0.971  11.331 -0.1683  0.4626  0.3898
15272TIP3    H167231   3.614   1.033  11.385  1.5734  0.6673  1.7932
15272TIP3    H267232   3.754   0.988  11.350  0.5349  0.1824 -2.2930
15273TIP3   OH267233   0.993   4.477  13.295  0.4703 -0.1834  0.2798
15273TIP3    H167234   0.933   4.411  13.259  0.3197  0.2377 -0.2578
15273TIP3    H267235   1.073   4.429  13.315  0.4674 -0.4803 -0.3893
15274TIP3   OH267236   2.871   0.463  16.026 -0.7631  0.3470  0.5700
15274TIP3    H167237   2.778   0.455  16.006 -1.6838  2.6506  3.2079
15274TIP3    H267238   2.887   0.557  16.031  1.5260  0.0088  1.0007
15275TIP3   OH267239   2.445   5.132   5.307 -0.0602  0.0622 -0.0437
15275TIP3    H167240   2.527   5.091   5.332 -0.1330 -1.1436 -1.6034
15275TIP3    H267241   2.388   5.121   5.382  0.7681 -0.3076  0.5418
15276TIP3   OH267242   1.910   2.137  11.432  0.3874 -0.3581 -0.5045
15276TIP3    H167243   1.837   2.126  11.371 -0.3610 -1.0095  0.4850
15276TIP3    H267244   1.878   2.104  11.516  1.5534  0.0765  0.1503
15277TIP3   OH267245   1.719   6.019   1.791  0.1165 -0.2627 -0.1011
15277TIP3    H167246   1.648   6.081   1.773 -0.1473 -0.5200  0.0426
15277TIP3    H267247   1.763   6.007   1.707 -1.0666 -1.4084 -0.5848
15278TIP3   OH267248   3.321   1.298   2.385  0.1718  0.3031  0.3247
15278TIP3    H167249   3.384   1.278   2.316  0.2476  1.5675  0.0026
15278TIP3    H267250   3.244   1.245   2.363  1.1262 -1.3715  0.8048
15279TIP3   OH267251   3.454   1.145   2.936 -0.1895 -0.3040  0.3480
15279TIP3    H167252   3.419   1.070   2.985 -0.1282 -1.0209 -0.6651
15279TIP3    H267253   3.424   1.221   2.984 -1.7075 -0.9416  0.4713
15280TIP3   OH267254   2.792   6.630  17.162 -0.2346  0.2540 -0.4626
15280TIP3    H167255   2.872   6.620  17.111 -0.1229  1.9183 -0.6917
15280TIP3    H267256   2.736   6.558  17.135  0.7098 -0.2101 -1.2215
15281TIP3   OH267257   4.181   0.725   4.521  0.0065  0.2043 -0.0516
15281TIP3    H167258   4.097   0.766   4.542  0.7547  1.2934  0.9445
15281TIP3    H267259   4.158   0.635   4.497 -1.3529  0.1285  1.3506
15282TIP3   OH267260   1.695   4.360  11.822  0.0940 -0.7597  0.1196
15282TIP3    H167261   1.784   4.396  11.821 -0.1911 -0.0524 -0.6600
15282TIP3    H267262   1.648   4.416  11.884  0.4241 -1.7658  1.3278
15283TIP3   OH267263   3.918   3.315  11.243  0.4024  0.4625  0.0741
15283TIP3    H167264   3.847   3.311  11.307  0.3548  0.6904  0.0356
15283TIP3    H267265   3.880   3.279  11.163  0.3510  0.5182  0.0730
15284TIP3   OH267266   2.008   6.350   3.764 -0.2405  0.2791  0.1680
15284TIP3    H167267   2.062   6.426   3.739  0.9195 -1.0102 -1.4890
15284TIP3    H267268   1.923   6.388   3.787  0.3216  2.0860 -0.5333
15285TIP3   OH267269   4.092   3.652  14.168 -0.8209 -0.6372  1.0107
15285TIP3    H167270   4.118   3.744  14.155  2.6709 -1.4630  1.1823
15285TIP3    H267271   4.113   3.634  14.260 -1.3035 -1.6776  0.9266
15286TIP3   OH267272   4.472   2.224  16.189 -0.5667  0.0056 -0.8654
15286TIP3    H167273   4.545   2.279  16.160 -1.0715  0.7432 -0.7653
15286TIP3    H267274   4.481   2.143  16.138  0.2964  0.1034 -0.8755
15287TIP3   OH267275   4.010   5.003   2.778  0.4082 -0.4605 -0.5369
15287TIP3    H167276   4.030   4.989   2.685  0.5963 -0.4802 -0.4945
15287TIP3    H267277   3.915   4.994   2.784  0.5289 -1.9936 -0.4699
15288TIP3   OH267278   1.778   4.427  17.001  0.1360 -0.4123  0.2641
15288TIP3    H167279   1.767   4.443  16.907 -0.0818  3.9891  0.8408
15288TIP3    H267280   1.691   4.403  17.032 -0.2115 -0.0506 -0.4089
15289TIP3   OH267281   4.194   2.893   2.076  0.8498 -0.0727  0.1775
15289TIP3    H167282   4.124   2.946   2.115  1.1181  1.0399 -0.8103
15289TIP3    H267283   4.270   2.911   2.132  1.3649  1.9146 -1.0640
15290TIP3   OH267284   5.365   1.092   1.085 -0.1432  0.2277  0.1933
15290TIP3    H167285   5.346   1.163   1.023  0.9682  0.8460  0.5250
15290TIP3    H267286   5.406   1.137   1.160 -1.9124 -0.4297  1.6207
15291TIP3   OH267287   4.999   3.954  14.100 -0.0421 -0.0340  0.2606
15291TIP3    H167288   4.910   3.918  14.107 -0.0983 -0.2165 -1.1347
15291TIP3    H267289   5.020   3.948  14.007  1.8285 -0.8895  0.6912
15292TIP3   OH267290   5.765   1.458   4.102  0.1775  0.2726 -0.0171
15292TIP3    H167291   5.811   1.385   4.142 -1.5293 -0.8568  0.0177
15292TIP3    H267292   5.831   1.504   4.051  1.6941 -0.1715  1.4842
15293TIP3   OH267293   0.903   0.524  13.071  0.1063 -0.1569  0.2364
15293TIP3    H167294   0.887   0.462  13.000 -1.3023 -0.1517  0.5174
15293TIP3    H267295   0.816   0.558  13.093  0.7663  1.3783  0.5830
15294TIP3   OH267296   2.379   1.766  13.938  0.3449 -0.0651 -0.0771
15294TIP3    H167297   2.398   1.708  14.012 -0.4786  0.0216  0.2119
15294TIP3    H267298   2.461   1.813  13.922  0.6969 -0.5124  0.3946
15295TIP3   OH267299   4.627   2.963  11.679 -0.1672 -0.9730 -1.1177
15295TIP3    H167300   4.566   3.037  11.675  1.3057  0.2521 -2.6901
15295TIP3    H267301   4.575   2.890  11.710 -1.2428  1.1703  2.8017
15296TIP3   OH267302   4.743   2.414  17.261 -0.3060  0.2097  0.2997
15296TIP3    H167303   4.761   2.423  17.354  2.1269 -2.7575  0.2685
15296TIP3    H267304   4.817   2.365  17.227 -2.5399 -1.4583 -2.6255
15297TIP3   OH267305   2.235   5.859  14.961 -0.0292  0.1762 -0.1572
15297TIP3    H167306   2.275   5.941  14.933 -1.2168  1.0669  0.6388
15297TIP3    H267307   2.275   5.792  14.905  0.8520  1.3064 -0.9274
15298TIP3   OH267308   5.438   2.602   3.271  0.2312 -0.2125 -0.1312
15298TIP3    H167309   5.531   2.591   3.249  0.7658 -1.2367  2.3240
15298TIP3    H267310   5.413   2.519   3.311 -0.9215  1.0102  1.8438
15299TIP3   OH267311   2.680   2.350  10.896 -0.4932 -0.4096  0.5224
15299TIP3    H167312   2.711   2.439  10.885  0.4714 -0.4929  2.2019
15299TIP3    H267313   2.659   2.343  10.989  1.5888 -2.5490  0.9401
15300TIP3   OH267314   2.627   2.793   4.886  0.1819 -0.1759 -0.4263
15300TIP3    H167315   2.687   2.821   4.816 -1.0492  0.7881 -1.1404
15300TIP3    H267316   2.540   2.816   4.853 -0.5465 -1.0945  0.7974
15301TIP3   OH267317   0.585   2.543   2.966 -0.0713  0.4643  0.7646
15301TIP3    H167318   0.558   2.524   3.056 -1.2730 -0.6648  0.2008
15301TIP3    H267319   0.622   2.632   2.971 -1.7540  1.1576  2.0491
15302TIP3   OH267320   1.302   4.371  12.182 -0.4167 -0.3372  0.2777
15302TIP3    H167321   1.327   4.439  12.119 -1.5580 -0.9840 -0.9006
15302TIP3    H267322   1.218   4.400  12.217  0.7516  0.6288  2.4645
15303TIP3   OH267323   4.199   0.270   2.205  0.2841  0.0558  0.2443
15303TIP3    H167324   4.291   0.268   2.180  0.5276  0.0070  1.1241
15303TIP3    H267325   4.152   0.240   2.127  1.0079  0.0759 -0.2048
15304TIP3   OH267326   6.083   2.874  15.123 -0.3727  0.1255  0.2735
15304TIP3    H167327   6.031   2.830  15.056 -2.6977  1.1087  1.3563
15304TIP3    H267328   6.056   2.965  15.119 -0.0189  0.3395  2.0653
15305TIP3   OH267329   3.454   4.027   3.281  0.7172 -0.0461  0.5087
15305TIP3    H167330   3.427   4.085   3.210 -1.3220 -0.6362  0.7376
15305TIP3    H267331   3.525   3.974   3.244  0.9269  0.8972 -0.4725
15306TIP3   OH267332   2.252   2.420   2.456 -0.1874  0.1289  0.0601
15306TIP3    H167333   2.235   2.384   2.369 -2.9034  0.9416  0.1520
15306TIP3    H267334   2.205   2.362   2.515 -0.4445  0.9827  0.7061
15307TIP3   OH267335   4.784   1.057   3.746  0.3750 -0.7118 -0.3616
15307TIP3    H167336   4.771   1.102   3.829 -0.4159 -0.2083 -0.7439
15307TIP3    H267337   4.770   0.964   3.766  1.6027 -0.7642  0.3478
15308TIP3   OH267338   4.700   5.457  15.097  0.2295 -0.9123 -0.2599
15308TIP3    H167339   4.734   5.477  15.184  1.8766 -0.9909 -0.8391
15308TIP3    H267340   4.620   5.509  15.090  1.2052  0.8105  0.5030
15309TIP3   OH267341   2.274   5.726  11.383  0.0819  0.1324 -0.3439
15309TIP3    H167342   2.268   5.711  11.478  3.2951  0.8865  0.1023
15309TIP3    H267343   2.206   5.670  11.346 -1.4555 -0.0049  2.4035
15310TIP3   OH267344   4.675   0.523  13.408  0.0276  0.0750 -0.0545
15310TIP3    H167345   4.706   0.613  13.413  0.6731 -0.1358 -0.1407
15310TIP3    H267346   4.685   0.499  13.316 -0.6079  0.0732 -0.1265
15311TIP3   OH267347   0.534   3.117  14.629 -0.2642  0.2974  0.5100
15311TIP3    H167348   0.559   3.194  14.680  2.2840  0.2633 -0.5665
15311TIP3    H267349   0.512   3.051  14.696  1.5461  0.7111  1.5918
15312TIP3   OH267350   0.579   3.000   5.617  0.2256  0.6466  0.4400
15312TIP3    H167351   0.625   3.040   5.543  0.0996 -0.0827 -0.0382
15312TIP3    H267352   0.553   3.075   5.671 -2.2501  1.4976 -1.7119
15313TIP3   OH267353   3.545   3.109  16.890 -0.7278  0.0984 -0.3450
15313TIP3    H167354   3.556   3.104  16.985  0.5946  1.2175 -0.3992
15313TIP3    H267355   3.630   3.139  16.858 -0.8525 -1.1725 -1.9903
15314TIP3   OH267356   3.743   1.697  14.677  0.9829  0.3518  0.3188
15314TIP3    H167357   3.665   1.741  14.710  0.1142 -0.6658 -0.3480
15314TIP3    H267358   3.764   1.631  14.744 -1.2092 -2.2180 -1.3433
15315TIP3   OH267359   5.118   6.164   4.593  0.6561  0.0916 -0.7978
15315TIP3    H167360   5.155   6.252   4.585 -0.7870  0.7768 -0.2932
15315TIP3    H267361   5.161   6.126   4.670 -1.3346  1.8143  1.3380
15316TIP3   OH267362   3.973   1.417   1.165 -0.4814  0.5022  0.5168
15316TIP3    H167363   3.935   1.330   1.157  2.0514 -0.6019 -0.9557
15316TIP3    H267364   3.917   1.473   1.111 -2.1998 -0.1662  1.5607
15317TIP3   OH267365   4.391   5.607  14.406  0.2129 -0.6477  0.0079
15317TIP3    H167366   4.453   5.672  14.441 -0.1464  0.3326 -1.0895
15317TIP3    H267367   4.433   5.523  14.421  2.6120  0.0433 -2.1054
15318TIP3   OH267368   4.361   4.616  11.648 -0.0212  0.1185 -0.9771
15318TIP3    H167369   4.364   4.702  11.606  3.1865  0.9489  0.6786
15318TIP3    H267370   4.438   4.570  11.616  0.6390 -0.5001  1.3209
15319TIP3   OH267371   3.733   4.080  11.685  0.5337 -0.0126 -0.0160
15319TIP3    H167372   3.725   4.017  11.614 -1.9681  0.8417 -0.6029
15319TIP3    H267373   3.764   4.160  11.643 -0.5934  0.3869 -0.1269
15320TIP3   OH267374   1.034   6.626   1.425  0.7363 -0.0528  0.5805
15320TIP3    H167375   0.989   6.645   1.508  1.4319 -0.3700  1.0373
15320TIP3    H267376   1.110   6.685   1.425  1.2547 -0.7127  0.6134
15321TIP3   OH267377   0.492   1.717  13.996 -0.5629 -0.3108  0.4961
15321TIP3    H167378   0.455   1.708  13.908  1.4892  0.8764 -0.5676
15321TIP3    H267379   0.534   1.803  13.996  0.6158 -0.8307  2.1967
15322TIP3   OH267380   0.557   4.250  16.355  0.0450  0.0044 -0.2814
15322TIP3    H167381   0.496   4.282  16.421 -0.7928 -0.1709 -0.9460
15322TIP3    H267382   0.517   4.276  16.272  0.3602 -1.0013 -0.7582
15323TIP3   OH267383   3.579   2.774   4.731 -0.2821  0.3336 -0.2111
15323TIP3    H167384   3.570   2.809   4.820 -1.1429 -0.6575  0.1205
15323TIP3    H267385   3.672   2.781   4.711  0.7317 -2.9689  2.3276
15324TIP3   OH267386   2.628   0.160  14.566 -0.5718  0.7185 -0.1834
15324TIP3    H167387   2.563   0.161  14.636  0.1590  1.1282  0.5079
15324TIP3    H267388   2.704   0.116  14.604 -0.2607  0.6950 -0.8120
15325TIP3   OH267389   3.708   3.037   0.046 -0.3971 -0.5073 -0.3780
15325TIP3    H167390   3.753   3.030  -0.039  0.2997 -0.6150 -0.0098
15325TIP3    H267391   3.774   3.010   0.110  0.1040  2.3885  0.4763
15326TIP3   OH267392   0.646   1.816   3.204  0.4482 -0.1904 -0.0083
15326TIP3    H167393   0.570   1.801   3.260 -0.1441  0.5542 -0.5770
15326TIP3    H267394   0.613   1.800   3.115  0.9213  0.2603 -0.2722
15327TIP3   OH267395   2.917   3.295   2.234  0.4109 -0.7147 -0.2260
15327TIP3    H167396   3.007   3.272   2.210  0.4453 -1.2817  0.4426
15327TIP3    H267397   2.926   3.378   2.281  0.4513 -0.1434 -1.2112
15328TIP3   OH267398   0.398   2.637   1.380 -0.2477  0.2491 -0.5417
15328TIP3    H167399   0.415   2.680   1.297 -0.7615  1.4447 -0.0527
15328TIP3    H267400   0.377   2.547   1.357 -0.8808  0.6909 -1.7428
15329TIP3   OH267401   4.816   6.320   4.732  0.0598  0.3915  0.1335
15329TIP3    H167402   4.891   6.341   4.675  0.5592  2.7810  1.5580
15329TIP3    H267403   4.837   6.233   4.767  2.3121  1.0813  0.6525
15330TIP3   OH267404   2.251   4.204  13.324  0.2695  0.1439 -0.0360
15330TIP3    H167405   2.246   4.117  13.285 -2.5239 -0.2349  0.9063
15330TIP3    H267406   2.300   4.192  13.404  0.1122 -0.5306 -0.0372
15331TIP3   OH267407   0.205   5.003   5.536  0.1992 -0.2364  0.4258
15331TIP3    H167408   0.246   5.062   5.598 -0.2294 -0.3119  0.7849
15331TIP3    H267409   0.148   5.059   5.484 -1.3373 -0.5287  1.7258
15332TIP3   OH267410   1.939   1.488   5.398 -0.4156  0.2058 -0.2510
15332TIP3    H167411   1.897   1.430   5.335  1.2856 -1.6300  0.1770
15332TIP3    H267412   1.980   1.429   5.461  0.6683  1.9069  0.7281
15333TIP3   OH267413   5.623   5.702   5.560  0.0972 -0.0885 -0.2654
15333TIP3    H167414   5.653   5.770   5.499  2.2942 -1.3263 -0.6724
15333TIP3    H267415   5.619   5.745   5.645 -2.1855  1.4555 -1.0753
15334TIP3   OH267416   2.189   5.412  12.940 -0.9017  0.0052 -0.0727
15334TIP3    H167417   2.146   5.394  12.856 -1.8975  0.0616  0.4168
15334TIP3    H267418   2.119   5.409  13.005 -0.3532  1.1194  0.6179
15335TIP3   OH267419   0.313   6.223  13.088  0.0462  0.4566 -0.0985
15335TIP3    H167420   0.293   6.131  13.073 -2.5247  0.7882  0.6762
15335TIP3    H267421   0.267   6.269  13.017  0.6655  1.1940 -0.0358
15336TIP3   OH267422   5.485   6.500  10.880 -0.1601 -0.0503  0.2783
15336TIP3    H167423   5.474   6.419  10.830 -3.5055  0.9614 -0.9599
15336TIP3    H267424   5.518   6.471  10.965 -1.3715 -2.7694 -0.0494
15337TIP3   OH267425   1.551   5.889   1.155  0.0143  0.2295 -0.0162
15337TIP3    H167426   1.618   5.869   1.220  0.5090 -0.8407 -0.8230
15337TIP3    H267427   1.495   5.812   1.153  0.2772  0.0447 -1.1664
15338TIP3   OH267428   2.046   1.687  13.256 -0.5203 -0.1175 -0.1664
15338TIP3    H167429   1.985   1.682  13.182 -1.5768  2.1548  0.4518
15338TIP3    H267430   1.993   1.669  13.333 -0.4062  1.5385  0.3522
15339TIP3   OH267431   4.751   6.580   0.737 -0.4473  0.1627  0.1022
15339TIP3    H167432   4.790   6.493   0.725  0.1797  0.0359  2.4579
15339TIP3    H267433   4.826   6.640   0.732 -0.5937  0.3673  0.3718
15340TIP3   OH267434   0.224   6.402  14.556  0.2816  0.9023 -0.0519
15340TIP3    H167435   0.217   6.374  14.465  1.1432  1.9659 -0.4613
15340TIP3    H267436   0.174   6.336  14.605 -0.8345  0.7434 -1.3557
15341TIP3   OH267437   1.522   4.096  13.454  0.1182 -0.1005  0.0984
15341TIP3    H167438   1.435   4.059  13.435 -0.3767  1.0274  0.1117
15341TIP3    H267439   1.572   4.022  13.489 -0.5627 -0.9737 -0.7124
15342TIP3   OH267440   4.764   6.541  14.382 -0.3544  0.1123 -0.3889
15342TIP3    H167441   4.824   6.486  14.432 -0.6230 -0.8549 -1.0945
15342TIP3    H267442   4.691   6.483  14.361 -1.5884  1.2848  0.5108
15343TIP3   OH267443   1.909   3.077  15.291 -0.0558 -0.0284  0.7545
15343TIP3    H167444   2.001   3.094  15.311 -0.1221 -0.0866  1.1186
15343TIP3    H267445   1.911   3.021  15.213  0.2368 -0.5232  1.1138
15344TIP3   OH267446   1.299   0.617  11.915  0.1694  0.0154 -0.4021
15344TIP3    H167447   1.339   0.594  11.831 -0.2895 -2.8389  0.0641
15344TIP3    H267448   1.354   0.575  11.981  0.6258  2.3546  0.8161
15345TIP3   OH267449   5.708   1.648   2.685 -0.2532 -0.1000  0.3019
15345TIP3    H167450   5.797   1.642   2.721 -0.4893  0.3817  0.9651
15345TIP3    H267451   5.722   1.679   2.595  0.2086  0.6220  0.6181
15346TIP3   OH267452   0.015   5.135  15.512 -0.4792 -0.1264 -0.2524
15346TIP3    H167453  -0.034   5.209  15.477  1.2775  1.0560 -0.3348
15346TIP3    H267454   0.061   5.099  15.436 -1.5076 -1.5180 -0.2690
15347TIP3   OH267455   2.991   6.522  13.101  0.0269  0.0057 -0.3567
15347TIP3    H167456   3.003   6.496  13.193  0.6467 -0.2939 -0.5211
15347TIP3    H267457   3.074   6.501  13.059 -0.2741  0.0975 -1.0031
15348TIP3   OH267458   4.840   5.162   2.025 -0.2713 -0.0520  0.2641
15348TIP3    H167459   4.927   5.188   1.994 -0.0541 -2.0668 -0.9498
15348TIP3    H267460   4.853   5.139   2.117  0.4323 -0.1569  0.1405
15349TIP3   OH267461   3.005   1.189   1.348  0.2712  0.1702  0.2567
15349TIP3    H167462   2.996   1.278   1.382  0.1866 -0.2628  1.4174
15349TIP3    H267463   3.086   1.157   1.388 -0.7803 -0.9870  1.5367
15350TIP3   OH267464   6.373   2.207  12.974 -0.1927  0.2015 -0.7123
15350TIP3    H167465   6.414   2.168  13.051  2.0516  0.0623 -1.8762
15350TIP3    H267466   6.279   2.201  12.990  0.1991 -0.7016  1.5519
15351TIP3   OH267467   6.095   2.389  12.633 -0.2715  0.2820  0.4648
15351TIP3    H167468   6.037   2.465  12.639 -0.3257  0.2853 -0.0389
15351TIP3    H267469   6.172   2.413  12.683  0.7024  1.5892 -1.5289
15352TIP3   OH267470   4.302   4.670  15.466 -0.4672  0.6382  0.7738
15352TIP3    H167471   4.347   4.683  15.550  0.0109  0.2334  0.5894
15352TIP3    H267472   4.249   4.591  15.480 -1.0355  1.0518  0.9550
15353TIP3   OH267473   2.715   3.664   6.325  0.2625  0.0024 -0.0698
15353TIP3    H167474   2.766   3.585   6.306  0.2806  0.2973 -1.2967
15353TIP3    H267475   2.748   3.729   6.263  0.2878  1.0082  0.9639
15354TIP3   OH267476   6.438   0.816  12.836  0.2607  0.3618 -0.1415
15354TIP3    H167477   6.447   0.729  12.874  0.7189  0.5213  0.1132
15354TIP3    H267478   6.397   0.801  12.750 -0.3032 -0.0366  0.1945
15355TIP3   OH267479   1.506   0.858   4.544  0.5177 -0.0944 -0.7627
15355TIP3    H167480   1.507   0.949   4.513 -1.1509  0.2717  0.1545
15355TIP3    H267481   1.415   0.830   4.533  1.0595 -1.7396 -1.2229
15356TIP3   OH267482   2.103   5.203  11.302 -0.7245  0.3028 -0.1480
15356TIP3    H167483   2.123   5.115  11.332 -0.1026  0.2591 -0.6670
15356TIP3    H267484   2.175   5.225  11.243  0.4290  2.0848  1.7953
15357TIP3   OH267485   5.438   1.933   3.593  0.0327 -0.2948 -0.6097
15357TIP3    H167486   5.471   1.862   3.538  1.3823 -1.2104  1.2578
15357TIP3    H267487   5.370   1.892   3.646  2.3330 -0.9719  2.0954
15358TIP3   OH267488   1.438   0.383   0.724 -0.3954  0.1250 -0.4130
15358TIP3    H167489   1.493   0.459   0.705  0.1040 -0.3991 -1.1136
15358TIP3    H267490   1.499   0.314   0.749 -0.5172 -1.0050 -2.9368
15359TIP3   OH267491   1.852   5.656   0.398  0.1508  0.3028  0.0553
15359TIP3    H167492   1.807   5.740   0.394  1.9769  1.2934 -2.5182
15359TIP3    H267493   1.796   5.596   0.348 -1.1117 -0.0528  1.8234
15360TIP3   OH267494   3.336   1.257   1.144  0.3215  0.2331 -0.3385
15360TIP3    H167495   3.267   1.318   1.120 -1.2851 -1.2284  0.2801
15360TIP3    H267496   3.308   1.173   1.106  1.7688 -0.3872 -0.0905
15361TIP3   OH267497   3.037   5.765   5.155  0.6571 -0.4857  0.0736
15361TIP3    H167498   3.110   5.791   5.211  1.2580  2.6458 -1.8814
15361TIP3    H267499   2.962   5.812   5.192  0.4785 -0.6084 -0.1341
15362TIP3   OH267500   4.491   0.305  12.289 -0.3275 -0.0803 -0.3640
15362TIP3    H167501   4.438   0.263  12.220  1.2180  0.7299 -2.1211
15362TIP3    H267502   4.556   0.356  12.242  0.5412  0.8743  1.7400
15363TIP3   OH267503   6.206   3.642  13.630  0.4381  0.0545 -0.1319
15363TIP3    H167504   6.243   3.686  13.554  0.2490 -1.6431 -1.2803
15363TIP3    H267505   6.267   3.661  13.702  3.0117 -1.6861 -1.6670
15364TIP3   OH267506   3.454   3.827   0.855 -0.3232  0.2609  0.1750
15364TIP3    H167507   3.389   3.811   0.922 -0.9850  0.7060 -0.3480
15364TIP3    H267508   3.524   3.874   0.900  0.9367 -2.5540  1.3751
15365TIP3   OH267509   5.753   2.094   5.205 -0.2497 -0.2351  0.2992
15365TIP3    H167510   5.741   2.018   5.149 -1.1173  0.1401 -0.0285
15365TIP3    H267511   5.733   2.062   5.293 -1.1596 -0.2495  0.0905
15366TIP3   OH267512   6.205   4.765   3.256 -0.1273  0.3699  0.0185
15366TIP3    H167513   6.223   4.808   3.172  1.5135  2.3574  1.2966
15366TIP3    H267514   6.289   4.762   3.300 -1.1417  0.4225  2.0670
15367TIP3   OH267515   1.109   0.272   3.524  0.0984 -0.1384  0.3424
15367TIP3    H167516   1.192   0.225   3.529  0.2729  0.1299  0.0419
15367TIP3    H267517   1.091   0.299   3.615  0.8163  0.6065  0.2768
15368TIP3   OH267518   3.278   6.470   2.210  0.6028  0.7220 -0.4354
15368TIP3    H167519   3.356   6.502   2.255  1.0538 -1.3119  0.3587
15368TIP3    H267520   3.206   6.519   2.248  1.4541  2.6252 -1.1613
15369TIP3   OH267521   5.828   1.222  13.704  0.4776 -0.1911 -0.0104
15369TIP3    H167522   5.841   1.245  13.796  0.2655 -2.4114  0.6366
15369TIP3    H267523   5.821   1.306  13.659 -0.2225  0.9598  2.1147
15370TIP3   OH267524   4.959   5.851   4.011  0.0858  0.1210 -0.0879
15370TIP3    H167525   5.045   5.881   3.981 -0.0603 -1.4203 -2.2434
15370TIP3    H267526   4.910   5.932   4.028  1.5848  1.0162  0.0914
15371TIP3   OH267527   4.988   5.267  12.018  0.1828  0.2266  0.1363
15371TIP3    H167528   4.998   5.223  11.934 -1.1431  1.9308 -0.9981
15371TIP3    H267529   4.908   5.230  12.056 -0.0788  0.5516 -0.0935
15372TIP3   OH267530   1.753   1.261  16.686  0.4594 -0.2754 -0.6051
15372TIP3    H167531   1.736   1.227  16.773 -0.4839  0.1673 -0.6060
15372TIP3    H267532   1.792   1.347  16.701  0.6250 -0.3480 -0.6189
15373TIP3   OH267533   2.511   1.996   2.098  0.0935  0.4653 -0.4853
15373TIP3    H167534   2.591   2.015   2.148 -0.6348  0.8114  0.5608
15373TIP3    H267535   2.439   2.019   2.157 -0.7999 -0.8539 -1.0292
15374TIP3   OH267536   6.184   3.569   1.303 -0.1793 -0.2681 -0.0043
15374TIP3    H167537   6.156   3.631   1.371  5.3733  2.7581  0.0936
15374TIP3    H267538   6.179   3.483   1.344 -1.8260  0.8316  2.3146
15375TIP3   OH267539   2.145   2.049  11.785 -0.7689  0.0934 -0.0842
15375TIP3    H167540   2.222   2.095  11.753 -0.2834  1.2636  2.5379
15375TIP3    H267541   2.072   2.089  11.738  0.0560  0.1594 -1.3461
15376TIP3   OH267542   3.941   6.701   3.767  0.2618 -0.4801 -0.0062
15376TIP3    H167543   3.929   6.794   3.748  2.9121 -0.7025 -3.7220
15376TIP3    H267544   3.970   6.699   3.859 -0.5366  2.2324  0.3856
15377TIP3   OH267545   5.304   3.761  16.164 -0.6748  0.3548 -0.2722
15377TIP3    H167546   5.261   3.751  16.079  0.0439  1.8451 -0.8467
15377TIP3    H267547   5.270   3.844  16.198 -1.1691 -0.3579  1.0454
15378TIP3   OH267548   5.391   3.784  11.527  0.0907 -0.0994  0.1614
15378TIP3    H167549   5.448   3.779  11.450  0.3509 -1.5531  0.4051
15378TIP3    H267550   5.336   3.860  11.512 -1.4353 -1.5978 -2.5815
15379TIP3   OH267551   3.574   2.702   6.107  0.1908 -0.0912 -0.4535
15379TIP3    H167552   3.533   2.648   6.175 -1.2425  0.6501 -0.6872
15379TIP3    H267553   3.634   2.760   6.155  1.0362 -1.2218 -0.1050
15380TIP3   OH267554   6.580   0.013  16.863 -0.2364  0.5947 -0.1487
15380TIP3    H167555   6.577  -0.081  16.847 -2.1763  0.7860 -1.1718
15380TIP3    H267556   6.512   0.050  16.806  0.6336  2.6521  0.0457
15381TIP3   OH267557   1.007   4.059  13.558  0.1954 -0.0587 -0.1603
15381TIP3    H167558   0.994   3.972  13.596 -2.7747 -0.2492 -1.3143
15381TIP3    H267559   0.954   4.117  13.612  0.1845  0.6001 -0.8542
15382TIP3   OH267560   6.192   2.213   1.754  0.9410  0.4310  0.3506
15382TIP3    H167561   6.101   2.220   1.725  0.9727 -1.1649 -0.2153
15382TIP3    H267562   6.190   2.234   1.847  0.1813  1.4736  0.1206
15383TIP3   OH267563   2.810   1.481   2.647 -0.0713 -0.4306  0.1559
15383TIP3    H167564   2.866   1.435   2.709  0.6442  0.3833  0.1299
15383TIP3    H267565   2.729   1.498   2.695  0.1951 -0.4653  0.6121
15384TIP3   OH267566   2.939   2.611   4.852 -0.0559 -0.1382  0.3595
15384TIP3    H167567   2.891   2.675   4.801 -0.3796 -0.4235  0.3043
15384TIP3    H267568   2.959   2.540   4.791  1.1352  0.3294  0.1765
15385TIP3   OH267569   2.518   5.917   6.284 -0.7444 -0.0218  0.3829
15385TIP3    H167570   2.593   5.965   6.250 -1.4470  1.0758  0.3149
15385TIP3    H267571   2.528   5.828   6.250 -1.0200  0.8352 -2.1514
15386TIP3   OH267572   5.588   6.467   2.539 -0.0087  0.2907 -0.3002
15386TIP3    H167573   5.656   6.483   2.474  0.1727 -0.6521 -0.3660
15386TIP3    H267574   5.625   6.500   2.621 -1.1513  3.6687 -0.9883
15387TIP3   OH267575   0.705   1.624  16.021 -0.3916  0.3611 -0.4055
15387TIP3    H167576   0.655   1.648  15.943 -0.1301 -1.7908 -1.3089
15387TIP3    H267577   0.674   1.536  16.044  2.2236 -0.6495 -0.4067
15388TIP3   OH267578   2.017   1.941  16.125 -0.2567 -0.3237 -1.0223
15388TIP3    H167579   1.934   1.922  16.168  0.8761 -0.5195  1.2856
15388TIP3    H267580   2.039   2.030  16.153  0.3157 -0.2868 -1.5631
15389TIP3   OH267581   2.936   0.372  14.780 -0.4192  0.0679  0.4578
15389TIP3    H167582   2.850   0.389  14.819 -0.9578  1.9078 -1.3590
15389TIP3    H267583   2.952   0.279  14.796 -2.7478 -0.3123  0.8463
15390TIP3   OH267584   2.797   2.147  17.409 -0.0526  0.3735 -0.2336
15390TIP3    H167585   2.778   2.212  17.342 -1.3797 -0.5726 -0.8021
15390TIP3    H267586   2.815   2.199  17.488  0.3059  1.4549 -1.0077
15391TIP3   OH267587   2.879   2.001   3.866 -0.2618 -0.5186  0.0013
15391TIP3    H167588   2.831   2.006   3.783  0.6524 -0.2401 -0.5268
15391TIP3    H267589   2.940   1.929   3.855  1.1733  0.6835 -0.3092
15392TIP3   OH267590   6.627   5.669   0.798 -0.0309 -0.3949 -0.0272
15392TIP3    H167591   6.653   5.580   0.823  0.6010 -0.4523 -0.8700
15392TIP3    H267592   6.601   5.710   0.881 -2.2850 -1.9831  0.1525
15393TIP3   OH267593   4.396   3.768  12.483 -0.1428 -0.3275  0.0582
15393TIP3    H167594   4.361   3.744  12.568 -0.3077 -0.7621 -0.1260
15393TIP3    H267595   4.319   3.781  12.427 -0.0304 -1.4221 -0.3809
15394TIP3   OH267596   5.755   2.401   1.357 -0.4280  0.2642 -0.1243
15394TIP3    H167597   5.675   2.453   1.368  1.4295  2.9994  1.4644
15394TIP3    H267598   5.793   2.395   1.444  1.4004 -0.5355 -0.9107
15395TIP3   OH267599   4.777   0.474   5.418  0.0989  0.1807 -0.2473
15395TIP3    H167600   4.849   0.439   5.471 -0.8823 -2.4674 -0.5051
15395TIP3    H267601   4.699   0.459   5.472 -0.7374 -1.1641 -1.7287
15396TIP3   OH267602   6.620   5.020  11.555 -0.4695 -0.2835 -0.0155
15396TIP3    H167603   6.673   4.951  11.514  0.2677  0.8985 -1.1277
15396TIP3    H267604   6.680   5.094  11.564 -1.8275  0.9937 -1.0308
15397TIP3   OH267605   2.779   3.722   3.061  0.0701  0.0584 -0.7667
15397TIP3    H167606   2.744   3.711   2.972  0.6242 -0.0074 -0.9817
15397TIP3    H267607   2.769   3.636   3.101 -1.3203  0.4057 -0.3408
15398TIP3   OH267608   6.211   0.742  12.181 -0.2450  0.0905 -0.3145
15398TIP3    H167609   6.217   0.721  12.088 -0.9071 -0.8442 -0.1585
15398TIP3    H267610   6.139   0.805  12.186  0.7772  1.3158 -0.6023
15399TIP3   OH267611   4.835   0.518  12.937  0.3937 -0.5091  0.1813
15399TIP3    H167612   4.866   0.544  13.023 -0.6981  1.4502  0.0421
15399TIP3    H267613   4.770   0.450  12.953  0.8167 -0.7632  0.8307
15400TIP3   OH267614   5.592   2.357   4.189  0.2253  0.3369 -0.4147
15400TIP3    H167615   5.655   2.289   4.163  1.6579  1.0057  1.0853
15400TIP3    H267616   5.506   2.316   4.178  0.9189 -0.7974 -2.0431
15401TIP3   OH267617   4.701   2.867  15.220  0.3969  0.2805  0.5202
15401TIP3    H167618   4.621   2.918  15.233 -0.6684 -0.5362 -2.1346
15401TIP3    H267619   4.769   2.933  15.205 -0.5054  0.9988 -0.6090
15402TIP3   OH267620   3.557   4.399  12.834 -0.0307 -0.4165 -0.1302
15402TIP3    H167621   3.581   4.491  12.828 -1.3717 -0.0172  0.2360
15402TIP3    H267622   3.564   4.367  12.744  0.4659  0.0284 -0.2586
15403TIP3   OH267623   0.780   3.243   2.195 -0.0892  0.4172 -0.2250
15403TIP3    H167624   0.825   3.248   2.110 -0.3509  2.3306 -0.2912
15403TIP3    H267625   0.692   3.275   2.177 -0.3602  0.1855  0.6589
15404TIP3   OH267626   4.119   4.772   0.450 -0.2249  0.1431 -0.0855
15404TIP3    H167627   4.098   4.696   0.395  0.8081 -0.6145  0.5542
15404TIP3    H267628   4.037   4.792   0.495 -0.8238  0.1634 -1.1527
15405TIP3   OH267629   2.422   6.385  16.789 -0.1714 -0.3110  0.0311
15405TIP3    H167630   2.385   6.414  16.872  1.0461  0.7016  0.2415
15405TIP3    H267631   2.503   6.436  16.779 -0.7054  0.2075 -2.1789
15406TIP3   OH267632   4.162   1.585  12.485  0.1338  0.3022 -0.3853
15406TIP3    H167633   4.108   1.594  12.564 -0.5881 -0.7171 -0.7383
15406TIP3    H267634   4.244   1.629  12.507 -0.2032  0.3775  0.7931
15407TIP3   OH267635   1.875   3.522   1.446  0.3925  0.4074  0.0918
15407TIP3    H167636   1.936   3.565   1.505  0.9408 -0.2516  0.0172
15407TIP3    H267637   1.854   3.439   1.489 -0.9484  0.8871  0.4203
15408TIP3   OH267638   0.321   2.374   1.438  0.5091 -0.4493  0.5680
15408TIP3    H167639   0.315   2.283   1.411  0.0507 -0.8324  1.9060
15408TIP3    H267640   0.398   2.378   1.494 -0.5898 -0.4672  2.1333
15409TIP3   OH267641   4.252   1.681  14.574 -0.3188  0.5682  0.9117
15409TIP3    H167642   4.215   1.698  14.488 -0.7638 -1.0479  0.7623
15409TIP3    H267643   4.326   1.742  14.580  1.2154 -0.8732 -1.6084
15410TIP3   OH267644   5.274   4.021  14.166 -0.3459  0.1076  0.0214
15410TIP3    H167645   5.295   3.979  14.250 -0.6855  0.6330  0.3735
15410TIP3    H267646   5.187   3.987  14.144  0.4087 -1.3062 -0.9491
15411TIP3   OH267647   2.973   6.089  12.144 -0.5012  0.6941  0.2865
15411TIP3    H167648   2.928   6.174  12.142 -1.6699  0.0923 -0.4196
15411TIP3    H267649   2.972   6.064  12.236  1.1111  2.0634  0.7122
15412TIP3   OH267650   1.708   6.457  13.119 -0.1519 -0.1833  0.2154
15412TIP3    H167651   1.686   6.448  13.026  0.0677  2.7413 -0.2227
15412TIP3    H267652   1.787   6.512  13.119  0.9849 -1.6746  2.1243
15413TIP3   OH267653   2.811   2.450  14.795  0.8221  0.0383 -0.4253
15413TIP3    H167654   2.752   2.480  14.725 -1.5949  1.6897  2.1073
15413TIP3    H267655   2.865   2.526  14.816 -1.5453  1.1615  2.3187
15414TIP3   OH267656   5.847   0.016   0.693 -0.0864 -0.4429 -0.2847
15414TIP3    H167657   5.857   0.055   0.780 -2.5554 -0.1791 -0.0248
15414TIP3    H267658   5.928   0.036   0.648  1.4988 -1.0389  2.1127
15415TIP3   OH267659   0.011   6.231  11.862  0.4579 -0.4067  0.5111
15415TIP3    H167660   0.034   6.288  11.789  0.0620 -0.9022 -0.0103
15415TIP3    H267661  -0.008   6.290  11.934  2.0646  0.0744  0.5937
15416TIP3   OH267662   6.201   5.200   1.978  0.6293  0.1037 -0.3173
15416TIP3    H167663   6.133   5.226   2.041  0.1964 -0.6981 -0.4403
15416TIP3    H267664   6.153   5.177   1.899  1.0304 -0.5883 -0.3694
15417TIP3   OH267665   4.767   0.738  12.783 -0.1387 -0.9635 -0.1805
15417TIP3    H167666   4.677   0.741  12.750 -0.6969  0.6314  1.2599
15417TIP3    H267667   4.768   0.664  12.843 -0.0431 -1.9040 -1.3271
15418TIP3   OH267668   3.669   0.527   3.621  0.1568 -0.5873  0.3848
15418TIP3    H167669   3.618   0.597   3.580  1.8996  0.4480 -0.1297
15418TIP3    H267670   3.683   0.463   3.551 -2.0686 -1.8926  1.0451
15419TIP3   OH267671   5.484   4.754  14.415 -0.2373 -0.4354 -0.0504
15419TIP3    H167672   5.460   4.682  14.356 -0.8617 -0.4286  0.1963
15419TIP3    H267673   5.485   4.832  14.359 -1.8263 -0.2554  0.1301
15420TIP3   OH267674   3.710   5.263   4.732 -1.1285  0.1828  0.0260
15420TIP3    H167675   3.730   5.351   4.765 -1.9478  0.2431  0.3871
15420TIP3    H267676   3.614   5.261   4.725 -1.1762 -0.9457  0.7620
15421TIP3   OH267677   6.064   2.602  12.970  0.2705 -0.3173  0.9080
15421TIP3    H167678   6.125   2.572  13.037 -0.0323 -0.4252  1.1362
15421TIP3    H267679   6.048   2.693  12.991  1.0377 -0.0366  0.3301
15422TIP3   OH267680   3.382   2.733  14.010  0.2908  0.1273 -0.1971
15422TIP3    H167681   3.461   2.681  14.024  0.7375  0.7301 -0.4541
15422TIP3    H267682   3.406   2.822  14.036 -0.1508  0.4131 -0.7384
15423TIP3   OH267683   5.516   1.248  17.069  0.0855 -0.0421  0.0352
15423TIP3    H167684   5.536   1.205  17.152 -1.0287 -2.0895 -0.6957
15423TIP3    H267685   5.493   1.337  17.094 -1.3240 -0.9065  2.0764
15424TIP3   OH267686   5.345   3.928  13.307  0.2393 -0.0490 -0.6567
15424TIP3    H167687   5.295   3.848  13.296  0.2860 -0.0359 -0.9672
15424TIP3    H267688   5.424   3.901  13.353 -1.1522  0.3093  2.1500
15425TIP3   OH267689   2.772   1.061  14.754 -0.8156  0.2822  0.4618
15425TIP3    H167690   2.780   1.070  14.849  2.1597 -3.3850  0.7771
15425TIP3    H267691   2.850   1.102  14.719  0.0965 -1.7210  0.0185
15426TIP3   OH267692   1.735   4.989  11.308  0.8390  0.2191  0.0962
15426TIP3    H167693   1.822   5.012  11.340  1.0405 -0.5715  0.1322
15426TIP3    H267694   1.686   5.071  11.311  1.8002  0.8485 -0.6560
15427TIP3   OH267695   0.098   0.683   5.426 -0.2796 -0.0269  0.3503
15427TIP3    H167696   0.112   0.733   5.507 -0.3688  5.2194 -2.4289
15427TIP3    H267697   0.006   0.659   5.429 -0.4509  0.6700  1.5363
15428TIP3   OH267698   2.278   4.919   1.485  0.0541  0.4459  0.1463
15428TIP3    H167699   2.219   4.957   1.420  1.0261  1.1494 -0.3508
15428TIP3    H267700   2.293   4.830   1.454  0.2619  0.6781 -0.4427
15429TIP3   OH267701   5.139   0.152   1.059  0.4327  0.1762 -0.8707
15429TIP3    H167702   5.224   0.137   1.017  1.7967  2.7541  0.7107
15429TIP3    H267703   5.114   0.066   1.093  3.0409 -0.4480 -0.3219
15430TIP3   OH267704   2.430   6.007   2.616  0.2925 -0.2589 -0.0013
15430TIP3    H167705   2.506   6.050   2.654  1.2418 -0.8751 -1.1153
15430TIP3    H267706   2.385   5.966   2.690  0.4426  0.9979  0.8057
15431TIP3   OH267707   3.403   5.181  14.527 -0.4067  0.6923  0.2655
15431TIP3    H167708   3.372   5.247  14.466 -0.3114  0.9808  0.5274
15431TIP3    H267709   3.347   5.105  14.511 -1.1140  1.1375  0.5806
15432TIP3   OH267710   3.959   5.539   3.961 -0.6375  0.5918  0.1552
15432TIP3    H167711   3.994   5.486   4.033  0.4187  0.5178 -0.3955
15432TIP3    H267712   4.027   5.604   3.943 -0.0058 -0.5452 -1.9948
15433TIP3   OH267713   4.444   1.860  11.770  0.2470 -0.2455 -0.2165
15433TIP3    H167714   4.370   1.834  11.714 -1.0086  0.2463  1.1675
15433TIP3    H267715   4.415   1.841  11.859  2.0406 -0.6001  0.3456
15434TIP3   OH267716   3.292   5.258  10.985 -0.2492 -0.6355 -0.3732
15434TIP3    H167717   3.202   5.280  10.962  0.1441 -0.5742 -1.9801
15434TIP3    H267718   3.290   5.163  10.998 -0.0537 -1.1217 -3.2341
15435TIP3   OH267719   4.295   0.430   0.405 -0.0690 -0.2298 -0.5241
15435TIP3    H167720   4.232   0.473   0.463 -0.4208 -1.6104  0.1445
15435TIP3    H267721   4.263   0.340   0.397  1.3994 -0.7490 -0.8034
15436TIP3   OH267722   0.490   4.607   4.084 -0.1575  0.3537 -0.4167
15436TIP3    H167723   0.578   4.627   4.052  0.1284 -0.1129  0.0626
15436TIP3    H267724   0.447   4.564   4.010 -0.9282  3.0094 -1.6250
15437TIP3   OH267725   0.300   0.786   2.088 -0.2680  0.6742  0.4231
15437TIP3    H167726   0.324   0.773   1.996 -1.2583 -1.2547  0.3996
15437TIP3    H267727   0.383   0.781   2.135 -0.1185 -3.2493  0.0753
15438TIP3   OH267728   4.757   4.766   2.588 -0.3960 -0.0956  0.3182
15438TIP3    H167729   4.698   4.716   2.644 -0.4228  0.3579  0.7116
15438TIP3    H267730   4.762   4.852   2.630 -1.6059  0.7660 -1.2080
15439TIP3   OH267731   2.383   5.107   0.722 -0.4530  0.0671  0.5817
15439TIP3    H167732   2.351   5.017   0.733  0.0729 -0.2827 -0.6285
15439TIP3    H267733   2.362   5.150   0.805 -0.7659 -1.1536  1.1557
15440TIP3   OH267734   1.356   5.086  13.314  0.3482  0.8074  0.9233
15440TIP3    H167735   1.400   5.043  13.241  1.6218  1.5159  1.2406
15440TIP3    H267736   1.373   5.028  13.389 -1.0441  0.0275  0.6730
15441TIP3   OH267737   5.290   0.378  12.050  0.3259 -0.3592 -0.1222
15441TIP3    H167738   5.206   0.336  12.029  0.5905 -0.6529 -0.6415
15441TIP3    H267739   5.354   0.329  11.997  0.4850  1.5362 -1.7921
15442TIP3   OH267740   3.026   4.036  12.842 -0.0710 -0.1488  0.5201
15442TIP3    H167741   3.018   4.111  12.901  1.6310 -0.1350  0.7943
15442TIP3    H267742   3.114   4.002  12.860  0.7859  0.2461 -2.4586
15443TIP3   OH267743   6.189   0.731   4.773 -0.1918 -0.9825  0.3492
15443TIP3    H167744   6.194   0.696   4.861 -2.0166 -1.1302  0.4354
15443TIP3    H267745   6.097   0.724   4.749 -0.0428  0.5983 -0.9312
15444TIP3   OH267746   0.590   0.305  11.874  0.2711 -0.3637  0.0682
15444TIP3    H167747   0.569   0.391  11.909  1.5691 -0.3308  0.7980
15444TIP3    H267748   0.537   0.244  11.926  0.5887 -0.1409  0.6515
15445TIP3   OH267749   2.684   1.772  16.324 -0.2115  0.3270 -0.3622
15445TIP3    H167750   2.703   1.865  16.338 -0.1528  0.3242 -0.4226
15445TIP3    H267751   2.598   1.760  16.362  0.3656  0.0906  0.9065
15446TIP3   OH267752   5.495   4.020   1.185  0.0582 -0.8617 -0.4080
15446TIP3    H167753   5.439   3.956   1.141 -0.0863 -0.8129 -0.2961
15446TIP3    H267754   5.435   4.091   1.210  0.2355 -0.6289 -0.6347
15447TIP3   OH267755   1.923   3.503  11.541  0.0356  0.0475  0.1205
15447TIP3    H167756   1.896   3.413  11.525 -2.7463  1.0438 -1.3548
15447TIP3    H267757   1.972   3.528  11.463 -1.3736  0.5323 -0.6466
15448TIP3   OH267758   5.433   1.870   0.539  0.1804 -0.3747 -0.0780
15448TIP3    H167759   5.355   1.919   0.513 -0.1900 -1.7021 -1.5643
15448TIP3    H267760   5.507   1.922   0.506 -0.2053 -0.6881 -1.4952
15449TIP3   OH267761   1.860   0.819  11.146  0.1744 -0.1653  0.1579
15449TIP3    H167762   1.929   0.781  11.200  0.3876  1.4020  1.0464
15449TIP3    H267763   1.907   0.868  11.078 -0.0256  0.8160  0.7030
15450TIP3   OH267764   0.021   5.861  15.175  0.4520 -0.4152  0.0490
15450TIP3    H167765   0.084   5.925  15.141 -0.5678  0.0657 -1.0048
15450TIP3    H267766   0.016   5.880  15.269 -0.8411  2.0342 -0.4252
15451TIP3   OH267767   1.475   3.127  16.980  0.4194  0.1939 -0.2960
15451TIP3    H167768   1.421   3.106  17.056  0.1247 -0.8523 -0.7734
15451TIP3    H267769   1.563   3.142  17.016 -0.0770  1.5195  0.4422
15452TIP3   OH267770   6.420   0.598  11.492 -0.5029  0.0446 -0.1799
15452TIP3    H167771   6.482   0.528  11.511 -1.4600 -0.5520  0.8907
15452TIP3    H267772   6.370   0.566  11.417 -3.9788 -2.6427  2.8881
15453TIP3   OH267773   0.249   4.580   2.562 -0.0055  0.1804  0.1842
15453TIP3    H167774   0.265   4.496   2.605 -0.1396  0.2389  0.3493
15453TIP3    H267775   0.161   4.573   2.526  0.9466 -0.7315 -2.1052
15454TIP3   OH267776   2.202   3.843   0.871  0.1447  0.4818 -0.2142
15454TIP3    H167777   2.297   3.855   0.873  0.3296 -0.8976 -0.3049
15454TIP3    H267778   2.185   3.774   0.934 -0.5064 -1.1072 -2.0345
15455TIP3   OH267779   4.462   0.428  14.502 -0.0271  0.1273 -0.4445
15455TIP3    H167780   4.502   0.486  14.438  1.3256 -2.3151 -1.9994
15455TIP3    H267781   4.368   0.435  14.487  0.0766  1.9369 -0.4617
15456TIP3   OH267782   4.548   2.502   5.287  0.0090  0.4694  0.0512
15456TIP3    H167783   4.555   2.563   5.361 -0.5232 -1.3019  1.6415
15456TIP3    H267784   4.507   2.424   5.324  0.8222 -0.9456 -1.8657
15457TIP3   OH267785   0.709   2.641   2.655  0.3541  0.2122  0.0605
15457TIP3    H167786   0.711   2.560   2.605  0.9948 -1.1232  2.1164
15457TIP3    H267787   0.618   2.670   2.650 -1.1396 -3.1494  2.8910
15458TIP3   OH267788   5.318   1.343   2.412  0.1464 -0.1724 -0.6116
15458TIP3    H167789   5.392   1.358   2.353 -0.6946 -2.1459 -2.2838
15458TIP3    H267790   5.332   1.255   2.447 -0.9234 -0.1981 -0.2096
15459TIP3   OH267791   2.476   1.296  11.892  0.3617 -0.4865 -0.1050
15459TIP3    H167792   2.482   1.201  11.878 -1.6469 -0.6938  0.2480
15459TIP3    H267793   2.492   1.307  11.986 -1.8590 -0.7788  0.3531
15460TIP3   OH267794   0.387   0.393  13.127 -0.1240 -0.1186  0.0363
15460TIP3    H167795   0.375   0.487  13.114  0.5604  0.2060  1.4953
15460TIP3    H267796   0.323   0.369  13.193  0.2093 -0.5169  0.2236
15461TIP3   OH267797   1.121   2.284   2.988  0.3090 -0.2000 -0.7785
15461TIP3    H167798   1.137   2.365   3.038  2.0070 -0.8985 -0.1327
15461TIP3    H267799   1.207   2.259   2.955 -0.1637 -1.8758 -0.7881
15462TIP3   OH267800   2.460   4.827   0.134 -0.2975 -0.5284  0.2936
15462TIP3    H167801   2.368   4.821   0.108  0.0297  0.2528 -1.1445
15462TIP3    H267802   2.476   4.921   0.146  0.5365 -0.5790 -0.3464
15463TIP3   OH267803   6.387   6.636   1.626 -0.5256  0.6431  0.0045
15463TIP3    H167804   6.379   6.705   1.692 -1.6079  1.2309 -0.7056
15463TIP3    H267805   6.477   6.642   1.595 -0.6799  1.9319 -0.2368
15464TIP3   OH267806   3.462   4.578  14.837  0.1725  0.4752 -0.6840
15464TIP3    H167807   3.548   4.609  14.806  1.0722 -0.9827  0.2577
15464TIP3    H267808   3.483   4.512  14.902 -1.6948 -0.2217 -0.7581
15465TIP3   OH267809   2.874   6.198   4.907  0.1624  0.2356 -0.6434
15465TIP3    H167810   2.826   6.264   4.857 -0.7342  0.6617  0.7367
15465TIP3    H267811   2.916   6.247   4.978  1.2326 -0.3904 -0.8290
15466TIP3   OH267812   4.263   1.052  17.271  0.0365 -0.1805 -0.7241
15466TIP3    H167813   4.338   0.992  17.277  0.0639 -0.2235 -1.4050
15466TIP3    H267814   4.190   1.003  17.310  0.5395  0.1855  0.7307
15467TIP3   OH267815   6.441   4.332  15.470  0.2315 -0.1774  0.2907
15467TIP3    H167816   6.420   4.245  15.435 -1.6481  0.1394  0.5371
15467TIP3    H267817   6.450   4.318  15.564  0.0046 -0.1347  0.3203
15468TIP3   OH267818   6.105   5.442  17.419 -0.8279  0.0060  0.0122
15468TIP3    H167819   6.038   5.496  17.376 -0.3714  0.0851 -0.6133
15468TIP3    H267820   6.158   5.506  17.467 -0.8340  0.0098  0.0141
15469TIP3   OH267821   1.260   2.228   3.684  0.0512  0.3447  0.3042
15469TIP3    H167822   1.213   2.274   3.615  0.7858 -0.1088 -0.5170
15469TIP3    H267823   1.343   2.202   3.644 -0.0408 -1.0515  0.9554
15470TIP3   OH267824   5.234   0.496  10.496 -0.2493 -0.1045 -0.8408
15470TIP3    H167825   5.185   0.485  10.578 -0.4364 -1.2205 -1.0782
15470TIP3    H267826   5.177   0.549  10.440 -0.9573 -0.9184 -0.9106
15471TIP3   OH267827   3.198   0.554   4.133  0.2587 -0.5061 -0.1115
15471TIP3    H167828   3.155   0.494   4.194  0.0368 -0.2408 -0.0049
15471TIP3    H267829   3.168   0.641   4.160  2.2237 -0.1325  1.1036
15472TIP3   OH267830   5.983   2.047   2.351 -0.3215 -0.1513  0.4402
15472TIP3    H167831   5.900   2.095   2.346 -0.3909 -0.2402  0.7295
15472TIP3    H267832   5.957   1.955   2.351 -0.1986 -0.1860  0.1097
15473TIP3   OH267833   3.338   0.917  13.046  0.1495  0.0538 -0.4898
15473TIP3    H167834   3.269   0.981  13.063  0.3539 -0.1665  1.3285
15473TIP3    H267835   3.364   0.886  13.132  1.2891 -1.1905 -1.2423
15474TIP3   OH267836   0.775   6.195   0.598  0.3065  0.4393  0.4695
15474TIP3    H167837   0.799   6.103   0.595  1.4772  0.7574 -2.4131
15474TIP3    H267838   0.842   6.236   0.653  1.0315 -0.1153  0.0086
15475TIP3   OH267839   6.473   0.527   4.922  0.2636 -0.3205 -0.4664
15475TIP3    H167840   6.517   0.460   4.870 -0.1681  0.2150 -1.5649
15475TIP3    H267841   6.537   0.598   4.930  0.3436 -0.4184 -0.2312
15476TIP3   OH267842   6.626   3.519  11.397 -0.3237 -0.3561  0.3161
15476TIP3    H167843   6.697   3.542  11.456 -0.3522  1.2625 -0.2079
15476TIP3    H267844   6.617   3.424  11.405  2.7397 -0.8322 -0.5404
15477TIP3   OH267845   1.813   5.182   1.149 -0.4766 -0.1605  0.3766
15477TIP3    H167846   1.842   5.272   1.159  0.0009 -0.1285 -1.0181
15477TIP3    H267847   1.868   5.147   1.078 -3.2344 -0.3495 -1.8847
15478TIP3   OH267848   6.065   5.296  16.397 -0.5101 -0.3713 -0.0038
15478TIP3    H167849   6.153   5.258  16.393  1.0964  2.7890  1.9073
15478TIP3    H267850   6.033   5.291  16.307  0.8386 -3.1476 -0.4370
15479TIP3   OH267851   5.242   1.043   1.593 -0.3701 -0.3469  0.1856
15479TIP3    H167852   5.318   1.092   1.564  0.4134 -0.8336  1.3435
15479TIP3    H267853   5.195   1.103   1.651  0.2940 -0.7299  1.1604
15480TIP3   OH267854   3.204   5.871   4.976  0.5681  0.1682 -0.7331
15480TIP3    H167855   3.274   5.865   5.040 -0.4426 -0.7390  0.3445
15480TIP3    H267856   3.123   5.869   5.028 -0.3183 -1.5958 -2.0662
15481TIP3   OH267857   0.206   1.167  17.431 -0.2356  0.3958 -0.2094
15481TIP3    H167858   0.244   1.137  17.348  3.0067  1.3092  0.7889
15481TIP3    H267859   0.117   1.193  17.409 -0.1268 -1.1869 -2.9709
15482TIP3   OH267860   1.262   2.169  17.554  0.5312 -0.7232  0.1667
15482TIP3    H167861   1.219   2.159  17.469  0.8927  0.5688 -0.1913
15482TIP3    H267862   1.190   2.175  17.617  0.1827  0.7104 -0.3424
15483TIP3   OH267863   4.166   1.610  17.053  0.6694 -0.2119  0.4800
15483TIP3    H167864   4.254   1.592  17.086  1.0088  0.4591 -0.0416
15483TIP3    H267865   4.116   1.530  17.072  1.6125 -0.9271  0.0089
15484TIP3   OH267866   0.701   2.236   1.854  0.4094 -0.1284  0.2109
15484TIP3    H167867   0.645   2.311   1.837  0.0350 -0.4661 -0.0712
15484TIP3    H267868   0.785   2.258   1.813 -0.0128 -0.2907 -0.7502
15485TIP3   OH267869   5.321   6.181  10.671  0.4577  0.0225 -0.2616
15485TIP3    H167870   5.389   6.200  10.735  1.8111  0.3543 -1.7409
15485TIP3    H267871   5.337   6.091  10.644 -0.4784 -0.3220  0.2645
15486TIP3   OH267872   1.020   1.818  14.710  0.1757  0.1575 -0.2481
15486TIP3    H167873   0.937   1.771  14.712  0.5531 -0.5500 -0.6530
15486TIP3    H267874   1.005   1.893  14.652 -0.3248  0.3308  0.1050
15487TIP3   OH267875   3.244   0.194   3.086 -0.1151  0.5368 -0.1350
15487TIP3    H167876   3.309   0.238   3.032  1.7644 -2.0346 -0.1381
15487TIP3    H267877   3.248   0.102   3.060 -0.5188 -0.4954  2.9622
15488TIP3   OH267878   6.309   5.729  11.797 -0.1334  0.4247  0.2253
15488TIP3    H167879   6.333   5.752  11.707 -0.1575  0.6884  0.2830
15488TIP3    H267880   6.336   5.805  11.848  0.5345 -0.0205  0.5439
15489TIP3   OH267881   2.836   3.619  12.286  0.5170 -0.0201  0.7242
15489TIP3    H167882   2.799   3.582  12.206  1.0694  0.4082  0.2715
15489TIP3    H267883   2.805   3.560  12.355 -0.0575 -0.3284  0.2190
15490TIP3   OH267884   2.057   0.386   2.906  0.0320  0.4935 -0.0588
15490TIP3    H167885   2.053   0.435   2.989 -0.2376 -1.7190  1.3213
15490TIP3    H267886   2.097   0.302   2.930  0.1577 -0.1322 -2.2487
15491TIP3   OH267887   4.735   0.694  17.593  0.2818 -0.1731 -0.5905
15491TIP3    H167888   4.757   0.618  17.540  1.2640 -0.9815  0.9024
15491TIP3    H267889   4.820   0.731  17.617 -0.1060 -0.3348  1.1153
15492TIP3   OH267890   3.508   3.494   4.255 -0.3346  0.1839 -0.3807
15492TIP3    H167891   3.430   3.532   4.295 -0.6515 -0.7027 -0.1251
15492TIP3    H267892   3.581   3.539   4.296 -0.6479 -0.6424  1.1780
15493TIP3   OH267893   0.246   5.586  15.723  0.1405  0.1774 -0.2849
15493TIP3    H167894   0.307   5.627  15.662  1.1417  0.0552  0.6163
15493TIP3    H267895   0.301   5.545  15.789 -0.9001  1.2046  1.3026
15494TIP3   OH267896   0.976   4.904   0.373  0.1283 -0.4293  0.4861
15494TIP3    H167897   0.959   4.820   0.415 -0.0819 -0.2256  0.8122
15494TIP3    H267898   1.008   4.960   0.443  0.3757 -0.2673  0.2455
15495TIP3   OH267899   3.989   6.129   4.329  0.1318  0.0068 -0.1789
15495TIP3    H167900   3.940   6.206   4.356  1.3465  0.5394  0.6170
15495TIP3    H267901   3.924   6.071   4.289 -1.0630  0.8081  0.5571
15496TIP3   OH267902   5.489   5.723  12.141  0.7440  0.3810 -0.2565
15496TIP3    H167903   5.529   5.810  12.144  2.0771 -0.2282  0.4626
15496TIP3    H267904   5.473   5.700  12.232  0.5938 -0.2200 -0.4281
15497TIP3   OH267905   4.372   1.735  15.123 -0.2258 -0.3181 -0.0771
15497TIP3    H167906   4.360   1.647  15.088  1.0247  0.2607 -2.0898
15497TIP3    H267907   4.327   1.792  15.061 -0.3318  0.5388  0.7630
15498TIP3   OH267908   2.178   6.325  17.216 -0.0740  0.1320  0.6913
15498TIP3    H167909   2.196   6.311  17.123 -0.2140  0.0381  0.6773
15498TIP3    H267910   2.263   6.321  17.258 -0.1629 -1.4906  0.7838
15499TIP3   OH267911   3.845   6.457  12.737 -0.1228  0.6240  0.0267
15499TIP3    H167912   3.861   6.460  12.831  0.1267 -0.8522  0.0426
15499TIP3    H267913   3.753   6.433  12.730 -0.4560  1.8508 -0.1260
15500TIP3   OH267914   2.398   0.623   3.693 -0.8260  0.6010 -0.1757
15500TIP3    H167915   2.422   0.646   3.603 -0.7030  0.1945 -0.2483
15500TIP3    H267916   2.332   0.688   3.718  1.3966  2.7285  0.5558
15501TIP3   OH267917   5.085   1.421  13.337  0.1783  0.3322  0.0385
15501TIP3    H167918   5.001   1.395  13.300  0.5546 -3.5370  1.4408
15501TIP3    H267919   5.064   1.493  13.397 -1.9585  0.0605 -0.3027
15502TIP3   OH267920   6.653   2.847  13.729 -0.2192  0.2473 -0.0855
15502TIP3    H167921   6.670   2.757  13.702  1.1030  0.9655 -1.8557
15502TIP3    H267922   6.560   2.859  13.715 -0.2326 -0.5503 -0.7707
15503TIP3   OH267923   2.415   2.489   1.550  0.0787  0.3600  0.4604
15503TIP3    H167924   2.404   2.481   1.645  0.4239 -0.2728  0.4517
15503TIP3    H267925   2.480   2.423   1.528 -1.3958 -0.8171 -0.5099
15504TIP3   OH267926   3.515   2.566   4.481 -0.1573  0.4724  0.2602
15504TIP3    H167927   3.531   2.651   4.438  1.0533  0.2124  0.1499
15504TIP3    H267928   3.515   2.586   4.574 -1.8945  0.8970  0.1999
15505TIP3   OH267929   4.501   1.166   2.130 -0.1093 -0.8368  0.6270
15505TIP3    H167930   4.556   1.194   2.203  1.4512  0.4585 -0.9376
15505TIP3    H267931   4.527   1.076   2.113  1.8151 -0.1737 -0.2363
15506TIP3   OH267932   1.800   2.015   0.598 -0.3111  0.1127  0.5069
15506TIP3    H167933   1.843   2.082   0.651  0.9141  1.0692 -1.5799
15506TIP3    H267934   1.871   1.961   0.565 -0.5766  1.4912 -2.6847
15507TIP3   OH267935   1.276   6.013   4.517 -0.5116 -0.0558  0.5704
15507TIP3    H167936   1.313   6.018   4.605 -0.2194  0.9593  0.4009
15507TIP3    H267937   1.182   6.027   4.529 -0.6543 -1.1615  0.8428
15508TIP3   OH267938   5.864   4.783  15.952 -0.1095 -0.1695  0.0657
15508TIP3    H167939   5.937   4.778  16.013 -0.8872 -2.2551  0.9198
15508TIP3    H267940   5.788   4.752  16.002 -1.5595  1.6477 -0.8690
15509TIP3   OH267941   5.036   4.256   3.504  0.0439 -0.5842  0.5870
15509TIP3    H167942   4.956   4.304   3.524 -0.4533 -0.1366 -2.0167
15509TIP3    H267943   5.100   4.289   3.566 -0.9308  1.6349  0.5384
15510TIP3   OH267944   2.403   4.559   5.829  0.1123 -0.1382  0.4091
15510TIP3    H167945   2.472   4.504   5.865 -0.5243 -0.4261  1.2209
15510TIP3    H267946   2.384   4.622   5.899 -1.8549 -1.3336  1.0576
15511TIP3   OH267947   5.982   0.566   0.524  0.2047 -0.7052 -0.2261
15511TIP3    H167948   5.926   0.489   0.520 -1.2239  0.0237  2.6878
15511TIP3    H267949   5.943   0.627   0.461 -0.7719 -1.1348 -0.0657
15512TIP3   OH267950   0.939   4.961   3.413  0.4491 -0.0061 -0.0263
15512TIP3    H167951   0.997   5.037   3.406 -0.9374  1.1996  0.8651
15512TIP3    H267952   0.980   4.904   3.478  0.9066  0.5723  0.1994
15513TIP3   OH267953   0.446   5.629   3.732  0.4229 -0.3795  0.2187
15513TIP3    H167954   0.507   5.688   3.687 -0.1311 -1.1014 -1.5425
15513TIP3    H267955   0.450   5.548   3.682 -2.4433 -0.2475 -0.3552
15514TIP3   OH267956   0.225   4.162  12.880 -0.4101 -0.5695 -0.3095
15514TIP3    H167957   0.198   4.219  12.808 -0.0138 -0.0287 -0.0396
15514TIP3    H267958   0.147   4.150  12.933 -0.1150  1.1420  0.5790
15515TIP3   OH267959   1.759   5.078  10.460  0.4112  0.3006 -0.1208
15515TIP3    H167960   1.686   5.078  10.523 -0.3018  1.4367 -0.9114
15515TIP3    H267961   1.741   5.003  10.404  0.2276  0.1699  0.1067
15516TIP3   OH267962   3.946   5.311  15.855  0.4562  0.5660  0.0294
15516TIP3    H167963   3.977   5.246  15.793 -0.2681 -0.1071  0.3596
15516TIP3    H267964   4.025   5.348  15.893  0.9594  1.5676 -1.8448
15517TIP3   OH267965   0.947   0.287  14.776  0.2319 -0.6400 -0.0332
15517TIP3    H167966   0.918   0.308  14.687 -2.3560 -1.6059  0.4938
15517TIP3    H267967   0.889   0.217  14.805 -0.3518  0.9048  3.0881
15518TIP3   OH267968   3.687   1.998  16.713 -0.6215  0.1962  0.3870
15518TIP3    H167969   3.747   1.996  16.787 -0.4581 -0.5849  0.2383
15518TIP3    H267970   3.742   1.985  16.636 -0.8594  0.4829  0.1622
15519TIP3   OH267971   3.919   3.352  13.205 -0.2533  0.0159 -0.0799
15519TIP3    H167972   3.877   3.425  13.161  2.0996  1.5758  0.1104
15519TIP3    H267973   4.005   3.343  13.163 -0.0110 -1.8993  0.6742
15520TIP3   OH267974   0.465   1.703   2.047  0.2668  0.3037 -0.3121
15520TIP3    H167975   0.553   1.681   2.079 -0.8436  1.2983  4.0330
15520TIP3    H267976   0.450   1.792   2.078 -2.5553 -0.1318 -0.1784
15521TIP3   OH267977   5.805   6.177   6.424  0.1253  0.0192  0.7355
15521TIP3    H167978   5.773   6.212   6.508 -0.0247  0.2643  0.5771
15521TIP3    H267979   5.802   6.082   6.435  2.5643  0.0192  1.9519
15522TIP3   OH267980   1.818   6.114   2.822 -0.0646 -0.5806 -0.1464
15522TIP3    H167981   1.828   6.132   2.728  1.0840  0.8323  0.2079
15522TIP3    H267982   1.829   6.199   2.864  1.6578 -1.5025  1.4021
15523TIP3   OH267983   5.265   2.607   2.692  0.1169 -0.1259 -0.0750
15523TIP3    H167984   5.357   2.632   2.686  0.2157 -0.3635  0.3881
15523TIP3    H267985   5.257   2.532   2.633 -0.1445  0.8565 -1.3430
15524TIP3   OH267986   6.030   2.165  11.243  0.6285 -0.1012  0.5833
15524TIP3    H167987   6.024   2.104  11.317  0.1018  0.8546  1.3575
15524TIP3    H267988   6.122   2.191  11.242  0.2403  1.6220  2.4100
15525TIP3   OH267989   1.451   1.329  14.290 -0.1465 -0.0743  0.4566
15525TIP3    H167990   1.535   1.298  14.254 -0.1710 -1.0423  1.1995
15525TIP3    H267991   1.385   1.277  14.245 -0.4031  0.9807 -0.4381
15526TIP3   OH267992   5.797   1.163  15.217 -0.0451 -0.0446  0.4979
15526TIP3    H167993   5.831   1.251  15.201 -1.5108  0.8511  1.9736
15526TIP3    H267994   5.867   1.104  15.186  0.4238  1.5629 -1.7296
15527TIP3   OH267995   0.656   1.587   4.773  0.1478 -0.3055  0.4423
15527TIP3    H167996   0.574   1.603   4.820  0.1363 -2.3539  1.2068
15527TIP3    H267997   0.725   1.610   4.835  0.1728  0.4395  0.1540
15528TIP3   OH267998   4.790   5.295   4.508 -0.0310 -0.1585  0.1516
15528TIP3    H167999   4.793   5.373   4.564 -0.1915 -0.6986  0.9175
15528TIP3    H268000   4.748   5.325   4.428  1.5796  1.0133 -0.3099
15529TIP3   OH268001   4.882   6.280  12.460  0.0357 -0.8222  0.0961
15529TIP3    H168002   4.841   6.271  12.546 -0.8203 -0.8133 -0.2918
15529TIP3    H268003   4.974   6.258  12.474  0.2453  0.6546  1.2984
15530TIP3   OH268004   5.736   6.603  12.034 -0.1216  0.4664  0.0185
15530TIP3    H168005   5.768   6.675  12.089  0.4565  0.1195  0.1391
15530TIP3    H268006   5.643   6.597  12.055 -0.3379  1.6310 -0.4927
15531TIP3   OH268007   4.950   5.416  11.516  0.2293  0.3888  0.0594
15531TIP3    H168008   4.968   5.390  11.606  2.1925 -1.9111 -0.8617
15531TIP3    H268009   4.886   5.352  11.485  0.3662  0.5053 -0.4710
15532TIP3   OH268010   5.493   3.304  13.376  0.3865  0.2517  0.3861
15532TIP3    H168011   5.425   3.368  13.395 -0.0100 -0.2157  0.5663
15532TIP3    H268012   5.454   3.245  13.312  1.0029  0.6106 -0.3324
15533TIP3   OH268013   3.009   5.481   0.635  0.6381 -0.5888 -0.0636
15533TIP3    H168014   3.052   5.482   0.549 -0.1950  3.4750 -0.6323
15533TIP3    H268015   3.080   5.488   0.698  1.1322  0.3431 -0.6920
15534TIP3   OH268016   1.703   6.455   1.311  0.4928 -0.1455  0.3360
15534TIP3    H168017   1.786   6.487   1.275  0.3888 -0.5224 -0.2488
15534TIP3    H268018   1.653   6.425   1.235 -0.2607  0.2540  0.6669
15535TIP3   OH268019   1.678   0.576  12.925 -0.4504 -0.6917  0.1590
15535TIP3    H168020   1.669   0.612  13.013 -1.7768 -1.0621  0.2022
15535TIP3    H268021   1.706   0.485  12.939 -0.1836 -0.6047  0.1828
15536TIP3   OH268022   6.042   5.620  16.210  0.7367  0.3262  0.3675
15536TIP3    H168023   6.082   5.597  16.293  1.9953  1.4961  0.1145
15536TIP3    H268024   6.057   5.715  16.201  0.1457  0.3224 -0.9346
15537TIP3   OH268025   0.593   1.750  17.296 -0.1321 -0.4674 -0.7202
15537TIP3    H168026   0.665   1.693  17.268 -0.0132  0.2603 -1.9674
15537TIP3    H268027   0.634   1.811  17.357 -0.1174 -1.2826  0.0962
15538TIP3   OH268028   5.312   6.123  16.540 -0.1437  0.0558  0.3802
15538TIP3    H168029   5.260   6.111  16.461 -1.1865  2.5902  0.5987
15538TIP3    H268030   5.403   6.124  16.509 -0.5653  1.7424 -0.9365
15539TIP3   OH268031   3.102   0.971   4.413  0.2006  0.7210 -0.2152
15539TIP3    H168032   3.168   0.966   4.482  0.2662  1.3218 -0.2291
15539TIP3    H268033   3.108   1.060   4.380 -0.0459  0.5337 -0.7893
15540TIP3   OH268034   4.231   1.472   0.645  0.1788  0.0227 -0.0282
15540TIP3    H168035   4.229   1.513   0.559 -1.1789  1.0970  0.4799
15540TIP3    H268036   4.290   1.527   0.697 -1.2893  1.1381  0.5245
15541TIP3   OH268037   3.837   4.769   2.565  0.2262  0.3730 -0.1289
15541TIP3    H168038   3.846   4.689   2.513  0.7117  1.0510 -1.1275
15541TIP3    H268039   3.746   4.768   2.594 -0.5962  0.7930 -2.4578
15542TIP3   OH268040   6.592   4.937  15.641 -0.4962  0.1265 -0.6698
15542TIP3    H168041   6.519   4.913  15.585 -1.2492  0.8471 -0.0347
15542TIP3    H268042   6.630   5.014  15.599  0.0339 -0.3646 -1.1043
15543TIP3   OH268043   1.725   1.112  17.536 -0.1748  0.1192  0.0974
15543TIP3    H168044   1.804   1.145  17.580 -0.1206  2.9209 -1.8398
15543TIP3    H268045   1.759   1.048  17.474  0.0912 -1.4748  1.8108
15544TIP3   OH268046   2.845   3.443   6.040  0.0795  0.0673 -0.2795
15544TIP3    H168047   2.757   3.406   6.033 -0.7307  1.9239 -0.3601
15544TIP3    H268048   2.864   3.439   6.134 -1.7340  3.1122  0.3419
15545TIP3   OH268049   5.198   2.671   2.421  0.2749 -0.2027  0.2955
15545TIP3    H168050   5.196   2.588   2.468  1.1143 -1.1355 -1.2202
15545TIP3    H268051   5.241   2.732   2.481 -0.0153 -0.9555  1.2877
15546TIP3   OH268052   2.523   1.601   4.915 -0.9879 -0.0631 -0.4836
15546TIP3    H168053   2.496   1.648   4.836 -0.8107  2.9021  1.1022
15546TIP3    H268054   2.619   1.593   4.907 -0.8151  1.3630 -0.0382
15547TIP3   OH268055   4.441   2.783   2.354  0.2896  0.0327  0.0295
15547TIP3    H168056   4.528   2.745   2.342  0.3558  0.2727 -0.2803
15547TIP3    H268057   4.388   2.743   2.284 -0.4323 -1.8007  1.5409
15548TIP3   OH268058   2.653   0.444   1.217  0.4694  0.4590 -0.1835
15548TIP3    H168059   2.642   0.369   1.276 -1.4830  0.7208 -0.1476
15548TIP3    H268060   2.744   0.438   1.186  0.3756 -1.8900 -0.1508
15549TIP3   OH268061   2.283   3.448   4.091 -0.2918  0.7608  0.1852
15549TIP3    H168062   2.329   3.403   4.021 -0.2134 -0.1423  0.7944
15549TIP3    H268063   2.300   3.541   4.076 -0.3264  0.5864 -1.0101
15550TIP3   OH268064   3.290   6.532  12.499  0.1196 -0.1596  0.0669
15550TIP3    H168065   3.244   6.554  12.580  1.6685 -0.6040  1.1176
15550TIP3    H268066   3.276   6.607  12.443  1.2634  1.4327  1.7828
15551TIP3   OH268067   5.539   2.569  15.229  0.2726  0.6201  0.0428
15551TIP3    H168068   5.540   2.654  15.184 -0.1547  0.4720 -0.2548
15551TIP3    H268069   5.597   2.514  15.177  2.7594  1.4632  1.7480
15552TIP3   OH268070   1.435   5.731   5.434  0.1962  0.2495 -0.5000
15552TIP3    H168071   1.529   5.749   5.446 -0.1358  1.5560  0.3725
15552TIP3    H268072   1.432   5.642   5.398  1.8762  1.0451 -2.8440
15553TIP3   OH268073   6.022   1.595   0.792  0.1977  0.1720 -0.5547
15553TIP3    H168074   6.077   1.664   0.830  0.4895 -0.3436 -0.0283
15553TIP3    H268075   5.936   1.635   0.784 -0.5790 -0.4223  3.0406
15554TIP3   OH268076   3.396   3.968   0.425 -0.5066  0.0276  0.2318
15554TIP3    H168077   3.372   4.045   0.476  1.9991  1.8737 -1.1829
15554TIP3    H268078   3.454   3.918   0.483  0.7641  1.1162 -0.0563
15555TIP3   OH268079   3.838   2.078   0.080 -0.4069  0.5470  0.2353
15555TIP3    H168080   3.787   2.000   0.059 -0.5542  0.4329  0.9687
15555TIP3    H268081   3.789   2.150   0.040 -0.2120  0.2596 -0.5343
15556TIP3   OH268082   2.705   6.184   5.969  0.4804 -0.0276 -0.0263
15556TIP3    H168083   2.618   6.221   5.983 -0.2086 -0.0282 -3.5065
15556TIP3    H268084   2.758   6.257   5.940  1.1903 -0.3871  0.3255
15557TIP3   OH268085   4.995   3.202  11.430  0.2676 -0.1795 -0.0247
15557TIP3    H168086   4.931   3.270  11.412  0.4120  0.1493  0.6572
15557TIP3    H268087   4.980   3.178  11.522  1.7555  0.6217  0.4679
15558TIP3   OH268088   5.296   6.654   0.734 -0.0420 -0.6907  0.0172
15558TIP3    H168089   5.327   6.744   0.725 -0.4531 -0.6323 -0.8590
15558TIP3    H268090   5.202   6.659   0.721 -0.1442 -1.1728  0.5143
15559TIP3   OH268091   4.962   5.041   1.287 -0.1997  0.1205 -0.3452
15559TIP3    H168092   4.973   5.133   1.311 -0.3962  0.2671 -0.8188
15559TIP3    H268093   4.878   5.017   1.325  0.0023  0.0452  0.0568
15560TIP3   OH268094   2.164   2.864   6.273  0.1320 -0.9437 -0.1747
15560TIP3    H168095   2.150   2.958   6.271  0.3316 -0.9253 -1.3459
15560TIP3    H268096   2.095   2.827   6.218  0.8197 -1.3672 -0.7752
15561TIP3   OH268097   4.235   1.998   0.958  0.3539  0.5985 -0.3821
15561TIP3    H168098   4.317   2.029   0.921  1.7314 -1.2863  0.8832
15561TIP3    H268099   4.257   1.974   1.049 -1.3089 -0.9386 -0.3133
15562TIP3   OH268100   1.732   4.907  16.441 -0.1470  0.1327 -0.3220
15562TIP3    H168101   1.675   4.946  16.374 -0.3083 -0.8985 -0.8022
15562TIP3    H268102   1.820   4.918  16.406 -0.3229 -2.0411 -1.6552
15563TIP3   OH268103   3.096   2.300  13.021 -0.5236  0.1643  0.0345
15563TIP3    H168104   3.031   2.236  12.991  0.7853 -1.0241 -0.4150
15563TIP3    H268105   3.128   2.342  12.941  0.7616 -0.8044 -0.0034
15564TIP3   OH268106   5.924   4.994  10.848  0.4410  0.6079 -0.2594
15564TIP3    H168107   5.833   5.018  10.868  0.4834  0.4016  0.1908
15564TIP3    H268108   5.926   4.986  10.753 -0.4173 -1.0170 -0.1686
15565TIP3   OH268109   5.739   0.291  16.040 -0.6471  1.0797  0.4905
15565TIP3    H168110   5.790   0.364  16.075  1.1363  0.3179 -0.4116
15565TIP3    H268111   5.716   0.318  15.951  1.1627  0.0777 -0.3402
15566TIP3   OH268112   5.143   6.129   1.441  0.3095 -0.0101 -0.8702
15566TIP3    H168113   5.125   6.042   1.405  1.9433 -1.3540  1.3343
15566TIP3    H268114   5.057   6.171   1.445 -0.6462 -1.8199 -1.2450
15567TIP3   OH268115   2.601   1.046  13.050 -0.0418  0.4420 -0.3373
15567TIP3    H168116   2.620   0.964  13.005  1.6844 -1.5909  3.5999
15567TIP3    H268117   2.568   1.019  13.136 -0.1159  3.8879  0.8735
15568TIP3   OH268118   5.117   0.012   4.502  0.0527  0.1766 -0.6304
15568TIP3    H168119   5.187   0.076   4.514  0.8778 -0.3233 -2.5022
15568TIP3    H268120   5.096   0.016   4.409 -1.5253 -0.6257 -0.3539
15569TIP3   OH268121   4.327   5.084   4.074 -0.1630 -0.0570 -0.1566
15569TIP3    H168122   4.414   5.072   4.036  0.4285 -1.3144  1.4564
15569TIP3    H268123   4.267   5.044   4.011  0.6719 -1.1307 -0.3057
15570TIP3   OH268124   3.354   1.907   2.289 -0.4143 -0.6483  0.1665
15570TIP3    H168125   3.424   1.972   2.303  0.6308 -1.3896 -1.3860
15570TIP3    H268126   3.291   1.951   2.233 -0.8745 -0.2261  0.9860
15571TIP3   OH268127   3.818   2.345  12.933 -0.3608  0.0114 -0.2160
15571TIP3    H168128   3.793   2.253  12.944 -0.8732 -0.0393 -1.5586
15571TIP3    H268129   3.903   2.353  12.976 -0.8240 -0.8200  0.8700
15572TIP3   OH268130   5.894   5.414   4.432  0.3620  0.1710 -0.4409
15572TIP3    H168131   5.827   5.405   4.499  1.9267  1.7038  1.4578
15572TIP3    H268132   5.954   5.480   4.466  1.7813  0.3192 -2.9406
15573TIP3   OH268133   1.538   3.815   5.316  0.0729  0.0590 -0.2763
15573TIP3    H168134   1.555   3.813   5.410 -0.6536  0.9615 -0.1088
15573TIP3    H268135   1.442   3.814   5.308  0.1207  0.1791 -0.9964
15574TIP3   OH268136   6.592   1.905  15.828 -0.1016  0.3117 -0.4882
15574TIP3    H168137   6.688   1.906  15.829 -0.0453 -1.4068 -0.6184
15574TIP3    H268138   6.569   1.889  15.737 -0.4424 -0.7779 -0.2318
15575TIP3   OH268139   0.104   5.350   6.557 -0.0572 -0.3927 -0.5922
15575TIP3    H168140   0.104   5.418   6.490 -0.8820  1.0712  0.8340
15575TIP3    H268141   0.190   5.307   6.548  0.8489  1.4178 -0.9417
15576TIP3   OH268142   0.872   5.037  12.697 -0.2276  0.3758  0.8141
15576TIP3    H168143   0.865   5.133  12.693 -3.5017  0.3525  2.4004
15576TIP3    H268144   0.920   5.019  12.777 -0.4317  0.6785  1.0039
15577TIP3   OH268145   0.556   2.549  16.896  0.3513 -0.2850 -0.2775
15577TIP3    H168146   0.630   2.516  16.948 -0.3237 -1.2342  0.1152
15577TIP3    H268147   0.522   2.622  16.947  0.3862 -0.5055  0.0666
15578TIP3   OH268148   1.944   2.987  17.355 -0.1386 -0.2108 -0.2026
15578TIP3    H168149   1.872   2.924  17.357 -1.3678  0.9737 -2.6110
15578TIP3    H268150   1.903   3.070  17.382  0.7756  0.1200  0.2011
15579TIP3   OH268151   5.978   5.925  14.936  0.5669 -0.3167  0.0036
15579TIP3    H168152   5.970   5.831  14.951 -0.4593 -0.0524  1.2096
15579TIP3    H268153   5.994   5.963  15.022 -0.6136  0.7641 -0.2117
15580TIP3   OH268154   3.545   6.557  14.062  0.2439  0.0488  0.0912
15580TIP3    H168155   3.503   6.575  14.146 -0.9229 -0.2643 -0.4098
15580TIP3    H268156   3.492   6.488  14.022  1.8656 -1.1441 -0.1109
15581TIP3   OH268157   6.355   1.048   3.000 -0.1014  0.1734  0.1447
15581TIP3    H168158   6.341   1.019   2.910  0.4082  2.5343 -0.7946
15581TIP3    H268159   6.281   1.106   3.018  0.0638  0.1062  1.0733
15582TIP3   OH268160   3.865   0.876  16.061 -0.0372 -0.4789 -0.0408
15582TIP3    H168161   3.864   0.857  16.155  1.4094 -2.6316 -0.3650
15582TIP3    H268162   3.906   0.962  16.054  0.6162 -0.6503  1.2841
15583TIP3   OH268163   6.656   2.869   2.330 -0.5557  0.3544  0.2980
15583TIP3    H168164   6.672   2.916   2.248  1.0525 -0.3302  0.1908
15583TIP3    H268165   6.618   2.935   2.388  3.0618  2.3088  0.6696
15584TIP3   OH268166   3.205   6.011  11.099 -0.4719  0.2351 -0.0398
15584TIP3    H168167   3.238   5.944  11.158  0.3686  1.3922  0.8465
15584TIP3    H268168   3.110   6.008  11.110 -0.6660 -2.1229 -1.5162
15585TIP3   OH268169   3.061   1.229  12.765  0.2300  0.6531 -0.0906
15585TIP3    H168170   3.036   1.241  12.856  0.1917  1.9333 -0.2490
15585TIP3    H268171   3.006   1.291  12.717  1.2138  0.9800 -0.8314
15586TIP3   OH268172   1.077   0.238   2.238  0.3334 -0.6650  0.3078
15586TIP3    H168173   1.159   0.261   2.282  0.0401  0.1038  0.4713
15586TIP3    H268174   1.064   0.146   2.259  0.3800 -0.4135  1.5698
15587TIP3   OH268175   6.574   0.851  16.650 -0.4690 -0.2139 -0.2383
15587TIP3    H168176   6.615   0.773  16.688 -0.7544  0.0758  0.6877
15587TIP3    H268177   6.481   0.827  16.643 -1.0602  0.9148  2.5180
15588TIP3   OH268178   0.486   5.983   0.033  0.6661  0.5828  0.2213
15588TIP3    H168179   0.573   5.985  -0.007  1.2136  1.4754  1.4030
15588TIP3    H268180   0.503   5.978   0.127 -0.5832 -0.4469  0.4317
15589TIP3   OH268181   1.682   5.097   3.069 -0.2348  0.6264 -0.1708
15589TIP3    H168182   1.650   5.106   2.980 -0.1221 -1.0816 -0.4278
15589TIP3    H268183   1.611   5.051   3.115 -0.1346  1.1506  0.5349
15590TIP3   OH268184   3.215   6.409   2.908  0.6086  0.2645  0.0193
15590TIP3    H168185   3.229   6.382   2.999  1.7974  1.3087  0.1701
15590TIP3    H268186   3.288   6.369   2.860 -1.1348 -2.0618 -0.9200
15591TIP3   OH268187   0.314   2.203  13.018 -0.3749  0.2592  0.4824
15591TIP3    H168188   0.367   2.162  13.086 -2.0783 -0.0707  1.6883
15591TIP3    H268189   0.356   2.177  12.935  0.1430 -1.6985  1.3048
15592TIP3   OH268190   5.498   1.646  15.013  0.2185  0.2768 -0.3118
15592TIP3    H168191   5.424   1.697  15.046 -1.3012 -0.0019 -2.9612
15592TIP3    H268192   5.569   1.709  15.005 -0.1579  0.8837  0.9196
15593TIP3   OH268193   1.595   2.452  15.768  0.1485 -0.4905 -0.4325
15593TIP3    H168194   1.518   2.449  15.825 -0.0068  0.6529 -0.5637
15593TIP3    H268195   1.653   2.384  15.803 -0.9937 -1.5139 -0.4648
15594TIP3   OH268196   5.193   2.505   0.183  0.5017  0.2519  0.6239
15594TIP3    H168197   5.156   2.429   0.140 -0.6614  1.4864 -0.6727
15594TIP3    H268198   5.140   2.515   0.263  1.3651 -0.8797  1.3716
15595TIP3   OH268199   6.028   2.530   3.134  0.8512  0.0587  0.6298
15595TIP3    H168200   6.114   2.489   3.123  0.9852  0.8577 -1.9509
15595TIP3    H268201   6.047   2.616   3.173  1.7456  1.6702 -2.9464
15596TIP3   OH268202   3.403   0.173   5.966  0.1075  0.0264  0.0914
15596TIP3    H168203   3.496   0.160   5.986 -0.0638 -0.2958  0.7150
15596TIP3    H268204   3.383   0.259   6.003  0.1776  0.1387 -0.1288
15597TIP3   OH268205   5.234   4.100   0.743 -0.0932 -0.3938 -0.0579
15597TIP3    H168206   5.179   4.107   0.821  1.1471 -1.4725  0.9679
15597TIP3    H268207   5.241   4.189   0.710 -1.1252 -0.0032  0.7225
15598TIP3   OH268208   1.227   3.707  12.092 -0.3149 -0.0178  0.3166
15598TIP3    H168209   1.175   3.774  12.047 -2.2548 -0.8873  1.1574
15598TIP3    H268210   1.237   3.637  12.027  3.2611  1.6449 -1.2119
15599TIP3   OH268211   4.133   2.463  15.195  0.1515  0.1706 -0.2929
15599TIP3    H168212   4.140   2.530  15.128  2.3326  2.3443  1.8986
15599TIP3    H268213   4.192   2.393  15.166 -0.4510  0.1449 -1.5258
15600TIP3   OH268214   0.565   5.339   4.442 -0.1592 -0.0057  0.1705
15600TIP3    H168215   0.602   5.366   4.526  0.6988 -0.4908 -0.0429
15600TIP3    H268216   0.495   5.278   4.465  0.9115 -1.1428  0.5165
15601TIP3   OH268217   6.472   4.320   6.097  0.2911 -0.1130 -0.8230
15601TIP3    H168218   6.439   4.256   6.161 -0.4007 -0.3040 -1.3488
15601TIP3    H268219   6.567   4.316   6.105  0.1988  0.6175  0.9136
15602TIP3   OH268220   1.820   6.528   1.039 -0.2539 -0.0691  0.0915
15602TIP3    H168221   1.753   6.473   0.998 -0.3205 -1.4221  1.9372
15602TIP3    H268222   1.902   6.481   1.025  0.0133  0.4870 -0.2465
15603TIP3   OH268223   5.530   1.331   4.405 -0.0464 -0.1357  0.2246
15603TIP3    H168224   5.518   1.341   4.499 -0.8843  1.1008  0.0094
15603TIP3    H268225   5.561   1.416   4.375 -0.4524 -0.2949 -0.7024
15604TIP3   OH268226   4.695   0.440   4.897  0.1590  0.5083 -0.0549
15604TIP3    H168227   4.645   0.395   4.828  1.9727 -0.4882 -0.7814
15604TIP3    H268228   4.703   0.530   4.865 -2.2244  1.0548  0.6987
15605TIP3   OH268229   6.507   3.611  16.581  0.8251 -0.0319  0.4989
15605TIP3    H168230   6.600   3.617  16.601  1.1061 -3.2298  0.5633
15605TIP3    H268231   6.467   3.575  16.661 -0.0855 -0.8559 -0.2977
15606TIP3   OH268232   0.805   6.304  17.439 -0.4224 -0.3350  0.4036
15606TIP3    H168233   0.830   6.380  17.386 -0.5857 -0.8049 -0.3717
15606TIP3    H268234   0.733   6.336  17.494  0.8840  0.6323  1.6251
15607TIP3   OH268235   3.074   3.809   2.526  0.6370  0.2357  0.0680
15607TIP3    H168236   3.010   3.751   2.484  0.2596 -0.3838  1.4430
15607TIP3    H268237   3.029   3.893   2.533 -0.5399 -0.4765  2.0523
15608TIP3   OH268238   5.338   0.801  13.918 -0.4073 -0.0272  0.4116
15608TIP3    H168239   5.293   0.879  13.886 -0.8878 -0.2047  0.6454
15608TIP3    H268240   5.426   0.831  13.941 -0.4979  0.3823  0.2233
15609TIP3   OH268241   2.547   5.388  12.454  0.2092 -0.1841  0.2707
15609TIP3    H168242   2.514   5.360  12.539 -0.8537 -0.6003 -0.2623
15609TIP3    H268243   2.627   5.337  12.441 -0.0349 -0.6839  0.6866
15610TIP3   OH268244   4.220   4.445   4.171  0.3972  0.3236 -0.4121
15610TIP3    H168245   4.288   4.499   4.212  1.7108 -0.9774 -0.7939
15610TIP3    H268246   4.189   4.498   4.097  1.4716  0.6667 -0.6302
15611TIP3   OH268247   0.017   3.459   4.876  0.3837  0.2021 -0.2800
15611TIP3    H168248  -0.044   3.393   4.910 -0.0230  0.5453 -0.3383
15611TIP3    H268249   0.096   3.409   4.854 -0.5186 -0.5854 -1.9888
15612TIP3   OH268250   1.707   2.556   2.799 -0.1480 -0.3893  0.1616
15612TIP3    H168251   1.751   2.505   2.731 -1.0506  0.0889 -0.7939
15612TIP3    H268252   1.614   2.552   2.777 -0.5332 -0.7636  1.7409
15613TIP3   OH268253   3.399   0.467  14.529  0.2866 -1.3077  0.3531
15613TIP3    H168254   3.321   0.424  14.496  0.4318 -1.0116 -0.3930
15613TIP3    H268255   3.445   0.399  14.579 -0.4770 -1.4557  0.8737
15614TIP3   OH268256   3.004   5.986   0.741 -0.4636 -0.1012  0.2621
15614TIP3    H168257   2.999   5.920   0.672 -0.1453 -0.1407  0.2753
15614TIP3    H268258   2.953   5.947   0.813  3.3237 -2.4615  1.9728
15615TIP3   OH268259   2.061   5.065   5.150 -0.2172  0.1272 -0.5403
15615TIP3    H168260   2.146   5.066   5.107  0.4695 -0.4587  0.7352
15615TIP3    H268261   2.063   4.988   5.206 -0.8278  1.1277  0.9364
15616TIP3   OH268262   2.286   4.014   2.095 -0.1832  0.3267  0.6009
15616TIP3    H168263   2.299   4.089   2.038  1.2506 -0.5949 -0.3402
15616TIP3    H268264   2.191   4.000   2.095 -0.3271  1.2031 -0.4132
15617TIP3   OH268265   6.544   0.605   5.733 -1.1720 -0.9217 -0.5054
15617TIP3    H168266   6.529   0.643   5.646  1.1244 -1.6182 -1.2886
15617TIP3    H268267   6.481   0.650   5.790 -0.6745  1.8097 -1.9229
15618TIP3   OH268268   5.925   0.111  14.046 -0.1339  0.2477 -0.4668
15618TIP3    H168269   5.942   0.093  13.954  0.7799  0.4282 -0.3492
15618TIP3    H268270   5.924   0.206  14.052  0.6344  0.2451 -0.1627
15619TIP3   OH268271   3.356   1.332   3.481 -0.4837  0.1661  0.1734
15619TIP3    H168272   3.342   1.413   3.432 -0.1514  0.1222 -0.0001
15619TIP3    H268273   3.392   1.271   3.416 -0.8573 -0.1627  0.2690
15620TIP3   OH268274   6.025   4.222  12.951 -0.2241  0.0912 -0.0793
15620TIP3    H168275   5.981   4.143  12.981  0.9781 -0.3762  0.4960
15620TIP3    H268276   6.077   4.193  12.875 -1.5964  0.8279 -1.3470
15621TIP3   OH268277   5.889   3.612  12.999  0.3309  0.0221  0.1742
15621TIP3    H168278   5.979   3.645  12.993  0.5822 -0.7936 -1.1445
15621TIP3    H268279   5.885   3.569  13.085  0.3784  2.2747  1.3591
15622TIP3   OH268280   0.913   1.936   5.136  0.1142  0.3817  0.4033
15622TIP3    H168281   0.924   1.985   5.055  1.5282  1.9606  1.4819
15622TIP3    H268282   0.883   2.001   5.199  1.6905 -0.1742  1.8009
15623TIP3   OH268283   5.184   3.589  15.701  0.0699 -0.3012 -0.6146
15623TIP3    H168284   5.115   3.651  15.680  0.4288  0.4137  0.2392
15623TIP3    H268285   5.252   3.642  15.744 -0.5253 -1.5751  2.1556
15624TIP3   OH268286   1.472   6.168  15.689  0.3827  0.5968 -0.5971
15624TIP3    H168287   1.532   6.143  15.619 -0.1313 -0.0072 -0.8343
15624TIP3    H268288   1.461   6.088  15.741  1.3583  1.2363  0.6426
15625TIP3   OH268289   2.707   4.283   5.051 -0.1561 -0.1765 -0.1958
15625TIP3    H168290   2.614   4.299   5.040  0.1847  1.9390 -0.4629
15625TIP3    H268291   2.715   4.249   5.141 -1.1601 -0.2817 -0.1399
15626TIP3   OH268292   2.181   1.502  17.465 -0.4716 -0.0747  0.1915
15626TIP3    H168293   2.221   1.470  17.384 -1.4995 -2.0800  0.4072
15626TIP3    H268294   2.088   1.482  17.456 -1.2779  3.1450  0.3154
15627TIP3   OH268295   3.363   6.716  16.742  0.3491  0.7878 -0.5245
15627TIP3    H168296   3.433   6.745  16.684  1.3924  0.3768  0.4934
15627TIP3    H268297   3.392   6.630  16.774  0.0441  1.2139  0.9822
15628TIP3   OH268298   0.922   5.574   2.194  0.1816 -0.0614  0.4231
15628TIP3    H168299   0.909   5.669   2.191 -1.8117 -0.3054 -1.1047
15628TIP3    H268300   0.956   5.557   2.282 -3.2737  1.7233  2.3351
15629TIP3   OH268301   4.414   3.049  17.351 -0.2973 -0.5282 -0.5885
15629TIP3    H168302   4.376   3.088  17.272  0.9076 -0.4363 -1.1512
15629TIP3    H268303   4.478   3.114  17.381  1.5607 -1.8937 -1.3892
15630TIP3   OH268304   4.437   3.945  12.209 -0.5144  0.1336  0.2565
15630TIP3    H168305   4.514   3.985  12.168 -0.2819  2.5006  2.7221
15630TIP3    H268306   4.453   3.851  12.202  0.8274  0.4664 -2.4251
15631TIP3   OH268307   0.711   5.524   0.259  0.6069 -0.1351 -0.0889
15631TIP3    H168308   0.731   5.540   0.167  1.5617 -0.3225  0.0696
15631TIP3    H268309   0.704   5.429   0.266 -0.7797 -0.0634 -0.2067
15632TIP3   OH268310   2.681   3.763   2.283 -0.2747 -0.4781 -0.1810
15632TIP3    H168311   2.624   3.714   2.224  1.3524 -2.6402 -0.0837
15632TIP3    H268312   2.760   3.710   2.289  1.1563  1.6479  0.8824
15633TIP3   OH268313   2.299   2.340   6.628 -0.2275 -0.3234  0.4612
15633TIP3    H168314   2.370   2.291   6.669 -0.5622 -0.5051  0.8399
15633TIP3    H268315   2.297   2.309   6.537 -1.6069 -2.4257  1.1216
15634TIP3   OH268316   1.739   6.526  16.481 -0.4677 -0.2667 -0.0355
15634TIP3    H168317   1.776   6.459  16.423 -0.1148  0.5705 -0.8145
15634TIP3    H268318   1.652   6.493  16.503 -0.2615 -1.0250 -0.3282
15635TIP3   OH268319   1.459   2.110   3.470 -0.4225 -0.1920  0.0440
15635TIP3    H168320   1.535   2.133   3.417 -0.8308  0.7205 -0.1699
15635TIP3    H268321   1.494   2.093   3.557  0.0816 -0.3087 -0.1760
15636TIP3   OH268322   5.377   0.202   0.939  0.2494 -0.1476 -0.2196
15636TIP3    H168323   5.398   0.215   0.846 -1.5220  1.2470 -0.4676
15636TIP3    H268324   5.462   0.208   0.983  1.3288 -2.1860 -1.8275
15637TIP3   OH268325   1.301   2.543  12.064 -0.2257  0.2284  0.2983
15637TIP3    H168326   1.259   2.625  12.089  2.7481  1.6274  1.0536
15637TIP3    H268327   1.337   2.508  12.145  1.8810  0.2311 -0.5646
15638TIP3   OH268328   4.926   1.117  12.504 -0.5605 -0.4745 -0.1797
15638TIP3    H168329   4.872   1.175  12.450  0.3050  0.7473  0.2237
15638TIP3    H268330   5.016   1.136  12.478 -0.1981 -0.8077  0.7782
15639TIP3   OH268331   1.691   2.689  16.466  0.0425  0.1571  0.0061
15639TIP3    H168332   1.691   2.723  16.556 -0.8123 -0.2351  0.1636
15639TIP3    H268333   1.639   2.752  16.417 -0.1241 -0.0264 -0.0538
15640TIP3   OH268334   3.849   1.008  12.723  0.2894  0.0600  0.5475
15640TIP3    H168335   3.897   0.936  12.682  0.0845  0.3247 -0.1787
15640TIP3    H268336   3.844   1.075  12.654 -1.8818 -0.3020  0.2793
15641TIP3   OH268337   4.619   2.657  11.930 -0.3612  0.6397  0.3217
15641TIP3    H168338   4.694   2.710  11.903 -1.5016  1.1411 -2.1489
15641TIP3    H268339   4.617   2.585  11.867 -0.8154 -0.5188  1.6012
15642TIP3   OH268340   3.933   4.967   1.423 -0.1544 -0.2695  0.1326
15642TIP3    H168341   4.012   5.011   1.454  0.2543  0.2859 -1.6316
15642TIP3    H268342   3.861   5.015   1.466  0.3610  0.9480 -0.3191
15643TIP3   OH268343   5.190   1.884  14.926 -0.1828  0.3452  0.0806
15643TIP3    H168344   5.094   1.893  14.931 -0.1080  1.6485 -0.3258
15643TIP3    H268345   5.212   1.913  14.837  0.7867  2.4486  0.9323
15644TIP3   OH268346   4.111   1.535   5.220 -0.1485 -0.1742  0.2767
15644TIP3    H168347   4.165   1.610   5.245  1.1005 -1.4151  1.4289
15644TIP3    H268348   4.088   1.552   5.128  0.3988  1.4299  0.4034
15645TIP3   OH268349   6.226   3.165  14.736 -0.5111  0.2438  0.3266
15645TIP3    H168350   6.257   3.178  14.826 -0.4490  0.9682  0.2039
15645TIP3    H268351   6.273   3.087  14.706 -0.1144  0.3207  0.7337
15646TIP3   OH268352   6.513   5.657  12.335  0.7012  0.3436  0.2465
15646TIP3    H168353   6.519   5.646  12.240 -1.9471 -0.0317  0.0313
15646TIP3    H268354   6.486   5.748  12.347 -0.4500 -0.0062  0.4904
15647TIP3   OH268355   5.064   6.466   2.177 -0.1736 -0.7836  0.4411
15647TIP3    H168356   4.977   6.429   2.191 -0.1827 -0.0951  2.5475
15647TIP3    H268357   5.122   6.411   2.230  0.2887  0.1939  0.9864
15648TIP3   OH268358   3.034   6.369   1.434  0.2161 -0.1546 -0.3044
15648TIP3    H168359   2.940   6.361   1.418  0.3103 -1.0922 -0.4285
15648TIP3    H268360   3.062   6.281   1.460  1.0924  0.0678 -0.4602
15649TIP3   OH268361   1.938   5.387   4.916 -0.3952  0.2572  0.0113
15649TIP3    H168362   1.971   5.476   4.930 -0.1219  0.1164  0.2704
15649TIP3    H268363   1.920   5.354   5.004  1.2033 -0.5878  0.0649
15650TIP3   OH268364   1.482   2.733  11.204  0.6420 -0.5943 -0.0870
15650TIP3    H168365   1.447   2.809  11.159 -0.5930 -0.1463  1.5293
15650TIP3    H268366   1.445   2.658  11.157  0.1819 -0.1671 -0.4151
15651TIP3   OH268367   5.494   3.026  12.491 -0.2315  0.0288 -0.1764
15651TIP3    H168368   5.467   3.070  12.411  1.4128  2.1406  0.3326
15651TIP3    H268369   5.564   2.966  12.463  0.4654  0.8929 -0.3230
15652TIP3   OH268370   3.395   2.769   3.719 -0.0222 -0.2048  0.2342
15652TIP3    H168371   3.440   2.842   3.677  1.1202 -1.4581 -0.8264
15652TIP3    H268372   3.313   2.806   3.751  0.5088  1.5162 -0.3143
15653TIP3   OH268373   0.253   5.545   0.095  0.0046  0.0768 -0.5014
15653TIP3    H168374   0.284   5.526   0.006  0.1360 -2.1541 -0.0196
15653TIP3    H268375   0.257   5.461   0.140 -1.5172  0.8694  1.1918
15654TIP3   OH268376   3.647   1.952  12.782 -0.3954 -0.1809 -0.2454
15654TIP3    H168377   3.578   1.952  12.716 -0.2773  0.3616 -0.3745
15654TIP3    H268378   3.666   1.860  12.798 -2.7082 -0.4637  1.4138
15655TIP3   OH268379   1.329   5.015   2.885  0.4940 -0.5929 -0.1408
15655TIP3    H168380   1.373   5.060   2.812 -0.3289 -0.2710 -0.4484
15655TIP3    H268381   1.399   4.966   2.928  1.2267  0.1645 -0.4223
15656TIP3   OH268382   4.627   4.875  17.231  0.1061 -0.0839  0.2491
15656TIP3    H168383   4.652   4.828  17.151  1.7042  0.1510  0.5811
15656TIP3    H268384   4.552   4.826  17.265  1.5570 -2.3195  0.4754
15657TIP3   OH268385   3.273   5.118   4.313 -0.0271 -0.2396 -0.3762
15657TIP3    H168386   3.258   5.210   4.293 -0.0576 -0.0480  0.4543
15657TIP3    H268387   3.186   5.079   4.318 -0.1302  0.1139  1.0937
15658TIP3   OH268388   4.174   6.475   0.113  0.6388 -0.0234  0.1449
15658TIP3    H168389   4.156   6.568   0.122  1.8081  0.2575 -0.2179
15658TIP3    H268390   4.260   6.471   0.071  0.1475 -1.2707 -0.8139
15659TIP3   OH268391   5.629   3.202   1.355 -0.3251 -0.2862  0.0007
15659TIP3    H168392   5.701   3.248   1.311 -0.7364 -0.3556 -0.7539
15659TIP3    H268393   5.622   3.119   1.308 -1.2546 -0.0545 -0.2775
15660TIP3   OH268394   0.843   2.562  11.678  0.2339  0.0686 -0.0546
15660TIP3    H168395   0.819   2.630  11.740  1.1059  1.6657 -1.3570
15660TIP3    H268396   0.799   2.587  11.597  0.5646 -0.9300 -0.5588
15661TIP3   OH268397   4.790   2.606  12.812 -0.1165  0.5756  0.5777
15661TIP3    H168398   4.836   2.529  12.845 -0.4071  0.8593  1.7057
15661TIP3    H268399   4.744   2.641  12.889  0.4166  2.1624  0.2218
15662TIP3   OH268400   2.429   0.047  10.190 -0.1777  0.3452 -0.3843
15662TIP3    H168401   2.401  -0.042  10.167 -1.6731  0.4497  0.8697
15662TIP3    H268402   2.481   0.036  10.269 -1.1464  0.6320  0.3203
15663TIP3   OH268403   4.677   2.961   4.812  0.1835 -0.0162  0.0640
15663TIP3    H168404   4.656   3.055   4.815 -2.0033 -0.4040 -0.7780
15663TIP3    H268405   4.699   2.944   4.721  2.3616 -0.0389  0.5486
15664TIP3   OH268406   5.650   2.843   3.113  0.0629  0.2215  0.3911
15664TIP3    H168407   5.734   2.888   3.104 -1.3899  2.7735 -1.3772
15664TIP3    H268408   5.601   2.896   3.175 -0.8593 -0.2677  0.0930
15665TIP3   OH268409   2.442   0.313  17.259 -0.1675  0.0450 -0.6793
15665TIP3    H168410   2.378   0.382  17.247  1.2880  1.5623 -0.0518
15665TIP3    H268411   2.395   0.245  17.307 -1.6036  0.6026 -1.2356
15666TIP3   OH268412   4.737   0.151  12.932  0.3756  0.0432 -0.1327
15666TIP3    H168413   4.772   0.086  12.993  1.5893  0.3294 -0.4985
15666TIP3    H268414   4.814   0.184  12.885 -0.3726  0.8272 -0.8448
15667TIP3   OH268415   2.653   0.637  15.527  0.4652  0.3901  0.0080
15667TIP3    H168416   2.733   0.584  15.521  0.0367 -0.1333 -2.2260
15667TIP3    H268417   2.673   0.716  15.477 -0.2575  0.4445 -0.2076
15668TIP3   OH268418   5.471   5.080   2.625 -0.2111 -0.3936 -0.4569
15668TIP3    H168419   5.394   5.137   2.617  2.1557  3.0634 -1.2929
15668TIP3    H268420   5.522   5.120   2.696  0.9074 -2.5259  0.0122
15669TIP3   OH268421   6.066   3.953   4.697  0.5107 -0.0431 -0.0349
15669TIP3    H168422   6.028   3.888   4.756 -0.3257 -0.6861 -1.2440
15669TIP3    H268423   6.062   3.913   4.610  0.3668  1.4501 -0.7595
15670TIP3   OH268424   5.157   4.569  10.460 -0.8045  0.4746 -0.1543
15670TIP3    H168425   5.110   4.607  10.386 -0.3227  1.4408  0.0241
15670TIP3    H268426   5.160   4.475  10.440 -2.2223  0.4734 -0.4778
15671TIP3   OH268427   0.493   3.990  16.408 -0.3551 -0.5438 -0.0506
15671TIP3    H168428   0.526   4.077  16.386 -2.0741  0.4433  1.1048
15671TIP3    H268429   0.398   3.998  16.402 -0.5920 -2.0217  1.2308
15672TIP3   OH268430   1.915   3.386   2.389  0.4664  0.7359  0.1673
15672TIP3    H168431   1.927   3.437   2.469  0.9025  0.1309  0.4908
15672TIP3    H268432   1.981   3.420   2.329  1.1575  0.1601  0.5842
15673TIP3   OH268433   4.438   1.072   0.071  0.5009 -0.5589  0.1867
15673TIP3    H168434   4.502   1.065   0.141  1.7777  0.6006 -0.8169
15673TIP3    H268435   4.463   1.004   0.008  1.5169  0.6749 -0.7748
15674TIP3   OH268436   3.154   4.971  14.114  0.1210 -0.3311 -0.2207
15674TIP3    H168437   3.227   4.930  14.160 -1.2053 -0.4282  1.8951
15674TIP3    H268438   3.092   4.901  14.098 -0.7780  0.2485  0.6167
15675TIP3   OH268439   5.720   1.038   5.062  0.0052  0.1244 -0.6046
15675TIP3    H168440   5.778   1.070   5.132  0.2568 -1.1926 -0.1792
15675TIP3    H268441   5.643   1.005   5.109 -0.0372 -0.3163 -0.9770
15676TIP3   OH268442   4.950   3.664  17.347 -0.4572  0.1282  0.3274
15676TIP3    H168443   4.912   3.711  17.420 -0.1771  1.3123 -0.2641
15676TIP3    H268444   5.044   3.673  17.359 -0.4100  0.3709 -0.1899
15677TIP3   OH268445   2.064   5.314  14.766 -0.2132 -0.4612 -0.1269
15677TIP3    H168446   2.086   5.391  14.714 -0.2589 -0.1813  0.2606
15677TIP3    H268447   2.124   5.246  14.735 -2.1804 -1.1938 -2.6305
15678TIP3   OH268448   4.830   2.374  12.583 -0.3843 -0.5589  0.7184
15678TIP3    H168449   4.753   2.389  12.638 -1.4335 -1.0259 -0.5650
15678TIP3    H268450   4.819   2.434  12.509 -0.6850 -2.1421 -0.5928
15679TIP3   OH268451   0.946   2.037  17.548 -0.1955  0.2524 -0.3210
15679TIP3    H168452   0.959   2.123  17.507 -1.2388  0.6176  0.0815
15679TIP3    H268453   0.920   2.057  17.638  1.7866 -0.5379  0.4678
15680TIP3   OH268454   6.677   1.854   1.092  0.1198 -0.1537  0.4749
15680TIP3    H168455   6.694   1.885   1.003 -1.8431 -1.4848 -0.4193
15680TIP3    H268456   6.623   1.923   1.131  0.3655  0.0872  0.3973
15681TIP3   OH268457   5.860   4.674   0.349 -0.6602 -0.6572 -0.6344
15681TIP3    H168458   5.768   4.650   0.358 -1.2488  1.4858 -0.4239
15681TIP3    H268459   5.892   4.621   0.276 -1.9593 -1.6295 -0.5288
15682TIP3   OH268460   3.471   4.210  17.108 -0.1501  0.4085  0.6435
15682TIP3    H168461   3.565   4.203  17.094 -0.0972  1.1281  0.5943
15682TIP3    H268462   3.457   4.300  17.137 -0.9878  0.7773 -0.7885
15683TIP3   OH268463   3.086   6.169   3.839  0.3536 -0.2441  0.7856
15683TIP3    H168464   3.132   6.233   3.784  3.5570  0.1621  3.6065
15683TIP3    H268465   3.018   6.220   3.883 -0.2875  0.0570 -0.4789
15684TIP3   OH268466   2.714   6.165  16.263 -0.3688  0.0291  0.6047
15684TIP3    H168467   2.687   6.245  16.308 -0.2831  0.5404 -0.2323
15684TIP3    H268468   2.634   6.112  16.259 -0.7235  0.6038  0.0653
15685TIP3   OH268469   0.253   0.714  15.731  0.1495  0.2008  0.0578
15685TIP3    H168470   0.307   0.635  15.737 -1.2402 -0.7183  1.0381
15685TIP3    H268471   0.228   0.719  15.638  1.3711  0.3125 -0.2935
15686TIP3   OH268472   4.332   3.294  13.200 -0.8659 -0.8200 -0.1152
15686TIP3    H168473   4.374   3.362  13.148  0.9288 -2.0352 -0.3327
15686TIP3    H268474   4.313   3.336  13.284  0.5653 -0.1282 -0.1113
15687TIP3   OH268475   0.106   0.620  15.141 -0.2621 -0.5956  0.1327
15687TIP3    H168476   0.165   0.547  15.158  0.5453  0.4071  1.9511
15687TIP3    H268477   0.022   0.592  15.177 -0.5164 -1.3921 -1.0174
15688TIP3   OH268478   1.160   3.658  13.393  0.5092  0.1290  0.2526
15688TIP3    H168479   1.147   3.593  13.462 -2.5356 -2.1713 -2.2266
15688TIP3    H268480   1.236   3.627  13.344 -0.0869 -0.8165 -0.0902
15689TIP3   OH268481   3.823   1.327   3.689  0.1618 -0.0416  0.0901
15689TIP3    H168482   3.825   1.231   3.684 -0.7042 -0.0226 -0.9653
15689TIP3    H268483   3.915   1.352   3.697  0.6632 -0.8704 -2.2480
15690TIP3   OH268484   1.766   3.148   0.124  0.4714 -0.1044  0.4477
15690TIP3    H168485   1.757   3.227   0.177  1.0219 -1.5835  2.8985
15690TIP3    H268486   1.699   3.089   0.158  1.6720 -1.5554  0.4095
15691TIP3   OH268487   0.446   2.150  12.790 -0.1071 -0.0498 -0.0256
15691TIP3    H168488   0.500   2.229  12.796  1.4828 -1.1243  0.5336
15691TIP3    H268489   0.509   2.079  12.785 -1.4520 -1.1844 -3.0970
15692TIP3   OH268490   5.347   4.887  13.166  0.1202 -0.0047 -0.4919
15692TIP3    H168491   5.441   4.870  13.161  0.1704  0.1523 -0.1136
15692TIP3    H268492   5.320   4.897  13.075  0.6592  0.9394 -0.5601
15693TIP3   OH268493   4.121   5.984  16.893 -0.0763  0.0212  0.3404
15693TIP3    H168494   4.101   6.055  16.954  0.5945  1.2597 -0.8177
15693TIP3    H268495   4.035   5.955  16.862 -0.3734  2.0518 -1.0115
15694TIP3   OH268496   6.195   5.881  11.520 -0.2337  0.3881 -0.2579
15694TIP3    H168497   6.186   5.965  11.565 -0.5864  0.1627  0.1072
15694TIP3    H268498   6.289   5.873  11.503 -0.0885  0.4981  0.4274
15695TIP3   OH268499   1.265   0.863  17.242  0.0103 -0.1549 -0.3749
15695TIP3    H168500   1.194   0.910  17.199  0.6468 -0.6126 -2.0197
15695TIP3    H268501   1.308   0.929  17.297 -1.3509  0.2432  0.2448
15696TIP3   OH268502   3.846   6.564  13.006  0.2780 -0.3036 -0.1457
15696TIP3    H168503   3.925   6.617  13.011 -0.3274  0.5300  0.9077
15696TIP3    H268504   3.778   6.624  12.976 -0.3578 -0.5315  0.7988
15697TIP3   OH268505   1.243   3.857  10.852  0.5571  0.0940  0.2259
15697TIP3    H168506   1.225   3.853  10.946 -0.5506 -0.6403  0.0054
15697TIP3    H268507   1.321   3.803  10.840  0.2796 -0.4149  0.6496
15698TIP3   OH268508   0.079   5.434  11.590  0.3077  0.0905 -0.0821
15698TIP3    H168509   0.100   5.441  11.684  0.1823 -0.9278  0.0295
15698TIP3    H268510   0.138   5.496  11.548 -1.1969  2.3093  0.8584
15699TIP3   OH268511   2.304   2.555  16.889  0.1563  0.2960 -0.1642
15699TIP3    H168512   2.294   2.472  16.842  0.5265  0.4877 -0.5843
15699TIP3    H268513   2.224   2.604  16.869 -1.0078 -0.7111  1.6570
15700TIP3   OH268514   3.811   4.737   1.906 -0.4927  1.2030  0.1384
15700TIP3    H168515   3.750   4.735   1.980  0.3276  2.0688  0.8671
15700TIP3    H268516   3.769   4.794   1.842 -1.6701 -0.3425 -0.5145
15701TIP3   OH268517   4.994   1.649  13.517  0.1932 -0.0244 -0.1475
15701TIP3    H168518   5.016   1.680  13.606  1.0661  0.9292 -0.6699
15701TIP3    H268519   4.923   1.707  13.488 -0.4529 -0.6726  0.1115
15702TIP3   OH268520   5.224   3.179  10.883  0.1521 -0.1191  0.2053
15702TIP3    H168521   5.256   3.245  10.821 -2.5440 -0.1211 -1.3269
15702TIP3    H268522   5.152   3.223  10.929  0.5516 -0.9153  1.6486
15703TIP3   OH268523   6.084   5.299  11.664 -0.1490  0.4040 -0.0182
15703TIP3    H168524   6.041   5.364  11.609  1.2592  1.9953  0.6452
15703TIP3    H268525   6.178   5.315  11.650  0.2297 -0.5553  1.2403
15704TIP3   OH268526   4.866   6.268   3.289 -0.7083 -0.0709  0.2770
15704TIP3    H168527   4.876   6.306   3.376 -1.0639  1.1490 -0.1954
15704TIP3    H268528   4.785   6.306   3.255 -0.9030 -1.0017 -0.3603
15705TIP3   OH268529   6.170   1.256  12.431  0.0003  0.6855 -0.3367
15705TIP3    H168530   6.158   1.295  12.345 -0.5560  1.7311  0.1993
15705TIP3    H268531   6.176   1.330  12.491 -0.5405 -0.0323  0.6475
15706TIP3   OH268532   5.024   0.559  12.692 -0.8076 -0.0649  0.0070
15706TIP3    H168533   5.024   0.654  12.686 -2.7501 -0.0779 -0.9006
15706TIP3    H268534   4.954   0.539  12.754  0.8129 -0.8970  1.6806
15707TIP3   OH268535   0.210   0.002  11.120  0.0104 -0.0287  0.1085
15707TIP3    H168536   0.241   0.033  11.035 -0.4121 -0.7979 -0.3459
15707TIP3    H268537   0.285  -0.043  11.158  0.1853  0.2716  0.1156
15708TIP3   OH268538   2.460   2.066  14.159  0.3821  0.0461  0.1725
15708TIP3    H168539   2.366   2.048  14.158 -0.0523  2.0364 -0.4829
15708TIP3    H268540   2.472   2.124  14.235  1.0369 -0.0288  0.1319
15709TIP3   OH268541   3.868   6.665  12.517 -0.3974 -0.1008 -0.2986
15709TIP3    H168542   3.829   6.673  12.430  0.3841 -0.6048 -0.6977
15709TIP3    H268543   3.821   6.592  12.558  0.3930 -0.9735 -0.9302
15710TIP3   OH268544   1.551   1.600  13.462  0.2259  0.4132 -0.4726
15710TIP3    H168545   1.497   1.522  13.477  0.4617  0.0109 -1.6579
15710TIP3    H268546   1.529   1.658  13.536 -0.1234 -0.6640  0.3014
15711TIP3   OH268547   2.105   1.693  17.133  0.1407 -0.1304 -0.3332
15711TIP3    H168548   2.059   1.753  17.074 -1.1139 -0.7416 -0.0014
15711TIP3    H268549   2.037   1.656  17.188  1.0554 -0.9851  0.2605
15712TIP3   OH268550   0.113   3.471   0.640  0.4913  0.4512 -0.3920
15712TIP3    H168551   0.083   3.498   0.553  2.6333  1.7196 -0.8352
15712TIP3    H268552   0.104   3.550   0.694 -1.3426 -0.4810  0.7291
15713TIP3   OH268553   0.092   1.701  13.442  0.6022 -0.5866 -0.5731
15713TIP3    H168554   0.094   1.609  13.416  0.1285 -0.0026 -2.9300
15713TIP3    H268555   0.001   1.718  13.465  0.7934 -0.7997  0.4171
15714TIP3   OH268556   6.216   1.366   6.406 -0.4093 -0.2763  0.1261
15714TIP3    H168557   6.290   1.400   6.356 -0.6031 -2.1191 -1.4945
15714TIP3    H268558   6.255   1.309   6.472 -0.2831  0.6128  0.8478
15715TIP3   OH268559   1.052   6.569  12.112  0.0718  0.3456 -0.0213
15715TIP3    H168560   1.060   6.604  12.024  0.6310  0.2106 -0.0269
15715TIP3    H268561   0.958   6.551  12.122  0.1974 -1.2239 -1.2165
15716TIP3   OH268562   2.880   4.618   0.207  0.3595 -0.1246 -0.3708
15716TIP3    H168563   2.830   4.643   0.285  0.6333  1.5637 -0.6928
15716TIP3    H268564   2.952   4.565   0.240  0.4184  0.4933  0.5209
15717TIP3   OH268565   4.647   3.961   3.554 -0.0619 -0.0843 -0.3519
15717TIP3    H168566   4.579   3.893   3.562 -1.0383  0.9666  0.6001
15717TIP3    H268567   4.717   3.918   3.505 -2.0639 -0.7417 -2.9411
15718TIP3   OH268568   1.622   0.389  15.569  0.2334 -0.0187  0.1349
15718TIP3    H168569   1.534   0.428  15.563  0.5154  0.5956 -0.0988
15718TIP3    H268570   1.643   0.361  15.480  0.5603  0.4852  0.0486
15719TIP3   OH268571   3.438   6.242   2.883  0.2678  0.0164  0.4309
15719TIP3    H168572   3.488   6.189   2.944 -0.5945 -0.3200  0.8621
15719TIP3    H268573   3.492   6.246   2.804  1.4547  0.5541  1.2306
15720TIP3   OH268574   1.546   0.023  16.304 -0.4621 -0.0373  0.1668
15720TIP3    H168575   1.540   0.107  16.257  0.6593  0.5694  1.0490
15720TIP3    H268576   1.600  -0.032  16.248 -0.9745 -0.0904 -0.2875
15721TIP3   OH268577   2.036   2.643   3.995  0.8725  0.4453  0.2382
15721TIP3    H168578   2.028   2.735   4.021 -1.2890  0.4453 -0.2410
15721TIP3    H268579   1.950   2.620   3.960  0.6878 -2.3343  2.1376
15722TIP3   OH268580   5.085   3.582   4.796  0.4750 -0.1390 -0.2500
15722TIP3    H168581   5.062   3.492   4.772  2.0468 -0.3340 -1.2064
15722TIP3    H268582   5.101   3.578   4.890 -0.1869 -0.6949 -0.1522
15723TIP3   OH268583   5.391   4.035  12.002  0.1547  0.3181 -0.3119
15723TIP3    H168584   5.374   3.944  11.979  1.2883 -0.4171  1.6142
15723TIP3    H268585   5.485   4.038  12.021 -0.1828  1.4997  1.3048
15724TIP3   OH268586   1.911   0.469   0.744 -0.3036 -0.8334  0.1635
15724TIP3    H168587   1.914   0.561   0.771 -0.2927 -1.1774  1.4056
15724TIP3    H268588   1.830   0.436   0.784 -0.7656 -1.1533 -1.0091
15725TIP3   OH268589   0.014   1.059  12.959 -0.1086 -0.0502 -0.0631
15725TIP3    H168590  -0.055   1.096  13.014 -0.0228  0.0004  0.0108
15725TIP3    H268591   0.037   1.130  12.899 -0.4542 -0.2221 -0.3989
15726TIP3   OH268592   4.791   0.132   0.830 -0.3818 -0.2451  0.3835
15726TIP3    H168593   4.821   0.073   0.899 -1.7488 -1.0317  0.3393
15726TIP3    H268594   4.861   0.197   0.822  0.6133 -1.1679  1.2610
15727TIP3   OH268595   2.641   6.462  12.015 -0.1437  0.2928  0.3490
15727TIP3    H168596   2.619   6.478  11.924 -0.8214 -1.5408  0.1470
15727TIP3    H268597   2.638   6.549  12.056 -0.6190  1.0401 -1.1867
15728TIP3   OH268598   2.837   1.518  14.668  0.0276 -0.5087  0.1876
15728TIP3    H168599   2.749   1.521  14.631 -0.5283  1.1909  1.5147
15728TIP3    H268600   2.824   1.489  14.759  0.7782  0.0645  0.4915
15729TIP3   OH268601   1.776   3.121  17.052 -0.0012  1.3040  0.2451
15729TIP3    H168602   1.789   3.165  17.137 -2.3785 -1.7317  2.3987
15729TIP3    H268603   1.811   3.033  17.065 -0.9467  0.5735 -1.7482
15730TIP3   OH268604   1.086   2.744  12.363 -0.2516  0.1186  0.1216
15730TIP3    H168605   1.064   2.652  12.354 -2.6608  0.6309  0.0777
15730TIP3    H268606   1.182   2.746  12.367 -0.1696 -2.5316  1.9980
15731TIP3   OH268607   0.040   4.245  15.320  0.3356  0.3895  0.1643
15731TIP3    H168608   0.005   4.327  15.355  0.7428  0.6893 -0.1223
15731TIP3    H268609   0.094   4.209  15.390 -0.2393  0.1116  0.4723
15732TIP3   OH268610   3.511   4.627   4.592 -0.4135 -0.1323  0.0670
15732TIP3    H168611   3.523   4.620   4.687  1.9665  1.9327  0.0312
15732TIP3    H268612   3.459   4.707   4.581  3.2456  2.4468 -0.3370
15733TIP3   OH268613   4.512   4.372  15.768  0.0887 -0.1211  0.1773
15733TIP3    H168614   4.593   4.419  15.786  0.9875 -1.5208 -0.0396
15733TIP3    H268615   4.504   4.310  15.840  0.6904 -1.8499 -1.1603
15734TIP3   OH268616   6.138   1.552  14.389 -1.0946  0.3238 -0.0306
15734TIP3    H168617   6.187   1.554  14.307  1.1640 -1.0556  1.1821
15734TIP3    H268618   6.053   1.516  14.365 -0.9418  1.1301 -1.9399
15735TIP3   OH268619   6.633   1.371  13.316 -0.3201  0.5368 -0.3637
15735TIP3    H168620   6.669   1.316  13.385  1.8046  0.4157 -1.4966
15735TIP3    H268621   6.623   1.457  13.357 -0.6308  0.0987  0.5127
15736TIP3   OH268622   5.014   4.749   4.835  0.8521  1.0844 -0.4225
15736TIP3    H168623   4.918   4.755   4.844  0.7019 -0.9546 -0.3180
15736TIP3    H268624   5.028   4.701   4.754  1.7932  0.9634 -0.1962
15737TIP3   OH268625   0.501   5.034  13.453 -0.2255 -0.2283  0.5210
15737TIP3    H168626   0.540   5.054  13.368 -0.0948 -0.3578  0.5502
15737TIP3    H268627   0.504   4.939  13.460  0.1499 -0.1979  0.8480
15738TIP3   OH268628   1.494   0.100   2.103  0.5854 -0.0388  0.2909
15738TIP3    H168629   1.489   0.110   2.198 -0.1132 -0.0464  0.2663
15738TIP3    H268630   1.409   0.063   2.079  0.4402  0.7208 -0.4270
15739TIP3   OH268631   4.144   2.875  12.648  0.0315  0.6389 -0.1924
15739TIP3    H168632   4.164   2.946  12.587  1.6514  0.4175  0.0463
15739TIP3    H268633   4.050   2.861  12.639 -0.0560  1.8350 -1.3008
15740TIP3   OH268634   3.958   0.766   5.568  0.5223  0.3808  0.3479
15740TIP3    H168635   3.933   0.823   5.495  0.2951  0.0370  0.1589
15740TIP3    H268636   4.034   0.718   5.536 -0.1953 -0.5270 -0.0469
15741TIP3   OH268637   1.132   5.932  14.640  0.3429 -0.0335 -0.2673
15741TIP3    H168638   1.183   5.965  14.567  0.2972 -0.9522 -0.7326
15741TIP3    H268639   1.047   5.909  14.601  0.1729 -0.1313  0.1551
15742TIP3   OH268640   3.396   4.204   3.065  0.0354 -0.2623  0.1908
15742TIP3    H168641   3.386   4.291   3.104  1.8548 -0.5408  1.4433
15742TIP3    H268642   3.477   4.210   3.014 -0.2757 -0.9845 -0.3983
15743TIP3   OH268643   3.261   1.578   3.352 -0.0685  0.5050  0.3206
15743TIP3    H168644   3.306   1.635   3.290  1.5346 -1.0595 -0.0543
15743TIP3    H268645   3.197   1.530   3.300  2.2464 -1.8611 -0.5842
15744TIP3   OH268646   0.935   6.049   1.626  0.2661 -0.5581 -0.0082
15744TIP3    H168647   0.968   6.081   1.710  0.7124  0.8934 -0.6955
15744TIP3    H268648   0.979   6.104   1.561  1.0222 -2.5756 -1.2953
15745TIP3   OH268649   4.632   3.550   3.373  0.6837 -0.1989  0.2474
15745TIP3    H168650   4.616   3.517   3.461  1.6762  0.5536  0.7223
15745TIP3    H268651   4.646   3.471   3.320  1.0900 -0.6176  0.9669
15746TIP3   OH268652   6.705   0.399  16.042  0.0306  0.2724 -0.1370
15746TIP3    H168653   6.653   0.397  16.122 -0.2552 -0.6977 -0.3265
15746TIP3    H268654   6.772   0.464  16.058  0.2302 -0.2068  1.0589
15747TIP3   OH268655   5.254   4.293   4.424  0.2445  0.3011  0.2234
15747TIP3    H168656   5.324   4.245   4.380 -0.8292 -0.8404 -0.2886
15747TIP3    H268657   5.200   4.327   4.352 -0.2648  0.3408  0.6196
15748TIP3   OH268658   2.362   0.768  16.058  0.1867  0.2819  0.4660
15748TIP3    H168659   2.284   0.812  16.024  0.1403  0.6492  1.0465
15748TIP3    H268660   2.426   0.775  15.986  0.1167  1.1257  0.4745
15749TIP3   OH268661   4.263   3.820   2.192  0.7124  0.0650 -0.0586
15749TIP3    H168662   4.243   3.811   2.285 -1.2856  1.8885 -0.2222
15749TIP3    H268663   4.182   3.792   2.148  0.6891  1.6290 -1.0920
15750TIP3   OH268664   0.395   5.654  15.437  0.5391  0.2056  0.5252
15750TIP3    H168665   0.397   5.735  15.386  0.9381  0.4451  0.9142
15750TIP3    H268666   0.482   5.649  15.478  0.0337  0.3138  1.6441
15751TIP3   OH268667   6.327   1.710   2.616  0.6551  0.3466  0.4990
15751TIP3    H168668   6.295   1.622   2.636 -0.4792  0.9579  1.5014
15751TIP3    H268669   6.293   1.729   2.529  0.6601 -0.0988  0.3991
15752TIP3   OH268670   1.337   4.722  13.234 -0.0412 -0.0723  0.0244
15752TIP3    H168671   1.416   4.775  13.229 -0.4372  0.4732 -0.4685
15752TIP3    H268672   1.343   4.680  13.320  0.2135  0.8608  0.4761
15753TIP3   OH268673   3.634   1.270  13.716 -0.3200 -0.0282 -0.1161
15753TIP3    H168674   3.617   1.335  13.648  0.1716  0.8162  0.5270
15753TIP3    H268675   3.551   1.261  13.763 -1.0008 -1.5261 -1.5498
15754TIP3   OH268676   4.806   0.688   2.289  0.1537  0.4412 -0.6722
15754TIP3    H168677   4.807   0.603   2.244  0.7108  0.5914 -0.9486
15754TIP3    H268678   4.787   0.751   2.220 -0.6497  0.5097 -0.4000
15755TIP3   OH268679   4.574   4.888  12.076 -0.7009 -0.2875  0.6695
15755TIP3    H168680   4.594   4.839  12.156 -2.8821  0.5440  1.7917
15755TIP3    H268681   4.535   4.823  12.018  0.8452 -0.8852  0.2638
15756TIP3   OH268682   4.778   5.283  15.514  0.2204 -0.2004 -0.2299
15756TIP3    H168683   4.856   5.316  15.559  1.1870  0.6210 -2.4021
15756TIP3    H268684   4.810   5.214  15.456 -0.8690 -0.7028 -0.2513
15757TIP3   OH268685   0.788   4.041  17.035  0.1544  0.2966 -0.1369
15757TIP3    H168686   0.876   4.003  17.034  1.4269  2.9622  0.2588
15757TIP3    H268687   0.772   4.066  16.944  0.3841  0.9413 -0.0092
15758TIP3   OH268688   3.887   1.304   0.374  0.0918 -1.1944 -0.0147
15758TIP3    H168689   3.931   1.388   0.387  0.2959 -1.3492  0.3081
15758TIP3    H268690   3.939   1.242   0.426 -0.0162 -1.5313 -0.3099
15759TIP3   OH268691   4.401   0.937   5.015  0.8619  0.1137 -0.9615
15759TIP3    H168692   4.463   0.992   4.967  1.0146  0.2572 -0.6070
15759TIP3    H268693   4.344   1.000   5.059  1.5050  0.0137  0.0599
15760TIP3   OH268694   4.927   2.188  11.222  0.3177  0.2325 -0.3125
15760TIP3    H168695   4.996   2.132  11.186  1.2766  0.4084  1.1755
15760TIP3    H268696   4.973   2.265  11.255 -0.6986  0.7409 -0.0501
15761TIP3   OH268697   4.287   6.672   0.892  1.0631 -0.0713 -0.0893
15761TIP3    H168698   4.299   6.669   0.987 -2.0554  2.4633  0.5478
15761TIP3    H268699   4.226   6.600   0.873  0.9410  0.0160 -0.0264
15762TIP3   OH268700   6.048   0.017   4.820 -0.1933  0.5705 -0.8221
15762TIP3    H168701   6.048  -0.008   4.912  2.6800 -1.7403 -1.2894
15762TIP3    H268702   5.980  -0.037   4.780 -1.4638  1.5957 -0.1192
15763TIP3   OH268703   3.317   1.725  17.177  0.0058  0.2375 -0.0798
15763TIP3    H168704   3.407   1.700  17.157 -0.2830  0.0842 -1.2965
15763TIP3    H268705   3.282   1.755  17.093 -1.3614 -0.5622  0.1861
15764TIP3   OH268706   4.713   5.787  11.138  0.0792 -0.0227  0.0386
15764TIP3    H168707   4.699   5.860  11.078 -1.1631  0.2280  0.5955
15764TIP3    H268708   4.694   5.709  11.087  0.0880  0.1191 -0.1810
15765TIP3   OH268709   2.155   5.033  16.207  0.2632 -0.0445  0.1430
15765TIP3    H168710   2.130   4.956  16.155  0.4522 -0.3054  0.4284
15765TIP3    H268711   2.238   5.008  16.247 -0.5726 -0.4334  1.7352
15766TIP3   OH268712   0.465   1.343  16.526 -0.0745 -0.1477 -0.8678
15766TIP3    H168713   0.500   1.255  16.533 -0.1415 -0.0796  0.9459
15766TIP3    H268714   0.456   1.359  16.432 -1.2093 -2.5224 -1.2390
15767TIP3   OH268715   1.714   4.102  16.819 -0.2351  0.2071  0.9369
15767TIP3    H168716   1.646   4.124  16.755 -1.1448 -4.1301  0.1255
15767TIP3    H268717   1.669   4.106  16.904 -0.4035  1.1321  0.8108
15768TIP3   OH268718   4.794   5.200  16.930 -0.1351  0.1570  0.3640
15768TIP3    H168719   4.714   5.235  16.891 -0.7077 -1.0737  0.3929
15768TIP3    H268720   4.767   5.169  17.016  0.3205 -0.5082  0.2679
15769TIP3   OH268721   3.149   0.689  11.890  0.0483 -0.7063 -0.1443
15769TIP3    H168722   3.053   0.689  11.885  0.0663 -1.8618 -0.8282
15769TIP3    H268723   3.169   0.649  11.975 -0.0639  1.5904  1.0420
15770TIP3   OH268724   2.326   1.016  12.001  0.2620  0.2816 -0.0276
15770TIP3    H168725   2.384   0.971  11.939  1.3605  2.3104 -0.5529
15770TIP3    H268726   2.254   1.048  11.948 -0.1257 -0.1888  0.2097
15771TIP3   OH268727   0.321   1.817   4.313  0.3209  0.3618  0.1298
15771TIP3    H168728   0.279   1.803   4.228 -0.1121 -0.2232  0.4349
15771TIP3    H268729   0.321   1.731   4.354 -2.2833  1.1132  1.9972
15772TIP3   OH268730   4.951   2.333   2.795 -0.0398  0.0452 -0.4366
15772TIP3    H168731   4.864   2.359   2.766  0.1436  0.3472 -0.7253
15772TIP3    H268732   5.010   2.371   2.730  0.2631 -0.7566 -0.6345
15773TIP3   OH268733   4.433   4.103   6.681 -0.0759  0.2931 -0.3446
15773TIP3    H168734   4.485   4.044   6.627 -0.4373  0.7934 -1.2722
15773TIP3    H268735   4.447   4.189   6.642 -0.8735  0.5667 -0.0543
15774TIP3   OH268736   6.353   5.643  16.428 -0.4148 -0.3039  0.0667
15774TIP3    H168737   6.369   5.554  16.460 -0.7096 -0.1110  0.7757
15774TIP3    H268738   6.440   5.675  16.401 -0.0486 -0.2780  1.2167
15775TIP3   OH268739   1.599   5.166   2.809 -0.0345  0.0105  0.6142
15775TIP3    H168740   1.595   5.115   2.728 -0.7086 -0.1683  0.7577
15775TIP3    H268741   1.629   5.253   2.781  0.3787 -0.2411  0.2650
15776TIP3   OH268742   0.155   5.991  14.598  0.0481  0.0835 -0.4681
15776TIP3    H168743   0.233   5.993  14.541 -0.0164  0.4149 -0.5463
15776TIP3    H268744   0.098   5.926  14.557 -0.9850  1.8998 -2.1051
15777TIP3   OH268745   1.897   4.657  11.616  0.5854  0.2422  0.1836
15777TIP3    H168746   1.802   4.661  11.623  0.4742  0.4383 -1.1613
15777TIP3    H268747   1.927   4.634  11.704 -0.9326 -3.6209 -0.1177
15778TIP3   OH268748   0.769   5.666   0.732  0.4665 -0.7933  0.4507
15778TIP3    H168749   0.781   5.602   0.661  1.7107 -0.6106  0.4789
15778TIP3    H268750   0.780   5.751   0.689  2.5778 -0.7099  1.0731
15779TIP3   OH268751   3.089   3.138   0.336 -0.5795  0.1770  0.3764
15779TIP3    H168752   3.030   3.092   0.278 -0.8215 -1.0786  1.5658
15779TIP3    H268753   3.111   3.074   0.404  0.5277  1.2518  1.0771
15780TIP3   OH268754   2.691   2.403  12.723  0.4350  0.6892  0.2967
15780TIP3    H168755   2.784   2.392  12.703 -0.1746 -1.0246 -2.0271
15780TIP3    H268756   2.682   2.367  12.812  1.5131 -2.5177 -0.7233
15781TIP3   OH268757   2.695   4.966  15.661  0.1711  0.2317 -0.0236
15781TIP3    H168758   2.677   5.060  15.660  1.0598  0.4089 -0.1071
15781TIP3    H268759   2.790   4.959  15.647  0.0346 -0.6979 -0.6051
15782TIP3   OH268760   4.620   3.285   2.097  0.9896 -0.3377  0.2019
15782TIP3    H168761   4.613   3.280   2.192 -0.0903  2.6783  0.4055
15782TIP3    H268762   4.714   3.289   2.080  1.2055 -1.3035  1.0816
15783TIP3   OH268763   3.020   0.112  13.326 -0.3587 -0.1170  0.2637
15783TIP3    H168764   3.114   0.132  13.332 -0.5387  0.4811  1.2936
15783TIP3    H268765   3.002   0.111  13.232  0.3961  1.1258  0.0880
15784TIP3   OH268766   4.991   5.210   0.293  0.2718  0.1656  1.0517
15784TIP3    H168767   4.972   5.145   0.360 -0.4588  0.2638  0.9492
15784TIP3    H268768   5.081   5.191   0.265  0.0965 -0.7421  1.0897
15785TIP3   OH268769   5.010   3.161  12.873 -0.3348  0.8382  0.2657
15785TIP3    H168770   4.953   3.097  12.830  0.5252  1.0311 -1.2068
15785TIP3    H268771   4.955   3.199  12.942 -1.3301 -0.4151  0.1981
15786TIP3   OH268772   1.327   2.562   3.977 -0.2665 -0.1308  0.4919
15786TIP3    H168773   1.236   2.532   3.978 -0.6052  0.7969 -0.1765
15786TIP3    H268774   1.340   2.594   3.887  0.9408 -0.8709  0.3782
15787TIP3   OH268775   1.476   0.558  17.286  0.0282 -0.4401 -0.2992
15787TIP3    H168776   1.401   0.584  17.231 -1.3543  1.3540  2.2343
15787TIP3    H268777   1.445   0.481  17.333  0.3549 -0.5952 -0.3349
15788TIP3   OH268778   0.437   5.736  12.884  0.2190 -0.2747  0.0987
15788TIP3    H168779   0.390   5.718  12.802  3.1449 -1.4734 -1.4382
15788TIP3    H268780   0.522   5.768  12.857  1.2062 -0.4528  2.7079
15789TIP3   OH268781   5.324   3.816  15.799 -0.1016  0.5249  0.0237
15789TIP3    H168782   5.236   3.854  15.802 -0.1841  0.4168  3.5706
15789TIP3    H268783   5.373   3.863  15.866  1.7569 -1.1836 -0.0216
15790TIP3   OH268784   5.524   4.865   2.494  0.0228 -0.4677 -0.3211
15790TIP3    H168785   5.524   4.948   2.542  0.7644 -0.7688  0.2190
15790TIP3    H268786   5.484   4.886   2.410 -0.7786  0.1933  0.2166
15791TIP3   OH268787   0.561   2.336  10.671 -0.1376 -0.4576 -0.9903
15791TIP3    H168788   0.577   2.419  10.625 -1.2320 -0.6117 -1.7085
15791TIP3    H268789   0.647   2.296  10.680  0.4651  0.9634 -0.2141
15792TIP3   OH268790   5.874   4.913  13.102  0.5971  0.2273  0.2859
15792TIP3    H168791   5.806   4.940  13.040  0.4554  0.9544  0.7414
15792TIP3    H268792   5.921   4.843  13.057  0.0642  0.2723 -0.3646
15793TIP3   OH268793   4.382   2.982  12.120 -0.6981  0.6452  0.1026
15793TIP3    H168794   4.464   3.002  12.076 -0.4515  0.4400  0.4557
15793TIP3    H268795   4.314   3.014  12.061 -0.3996 -0.1718 -0.7150
15794TIP3   OH268796   6.280   3.684  17.565 -0.3188  0.1596  0.0526
15794TIP3    H168797   6.296   3.778  17.573 -0.4938  0.0803  1.8361
15794TIP3    H268798   6.362   3.649  17.531 -0.0395  0.8830 -0.0424
15795TIP3   OH268799   3.944   0.216  12.148 -0.4710  0.5788 -0.9509
15795TIP3    H168800   3.896   0.299  12.141 -0.6894  0.4942 -0.4844
15795TIP3    H268801   4.021   0.237  12.201 -2.2925 -0.2377  2.2675
15796TIP3   OH268802   4.893   5.499   0.358 -0.4208 -0.0443 -0.4366
15796TIP3    H168803   4.945   5.447   0.296  2.7573 -0.6265  2.3609
15796TIP3    H268804   4.914   5.590   0.337  1.0890 -0.2484  0.0280
15797TIP3   OH268805   1.025   2.294  14.479 -0.2150 -0.3731  0.1839
15797TIP3    H168806   1.112   2.256  14.491  0.1664  0.4422  0.0820
15797TIP3    H268807   0.964   2.224  14.504  0.4712 -0.7542  0.8225
15798TIP3   OH268808   5.776   6.624   1.370 -0.0746  0.3788 -0.2084
15798TIP3    H168809   5.779   6.666   1.284 -0.3664  0.4449 -0.1857
15798TIP3    H268810   5.786   6.530   1.351  1.3404  0.5110 -0.2023
15799TIP3   OH268811   4.894   1.638   2.280  0.1737  0.3618  0.3806
15799TIP3    H168812   4.803   1.649   2.252 -0.1606 -0.9015  0.8980
15799TIP3    H268813   4.890   1.574   2.351  1.6009 -0.7291 -0.4565
15800TIP3   OH268814   5.785   4.334  16.753  0.2272  0.3494 -0.2736
15800TIP3    H168815   5.743   4.299  16.832  1.5252 -0.3610  0.1255
15800TIP3    H268816   5.822   4.257  16.710  1.1163  0.9515 -0.6075
15801TIP3   OH268817   4.760   2.392  16.343  0.7072 -0.1542  0.0108
15801TIP3    H168818   4.786   2.479  16.373  1.5029 -0.4014  0.0568
15801TIP3    H268819   4.707   2.357  16.415  3.8094 -1.3329  1.9275
15802TIP3   OH268820   0.012   0.398   4.395 -0.3510  0.8620  0.1456
15802TIP3    H168821  -0.002   0.316   4.443 -0.4293  1.7410  1.7058
15802TIP3    H268822  -0.073   0.416   4.354 -0.2450  0.0246 -0.4669
15803TIP3   OH268823   1.095   3.588  11.073 -0.7060 -0.0026 -0.1142
15803TIP3    H168824   1.013   3.541  11.059 -0.2883 -0.5152 -0.9051
15803TIP3    H268825   1.163   3.527  11.043 -0.0452  0.4710  0.3919
15804TIP3   OH268826   4.303   6.223   0.617  0.5079  0.2169  0.1714
15804TIP3    H168827   4.274   6.254   0.703  0.1455 -1.2722  0.6236
15804TIP3    H268828   4.274   6.290   0.556 -2.0580 -0.1690  0.8552
15805TIP3   OH268829   0.917   1.599   2.352  0.5807 -0.7138 -0.4277
15805TIP3    H168830   0.992   1.650   2.322  1.1772  0.2352  2.4015
15805TIP3    H268831   0.846   1.663   2.359  0.6622 -0.7298  0.7961
15806TIP3   OH268832   0.927   4.890  12.987 -0.3805  0.4057 -0.0403
15806TIP3    H168833   0.961   4.825  13.048 -0.7623 -0.1885 -0.4537
15806TIP3    H268834   0.916   4.969  13.041 -1.8918 -0.4451  0.9760
15807TIP3   OH268835   0.145   4.901  11.478 -0.7510 -0.3969  0.6139
15807TIP3    H168836   0.237   4.919  11.495 -0.6497 -0.4974  0.1761
15807TIP3    H268837   0.128   4.818  11.524 -0.1055 -1.4305 -0.9474
15808TIP3   OH268838   0.232   3.726  12.101 -0.0279 -0.2889 -0.1807
15808TIP3    H168839   0.291   3.763  12.036  1.4241  1.1421  1.8290
15808TIP3    H268840   0.288   3.673  12.158 -1.4547 -2.5302 -0.7272
15809TIP3   OH268841   1.126   0.313   5.597  0.0741  0.3899  0.1932
15809TIP3    H168842   1.187   0.384   5.619 -0.8398  1.0037  0.8048
15809TIP3    H268843   1.093   0.282   5.681 -1.2426  0.7797 -0.1500
15810TIP3   OH268844   6.368   6.092  12.739 -0.2948  0.3674  0.6970
15810TIP3    H168845   6.424   6.167  12.717 -0.0888  0.4852  1.5949
15810TIP3    H268846   6.280   6.118  12.711 -0.0325  0.4796 -0.0424
15811TIP3   OH268847   3.581   3.170  12.364  0.0480 -0.2852  0.2984
15811TIP3    H168848   3.636   3.247  12.382  0.9882 -0.8230 -0.1704
15811TIP3    H268849   3.582   3.121  12.446 -1.7843  0.8974  1.0966
15812TIP3   OH268850   6.294   6.180   1.366  0.5842 -0.6746 -0.0640
15812TIP3    H168851   6.271   6.268   1.337 -1.2427 -1.0419  0.1963
15812TIP3    H268852   6.321   6.191   1.458 -0.2814 -0.4721  0.1716
15813TIP3   OH268853   5.382   0.095   4.544  0.1798  0.2022  0.0465
15813TIP3    H168854   5.320   0.096   4.617  0.2173  1.9057  0.0968
15813TIP3    H268855   5.389   0.003   4.519 -0.1634 -0.3545  1.8946
15814TIP3   OH268856   4.302   4.544  14.162 -0.1332 -0.3269 -0.7204
15814TIP3    H168857   4.354   4.540  14.082  0.5004 -0.2767 -0.3226
15814TIP3    H268858   4.340   4.617  14.211 -0.5230 -0.3495 -0.3824
15815TIP3   OH268859   6.234   1.865  12.443  0.5726 -0.6253  0.2670
15815TIP3    H168860   6.155   1.899  12.401  0.3364  0.7674  1.7617
15815TIP3    H268861   6.300   1.933  12.428  0.8801 -0.7851  0.8892
15816TIP3   OH268862   0.847   5.920   0.699  0.8381 -0.2326  0.1016
15816TIP3    H168863   0.936   5.888   0.716  0.2190 -1.9203  0.4050
15816TIP3    H268864   0.804   5.919   0.785  0.3897  0.1209 -0.1152
15817TIP3   OH268865   3.753   0.142  13.168 -0.4082 -0.2233  0.2767
15817TIP3    H168866   3.719   0.222  13.129  3.2279  0.5794 -1.7831
15817TIP3    H268867   3.701   0.072  13.130 -3.4626  1.0055  1.8783
15818TIP3   OH268868   4.749   0.981  12.925 -0.2096 -0.4214  0.8992
15818TIP3    H168869   4.758   0.900  12.875  0.5662 -0.0667  0.4503
15818TIP3    H268870   4.687   0.959  12.995 -1.6714 -0.8152 -0.4422
15819TIP3   OH268871   4.508   5.499   0.478  0.0003  0.4463 -0.2220
15819TIP3    H168872   4.525   5.574   0.421 -0.0279  1.0794  0.5666
15819TIP3    H268873   4.550   5.425   0.435  0.9288  1.1216 -0.5045
15820TIP3   OH268874   4.478   4.811   2.834 -0.4023  0.6380  0.3751
15820TIP3    H168875   4.460   4.748   2.765  0.7625 -0.7133  1.2585
15820TIP3    H268876   4.433   4.891   2.806 -1.9043 -0.5634 -0.7793
15821TIP3   OH268877   0.825   6.095   5.432 -0.0198  0.2289 -0.8997
15821TIP3    H168878   0.796   6.171   5.482  0.6818  0.8106 -1.3568
15821TIP3    H268879   0.875   6.043   5.495 -1.0635 -0.2076 -0.4094
15822TIP3   OH268880   4.723   1.993  14.675  0.1710 -0.0868 -0.1662
15822TIP3    H168881   4.671   2.034  14.744  1.7187  1.2002  0.2984
15822TIP3    H268882   4.803   1.963  14.719  1.3321  1.0435 -1.3992
15823TIP3   OH268883   5.568   3.924  10.535 -0.1985 -0.4020  0.3151
15823TIP3    H168884   5.543   3.872  10.611  0.7567  0.5231  1.3029
15823TIP3    H268885   5.528   4.010  10.551  1.4187  0.3256  0.6580
15824TIP3   OH268886   5.019   3.358   4.686 -0.1360 -0.6142  0.1475
15824TIP3    H168887   4.932   3.393   4.668 -0.3504 -0.9687  0.4843
15824TIP3    H268888   5.003   3.272   4.726  0.3951 -1.3068 -1.0985
15825TIP3   OH268889   6.276   2.060  17.072 -0.1760  0.2202  0.2562
15825TIP3    H168890   6.366   2.094  17.067 -0.0343 -0.3066 -1.3625
15825TIP3    H268891   6.226   2.117  17.014 -0.4126 -0.8187 -0.6023
15826TIP3   OH268892   2.941   2.003  13.887  0.9696 -0.3448  0.1347
15826TIP3    H168893   2.987   2.011  13.970 -2.2884  0.0307  2.0647
15826TIP3    H268894   2.936   1.908  13.871  1.7032 -0.4106  0.2719
15827TIP3   OH268895   5.790   2.228   0.043  0.4058 -0.4397 -0.2632
15827TIP3    H168896   5.829   2.150   0.083  0.3652 -0.8674 -1.0393
15827TIP3    H268897   5.864   2.283   0.020  0.4960 -0.7630 -0.7497
15828TIP3   OH268898   3.450   6.407  13.375 -0.0823 -0.1261  0.0435
15828TIP3    H168899   3.401   6.488  13.391 -0.4071 -0.7463  2.6068
15828TIP3    H268900   3.400   6.361  13.308 -1.6311  0.3966  0.7922
15829TIP3   OH268901   2.318   1.600  12.962 -0.2107  0.1706 -0.0255
15829TIP3    H168902   2.241   1.552  12.931 -0.4021  0.9943 -0.8535
15829TIP3    H268903   2.354   1.641  12.884  1.9108 -1.3163  0.1024
15830TIP3   OH268904   1.415   2.729   4.612  0.0639 -0.3830 -0.1520
15830TIP3    H168905   1.433   2.692   4.526  1.0401 -0.6048  0.1337
15830TIP3    H268906   1.496   2.774   4.636 -0.3761  0.1153  0.4307
15831TIP3   OH268907   4.434   2.155  17.325  0.3587  0.3781  0.9010
15831TIP3    H168908   4.500   2.185  17.263 -0.5789  0.8784  0.1269
15831TIP3    H268909   4.404   2.071  17.289  0.5381  0.1708  1.2296
15832TIP3   OH268910   2.042   2.382  11.184 -0.1608 -0.7440 -0.2115
15832TIP3    H168911   1.969   2.392  11.123 -1.0525  1.7256  1.1129
15832TIP3    H268912   2.095   2.461  11.171 -0.4189 -0.1005  2.1938
15833TIP3   OH268913   6.093   6.357  15.669 -1.0990  0.0920 -0.1454
15833TIP3    H168914   6.131   6.320  15.748  1.5937  0.1036 -1.3338
15833TIP3    H268915   6.071   6.447  15.692  1.3169  0.6631  0.1671
15834TIP3   OH268916   2.134   6.133  16.666  0.4599  0.2519 -0.2622
15834TIP3    H168917   2.133   6.098  16.755  0.8822  0.0169 -0.3457
15834TIP3    H268918   2.095   6.064  16.612 -2.0532  1.3410  0.0612
15835TIP3   OH268919   5.991   1.058  11.840  0.7823  0.2523  0.2750
15835TIP3    H168920   5.947   1.124  11.786  0.2761 -1.5509 -1.6246
15835TIP3    H268921   5.924   1.030  11.903 -0.0048 -0.6318 -0.9265
15836TIP3   OH268922   2.583   4.537  15.973 -0.0688 -0.5146 -0.2018
15836TIP3    H168923   2.610   4.449  15.945  0.4893 -0.8686  1.3051
15836TIP3    H268924   2.653   4.594  15.942 -0.6448 -0.5232 -1.5573
15837TIP3   OH268925   1.072   4.464  11.872 -0.3231  0.4254  0.0074
15837TIP3    H168926   1.027   4.509  11.801 -0.3992  1.1877  0.5294
15837TIP3    H268927   1.091   4.533  11.936  1.4379  0.1033 -0.1187
15838TIP3   OH268928   1.028   6.443  13.003  0.1911  0.5094  0.3285
15838TIP3    H168929   0.982   6.403  13.077 -0.7884  0.7848 -0.1160
15838TIP3    H268930   1.068   6.369  12.957 -2.0349 -0.1040 -0.7827
15839TIP3   OH268931   4.789   6.226  16.174 -0.8428  0.1617 -0.2391
15839TIP3    H168932   4.781   6.300  16.235  1.4025  0.4464 -0.1854
15839TIP3    H268933   4.851   6.257  16.108  0.7732 -1.8707  0.2071
15840TIP3   OH268934   3.296   1.573   3.880 -0.4696  0.2713 -0.2780
15840TIP3    H168935   3.278   1.590   3.972 -1.0224 -1.0100 -0.1302
15840TIP3    H268936   3.351   1.495   3.880 -0.4862  0.2498 -1.0332
15841TIP3   OH268937   1.328   3.307   1.195  0.5701  0.2748 -0.3956
15841TIP3    H168938   1.400   3.336   1.251  0.9985 -0.7805 -0.3824
15841TIP3    H268939   1.313   3.216   1.220  0.1489  0.0705 -1.3483
15842TIP3   OH268940   0.947   4.479  10.811 -0.0844 -0.0084 -0.1924
15842TIP3    H168941   0.939   4.564  10.767  0.6481 -0.0325 -0.3900
15842TIP3    H268942   0.904   4.492  10.895  0.8319  0.8604  0.1735
15843TIP3   OH268943   2.330   0.654   1.806  0.0885  0.0063  0.1300
15843TIP3    H168944   2.342   0.593   1.878  1.3130 -1.6418 -1.3900
15843TIP3    H268945   2.235   0.660   1.795 -0.0957 -0.1044  1.5270
15844TIP3   OH268946   6.615   5.068  14.969  0.2947 -0.3041 -0.2279
15844TIP3    H168947   6.669   4.996  15.001 -0.6808 -0.6826  0.6018
15844TIP3    H268948   6.644   5.144  15.020  1.4490 -0.0386 -1.2286
15845TIP3   OH268949   1.587   3.071  16.309  0.3301  0.5368  0.1029
15845TIP3    H168950   1.566   3.031  16.394 -0.1630  2.0239  0.7221
15845TIP3    H268951   1.548   3.158  16.314  1.3231  1.0865 -1.2077
15846TIP3   OH268952   3.960   3.965  15.094  0.7327 -0.6717  0.1013
15846TIP3    H168953   3.941   4.054  15.125  0.8595 -0.6205  0.0335
15846TIP3    H268954   3.888   3.944  15.035  0.9716 -0.4148 -0.2821
15847TIP3   OH268955   4.006   6.052  15.619  0.2057 -0.0884 -0.2277
15847TIP3    H168956   4.085   6.073  15.569 -0.2712  0.7529 -0.6389
15847TIP3    H268957   3.936   6.100  15.576 -0.8000 -1.9033 -0.7079
15848TIP3   OH268958   5.341   2.448   4.389  0.1889 -0.0998 -0.7849
15848TIP3    H168959   5.286   2.434   4.312  0.8638 -0.5386 -1.1854
15848TIP3    H268960   5.281   2.436   4.463 -0.9168  2.0978 -1.2207
15849TIP3   OH268961   4.448   2.814   0.289  0.3905  0.3631 -0.0868
15849TIP3    H168962   4.410   2.741   0.240 -2.1613  2.4461 -1.4539
15849TIP3    H268963   4.478   2.875   0.222  1.6421  1.0413  1.0281
15850TIP3   OH268964   5.867   1.906  10.811  0.6638 -0.0623  0.4864
15850TIP3    H168965   5.834   1.996  10.813 -0.9159 -0.6008  2.9624
15850TIP3    H268966   5.793   1.855  10.779  0.6284 -0.7648  1.6607
15851TIP3   OH268967   6.645   4.620   0.390 -0.2286 -0.8144  0.7693
15851TIP3    H168968   6.732   4.582   0.384  0.2751  0.3567  0.2278
15851TIP3    H268969   6.586   4.549   0.366  0.5465 -1.6905  1.3770
15852TIP3   OH268970   6.250   2.330   0.500  0.0837  0.2821  0.1146
15852TIP3    H168971   6.208   2.244   0.510  0.0593  0.2582 -0.1646
15852TIP3    H268972   6.293   2.325   0.415 -0.4117  0.7520 -0.1682
15853TIP3   OH268973   5.954   5.401   0.388  0.2176  0.1410  0.2957
15853TIP3    H168974   5.983   5.355   0.310 -1.7805 -0.3880 -0.2032
15853TIP3    H268975   5.964   5.338   0.459 -1.7503 -0.8672 -0.2534
15854TIP3   OH268976   5.931   1.061   4.158  0.5713  0.4022 -0.3528
15854TIP3    H168977   5.887   1.135   4.199  0.5714  0.4071 -0.3615
15854TIP3    H268978   5.876   0.985   4.178  0.3603  0.4689 -0.6879
15855TIP3   OH268979   3.743   5.351  16.976  0.1463  0.5413 -0.4641
15855TIP3    H168980   3.697   5.351  16.892 -0.7569  0.5212  0.0178
15855TIP3    H268981   3.733   5.262  17.010 -0.9121  0.9818  0.4109
15856TIP3   OH268982   1.259   2.152  16.376 -0.0439  0.1390 -0.3821
15856TIP3    H168983   1.185   2.114  16.329  1.4903 -0.9994 -2.0108
15856TIP3    H268984   1.324   2.082  16.380  2.3976  2.0490 -2.3662
15857TIP3   OH268985   0.732   0.778   2.103 -0.1108  0.4407  0.4253
15857TIP3    H168986   0.786   0.734   2.168  1.2094 -0.7571 -1.3884
15857TIP3    H268987   0.788   0.848   2.069 -1.0728  1.5679  1.0831
15858TIP3   OH268988   5.932   1.141  14.700  0.2082  0.1597  0.0759
15858TIP3    H168989   5.940   1.235  14.717  0.7058  0.3466 -1.0854
15858TIP3    H268990   6.019   1.106  14.717  0.2719  0.0729 -0.4284
15859TIP3   OH268991   1.426   5.221   1.557  0.1353 -0.3032  0.2079
15859TIP3    H168992   1.500   5.203   1.615  2.8599  2.7802 -1.8980
15859TIP3    H268993   1.354   5.243   1.616  2.0033  0.2222  2.4504
15860TIP3   OH268994   3.686   1.447  12.507 -0.4265  0.6192 -0.0805
15860TIP3    H168995   3.722   1.436  12.419 -2.6903  0.3814 -1.0309
15860TIP3    H268996   3.739   1.517  12.546  1.2848  0.0164 -1.2123
15861TIP3   OH268997   2.406   4.774   3.517 -0.2302 -0.4798 -0.4642
15861TIP3    H168998   2.498   4.763   3.493 -0.5722  0.3401 -2.3030
15861TIP3    H268999   2.396   4.868   3.534 -0.9494 -0.3790 -1.3676
15862TIP3   OH269000   4.002   2.860   5.986  0.4004  0.1622 -0.1777
15862TIP3    H169001   3.975   2.825   5.901 -1.8483 -0.1149  0.6006
15862TIP3    H269002   4.042   2.785   6.031  2.3334  0.4981 -1.2143
15863TIP3   OH269003   5.641   3.411   4.423 -0.0909  0.4578  0.3201
15863TIP3    H169004   5.574   3.348   4.451  0.0405  0.9237  1.8031
15863TIP3    H269005   5.591   3.490   4.402 -0.1472  0.2712 -0.2487
15864TIP3   OH269006   0.891   4.150   5.627  0.2318 -0.0947 -0.2920
15864TIP3    H169007   0.814   4.134   5.681 -0.4873  1.5717 -0.7778
15864TIP3    H269008   0.867   4.117   5.541  0.8631 -1.4724  0.0317
15865TIP3   OH269009   0.069   2.064  11.523  0.4957  0.3636 -0.1182
15865TIP3    H169010  -0.013   2.039  11.565 -0.4538  1.3425 -1.2919
15865TIP3    H269011   0.070   2.160  11.527  0.6995  0.4526 -1.6597
15866TIP3   OH269012   2.294   3.513   0.467 -0.7954  0.5609 -0.5087
15866TIP3    H169013   2.287   3.438   0.407  0.8677 -0.2059  0.1758
15866TIP3    H269014   2.209   3.517   0.510 -0.5719 -1.7609  0.3310
15867TIP3   OH269015   2.686   4.613  12.767 -0.1808  0.0938  0.8874
15867TIP3    H169016   2.642   4.690  12.804 -0.7788 -0.0615  0.5183
15867TIP3    H269017   2.652   4.540  12.819  0.2796  0.0641  1.1445
15868TIP3   OH269018   4.728   1.832  12.598  0.7437 -0.1137 -0.1842
15868TIP3    H169019   4.758   1.849  12.687  0.0261 -0.8907  0.2148
15868TIP3    H269020   4.687   1.746  12.602 -0.1393  0.2468 -1.0557
15869TIP3   OH269021   2.171   3.266   1.949 -0.4390 -0.0945 -0.5536
15869TIP3    H169022   2.227   3.199   1.988 -1.7911 -0.1287  1.4652
15869TIP3    H269023   2.087   3.222   1.933 -0.7671  0.6443 -0.9444
15870TIP3   OH269024   1.555   1.661  14.891 -0.1146 -0.7143 -0.1072
15870TIP3    H169025   1.466   1.656  14.927 -0.2424 -0.5351 -0.3936
15870TIP3    H269026   1.549   1.728  14.823  0.3528 -0.3568  0.1973
15871TIP3   OH269027   2.242   4.315   5.200  0.5008 -0.3405 -0.2093
15871TIP3    H169028   2.312   4.328   5.136 -0.4758  1.5568 -0.9615
15871TIP3    H269029   2.161   4.321   5.149 -0.2882  0.2817  1.0575
15872TIP3   OH269030   5.482   6.388  11.330  0.2327 -0.0486 -0.1261
15872TIP3    H169031   5.500   6.445  11.405  1.1656 -1.2921  0.6231
15872TIP3    H269032   5.388   6.396  11.316 -0.1618 -0.6209  1.8783
15873TIP3   OH269033   3.851   3.899  11.446 -0.7887  0.2313  0.5298
15873TIP3    H169034   3.778   3.900  11.385 -0.0742  1.3754 -0.3408
15873TIP3    H269035   3.889   3.812  11.436 -2.1069 -0.4467  1.1250
15874TIP3   OH269036   6.285   5.447  11.344 -0.2560 -0.4899 -0.2714
15874TIP3    H169037   6.228   5.515  11.380 -0.0496 -1.7423  2.7308
15874TIP3    H269038   6.372   5.468  11.377  0.8101  0.3537 -3.2799
15875TIP3   OH269039   4.399   0.372   0.033  0.0450 -0.8077  0.0352
15875TIP3    H169040   4.442   0.317   0.098 -1.3722 -1.1443  0.7321
15875TIP3    H269041   4.334   0.314  -0.009  1.5399 -0.8788 -2.3898
15876TIP3   OH269042   4.132   4.387  12.777  0.2712 -0.5092  0.0028
15876TIP3    H169043   4.162   4.473  12.807  1.9995 -0.7570 -0.8624
15876TIP3    H269044   4.212   4.342  12.750 -0.6759 -2.1397 -0.2258
15877TIP3   OH269045   2.668   2.105  15.428 -0.1688 -0.0468  0.0359
15877TIP3    H169046   2.705   2.178  15.379  0.8189  0.0543  0.8806
15877TIP3    H269047   2.585   2.137  15.461  0.4032  0.8293  0.6603
15878TIP3   OH269048   0.136   4.277   1.522 -0.3483  0.1474  0.2956
15878TIP3    H169049   0.138   4.346   1.588 -1.0711  0.4907 -0.0307
15878TIP3    H269050   0.159   4.197   1.570  0.9303  0.6679  0.5824
15879TIP3   OH269051   1.601   0.706  12.176  0.4297 -0.0211  0.6748
15879TIP3    H169052   1.530   0.648  12.148  2.1976 -1.4814 -1.1375
15879TIP3    H269053   1.664   0.649  12.219  1.9824  0.5871 -0.6750
15880TIP3   OH269054   5.589   2.611  16.973  0.1600  0.1965 -0.3174
15880TIP3    H169055   5.666   2.644  17.019  1.0370  2.4589 -3.0461
15880TIP3    H269056   5.622   2.537  16.922  0.4509  0.7509 -0.9696
15881TIP3   OH269057   4.393   4.228  16.492 -0.0693  0.1868  0.4535
15881TIP3    H169058   4.456   4.185  16.433  1.6892 -0.1751  2.4511
15881TIP3    H269059   4.317   4.171  16.491  1.3473 -1.8473  1.2740
15882TIP3   OH269060   0.279   6.302  12.029 -0.2315  0.2943  0.0910
15882TIP3    H169061   0.289   6.221  11.978  0.9356 -1.4173  2.7718
15882TIP3    H269062   0.222   6.276  12.102  0.4936  1.7769  1.2195
15883TIP3   OH269063   0.834   0.259   0.360  0.1674 -0.1977  0.3915
15883TIP3    H169064   0.921   0.251   0.320  0.7388  1.4003  1.1974
15883TIP3    H269065   0.852   0.283   0.451 -1.0761  2.4824  0.0271
15884TIP3   OH269066   3.953   3.885  13.972 -0.1684  0.2320 -0.1107
15884TIP3    H169067   3.885   3.936  13.928 -0.7389 -0.7060 -0.3515
15884TIP3    H269068   3.925   3.880  14.063  1.2283  2.5330  0.5128
15885TIP3   OH269069   2.452   0.384  11.207  0.3515  0.3551  0.3336
15885TIP3    H169070   2.448   0.394  11.302  0.9201  1.1302  0.2809
15885TIP3    H269071   2.525   0.439  11.179  0.6021 -0.3596 -0.4903
15886TIP3   OH269072   5.456   2.528  17.587  0.5318  0.8105  0.5295
15886TIP3    H169073   5.452   2.616  17.549  0.8563  1.4195  1.8642
15886TIP3    H269074   5.408   2.535  17.669  0.7729 -0.2054  0.7687
15887TIP3   OH269075   2.340   3.869  10.671  0.4745 -0.3532 -0.2168
15887TIP3    H169076   2.339   3.833  10.759  0.3625 -1.7087 -0.7446
15887TIP3    H269077   2.262   3.925  10.667 -1.1624 -2.5122 -0.3011
15888TIP3   OH269078   3.615   4.504   0.836 -0.6645  0.0064 -0.3708
15888TIP3    H169079   3.548   4.547   0.889 -0.3087 -0.1345  0.2074
15888TIP3    H269080   3.578   4.418   0.816 -0.7780  0.0371 -0.2952
15889TIP3   OH269081   1.363   1.683   2.736 -0.1782  0.4715 -0.3480
15889TIP3    H169082   1.318   1.696   2.820 -0.9489  1.9654 -0.9619
15889TIP3    H269083   1.452   1.657   2.761 -0.9144 -1.0515  0.8973
15890TIP3   OH269084   2.478   0.949  17.077  0.1059  0.3726  0.3180
15890TIP3    H169085   2.486   1.044  17.078  0.5333  0.3354  0.8175
15890TIP3    H269086   2.565   0.917  17.101  0.3299 -0.1731 -1.0789
15891TIP3   OH269087   6.676   6.005   1.433 -0.3489  0.6107 -0.3919
15891TIP3    H169088   6.601   5.945   1.432 -1.1276  1.5540 -0.1961
15891TIP3    H269089   6.737   5.967   1.370 -0.9426 -0.2281 -0.4888
15892TIP3   OH269090   4.015   2.562  11.588  0.2185  0.1050 -0.2139
15892TIP3    H169091   4.028   2.608  11.505 -1.8391 -0.8946 -1.1540
15892TIP3    H269092   4.094   2.581  11.639  0.6455  2.3843 -1.6112
15893TIP3   OH269093   1.518   2.949  12.354  0.0882 -0.4676 -0.1711
15893TIP3    H169094   1.602   2.936  12.399  0.6234  0.5588 -0.8556
15893TIP3    H269095   1.541   2.988  12.270 -1.0617 -0.4389 -0.4904
15894TIP3   OH269096   1.368   3.753  15.002  0.0307  0.0100  0.3220
15894TIP3    H169097   1.374   3.659  15.019  0.4283  0.1454  0.9798
15894TIP3    H269098   1.450   3.773  14.957 -0.3283 -0.0692 -0.3623
15895TIP3   OH269099   5.437   6.524  12.329  0.2278  0.0261  0.3380
15895TIP3    H169100   5.354   6.532  12.282  0.9327 -0.5366 -1.0656
15895TIP3    H269101   5.488   6.599  12.301  0.7300 -0.4227  0.0333
15896TIP3   OH269102   1.657   0.041  15.976 -0.0482  0.3347 -0.4223
15896TIP3    H169103   1.646  -0.036  16.031  0.9247 -0.8821 -1.8274
15896TIP3    H269104   1.651   0.007  15.886 -0.3918  2.0388 -1.0856
15897TIP3   OH269105   0.496   2.111  15.882  0.1516 -0.3569 -0.0970
15897TIP3    H169106   0.420   2.112  15.940  0.0426 -0.5763 -0.2324
15897TIP3    H269107   0.459   2.097  15.795  0.3133 -0.0110 -0.2224
15898TIP3   OH269108   4.003   1.360   0.766 -0.0838  0.3708  0.1247
15898TIP3    H169109   4.049   1.327   0.843  1.1008 -2.0209 -1.4981
15898TIP3    H269110   4.068   1.415   0.722  0.5814 -1.2657 -1.0362
15899TIP3   OH269111   3.263   6.236  17.418  0.1835 -0.3374 -0.1923
15899TIP3    H169112   3.212   6.166  17.459 -1.3203  0.2667 -0.9638
15899TIP3    H269113   3.320   6.191  17.356 -0.0172 -0.9621  0.0689
15900TIP3   OH269114   0.067   4.354  13.628  0.4451 -0.2834  0.2438
15900TIP3    H169115   0.116   4.408  13.690  1.3846 -1.2011  0.3186
15900TIP3    H269116   0.025   4.417  13.570  1.3547  0.5422  0.4566
15901TIP3   OH269117   1.887   1.577  13.027 -0.1166  0.5473 -0.1823
15901TIP3    H169118   1.804   1.552  13.067  1.1154  0.1615  2.3182
15901TIP3    H269119   1.885   1.535  12.941 -1.0242 -2.5585  1.2048
15902TIP3   OH269120   1.960   4.419  14.400 -0.1494  0.4776  0.5968
15902TIP3    H169121   2.027   4.356  14.376 -0.1517  0.7550 -0.1641
15902TIP3    H269122   1.929   4.455  14.317 -0.8683  0.7349  0.9612
15903TIP3   OH269123   0.658   4.683  16.315 -0.2519  0.0163 -0.4297
15903TIP3    H169124   0.594   4.708  16.382  0.1837 -0.0652  0.0281
15903TIP3    H269125   0.719   4.757  16.312  0.0973 -0.2641 -0.2662
15904TIP3   OH269126   1.346   6.358   0.787 -0.0737 -0.3111  0.6054
15904TIP3    H169127   1.358   6.281   0.732  1.4434  0.0192  0.4245
15904TIP3    H269128   1.258   6.391   0.764 -0.1288 -1.1165 -0.4000
15905TIP3   OH269129   0.804   3.098  12.521  0.2584 -0.0470 -0.3829
15905TIP3    H169130   0.897   3.082  12.506  0.3217  0.5163 -0.6055
15905TIP3    H269131   0.795   3.101  12.616  1.2318  4.0737 -0.2473
15906TIP3   OH269132   0.691   1.793  15.083 -0.1933  0.2733 -0.2513
15906TIP3    H169133   0.629   1.749  15.024  0.5957  0.9790 -1.6760
15906TIP3    H269134   0.663   1.884  15.082 -0.7812  0.1389  1.3238
15907TIP3   OH269135   6.293   4.270  12.867  0.3474  0.4200 -0.4115
15907TIP3    H169136   6.315   4.184  12.831 -0.9798  0.0392 -0.3772
15907TIP3    H269137   6.281   4.253  12.961 -1.1856  0.3502 -0.5946
15908TIP3   OH269138   4.546   4.373   3.642 -0.1055  0.3279  0.4206
15908TIP3    H169139   4.476   4.425   3.603 -0.7309 -0.5148  0.3934
15908TIP3    H269140   4.541   4.392   3.736 -2.4981 -2.0767  0.9215
15909TIP3   OH269141   4.957   2.943  17.386  0.1709  0.3242 -0.1966
15909TIP3    H169142   4.995   2.881  17.448 -1.1100 -0.9412 -0.6559
15909TIP3    H269143   5.010   2.932  17.306  0.4209  0.3796 -0.0412
15910TIP3   OH269144   1.024   6.470  15.854  0.2715  0.0726  0.1608
15910TIP3    H169145   1.076   6.550  15.856  0.4870 -0.0721  0.3965
15910TIP3    H269146   1.082   6.404  15.817  0.3989 -0.1849  0.8015
15911TIP3   OH269147   2.769   0.754   0.425  0.4133  0.0702  0.6751
15911TIP3    H169148   2.852   0.713   0.451  0.2121 -1.0426 -0.3494
15911TIP3    H269149   2.739   0.800   0.503  3.1226  2.4784  0.4875
15912TIP3   OH269150   3.787   3.371   0.392  0.1601 -0.7298  0.1499
15912TIP3    H169151   3.723   3.305   0.419 -0.3422 -0.9260 -1.4375
15912TIP3    H269152   3.797   3.359   0.298  2.4339 -0.5906  0.3033
15913TIP3   OH269153   5.420   2.063  12.655 -0.1276  0.3106 -0.4092
15913TIP3    H169154   5.421   2.051  12.560 -0.5677  1.0773 -0.5220
15913TIP3    H269155   5.343   2.016  12.684 -0.4554  0.7634 -0.5381
15914TIP3   OH269156   0.214   4.687   0.145 -0.4518  1.0291 -0.1201
15914TIP3    H169157   0.280   4.753   0.124  0.7302  0.2905  1.0739
15914TIP3    H269158   0.153   4.733   0.204  1.0527  0.7868  1.7173
15915TIP3   OH269159   0.708   0.518  15.347 -0.5588 -0.0750 -0.1052
15915TIP3    H169160   0.722   0.427  15.371  2.8286  0.2955 -0.1334
15915TIP3    H269161   0.796   0.552  15.330 -1.3543  3.8301  2.2477
15916TIP3   OH269162   0.712   4.410  15.173  0.1306 -0.5649 -0.5905
15916TIP3    H169163   0.688   4.319  15.156  1.4595 -0.9323 -0.6533
15916TIP3    H269164   0.802   4.417  15.142 -0.2844  1.0639 -1.5329
15917TIP3   OH269165   2.177   2.877   5.745 -0.9164 -0.4346  0.1607
15917TIP3    H169166   2.140   2.912   5.664  0.9585  0.7021 -0.2628
15917TIP3    H269167   2.247   2.819   5.716 -1.6983 -1.8563  0.9677
15918TIP3   OH269168   2.969   5.791  17.150 -0.1428  0.2149 -0.4354
15918TIP3    H169169   3.012   5.799  17.065 -1.8019  1.3194 -1.2128
15918TIP3    H269170   2.976   5.697  17.171  1.3916  0.1361 -1.1583
15919TIP3   OH269171   2.302   0.711  13.003  0.3230  0.1084  0.3171
15919TIP3    H169172   2.293   0.795  12.958 -0.4787  0.4735  1.1159
15919TIP3    H269173   2.247   0.720  13.081  1.8228 -0.4218  1.4820
15920TIP3   OH269174   1.952   6.312   0.295 -0.2569  0.1193  0.6518
15920TIP3    H169175   2.014   6.246   0.262 -0.1069 -1.2150  3.2833
15920TIP3    H269176   1.868   6.266   0.300 -1.2084  1.4695 -1.4443
15921TIP3   OH269177   4.073   0.144  12.572  0.1129 -0.2868  0.0062
15921TIP3    H169178   4.024   0.068  12.538 -1.5016  1.3244 -1.4778
15921TIP3    H269179   4.008   0.194  12.621  0.3712  1.5779 -1.4417
15922TIP3   OH269180   4.570   6.133   0.570  0.2181 -0.5931  0.6015
15922TIP3    H169181   4.555   6.042   0.543  0.6811 -1.7156  3.6402
15922TIP3    H269182   4.483   6.165   0.594  0.2722 -0.9094  1.2573
15923TIP3   OH269183   4.701   2.041   2.848 -0.4379 -0.1359 -0.3401
15923TIP3    H169184   4.665   2.120   2.887  0.5501 -0.0292  0.3742
15923TIP3    H269185   4.744   2.071   2.768  2.5494  0.5926  1.3925
15924TIP3   OH269186   0.813   3.115  16.613 -0.3294  0.5059 -0.3132
15924TIP3    H169187   0.736   3.172  16.605 -1.0291 -0.3827 -0.0436
15924TIP3    H269188   0.816   3.093  16.706 -0.3971 -0.3357 -0.5059
15925TIP3   OH269189   3.047   4.025  12.489 -0.1154 -0.1520  0.2859
15925TIP3    H169190   2.982   3.974  12.439  1.2444  0.3463 -2.1673
15925TIP3    H269191   3.127   3.972  12.484  0.5610  0.8553  0.1836
15926TIP3   OH269192   2.168   3.098   0.018  0.2686 -0.6781 -0.0120
15926TIP3    H169193   2.263   3.108   0.009  0.0482  0.9761 -0.8951
15926TIP3    H269194   2.131   3.159  -0.046 -1.3996 -0.1030  1.4228
15927TIP3   OH269195   2.299   2.972   1.079  0.8715  0.3224 -0.3348
15927TIP3    H169196   2.329   2.896   1.029  0.1652  0.1503 -0.5173
15927TIP3    H269197   2.291   2.940   1.169  1.0828  0.3275 -0.3139
15928TIP3   OH269198   0.751   2.655   1.238 -0.2540  0.3312 -0.9337
15928TIP3    H169199   0.664   2.695   1.243 -0.2365  0.3326 -0.6405
15928TIP3    H269200   0.735   2.569   1.199 -0.3935  0.3120 -0.8355
15929TIP3   OH269201   5.787   5.434   4.042 -0.3764  0.5523 -0.4125
15929TIP3    H169202   5.756   5.511   3.994 -0.0404  0.0295 -1.5178
15929TIP3    H269203   5.857   5.467   4.098 -0.3921  1.0952 -0.7068
15930TIP3   OH269204   5.427   2.524  15.819  0.6555  0.5623  0.0607
15930TIP3    H169205   5.503   2.518  15.761  0.5241 -1.7688  0.0388
15930TIP3    H269206   5.392   2.435  15.822 -0.5466  1.0459  2.1308
15931TIP3   OH269207   6.470   3.363  17.294 -0.3958  0.0262 -0.0766
15931TIP3    H169208   6.509   3.450  17.282 -1.3852  0.5870  0.6888
15931TIP3    H269209   6.441   3.362  17.385 -1.9530 -0.4652 -0.5557
15932TIP3   OH269210   5.180   1.277  12.208  0.1704 -0.2701  0.0565
15932TIP3    H169211   5.171   1.275  12.304 -1.2348  0.5131 -0.0284
15932TIP3    H269212   5.250   1.340  12.191 -0.3576  0.4668  0.5460
15933TIP3   OH269213   2.193   0.343  17.421  0.1111  0.0417  0.5804
15933TIP3    H169214   2.188   0.271  17.484 -0.0349 -0.9128 -0.4957
15933TIP3    H269215   2.253   0.406  17.461 -0.7080 -0.1023  2.0916
15934TIP3   OH269216   3.122   2.027   3.318 -0.3812 -0.3703 -0.1493
15934TIP3    H169217   3.098   2.110   3.360  0.6481  0.7631 -1.7147
15934TIP3    H269218   3.144   1.969   3.392 -2.5217  0.2446  1.0482
15935TIP3   OH269219   5.833   5.983   2.235 -0.0174  0.6453  1.1141
15935TIP3    H169220   5.752   5.941   2.266  1.0717 -0.0572  3.2509
15935TIP3    H269221   5.903   5.931   2.274  1.4611  1.7464  0.0298
15936TIP3   OH269222   0.102   0.660   2.500 -0.4326 -0.7943  0.5218
15936TIP3    H169223   0.157   0.629   2.428 -1.0885  0.8375 -0.7577
15936TIP3    H269224   0.155   0.646   2.579  0.9468 -1.1671 -0.4377
15937TIP3   OH269225   1.464   0.021  16.975  0.4142  0.0211  0.1054
15937TIP3    H169226   1.495  -0.011  17.060  0.2056 -0.1301  0.1259
15937TIP3    H269227   1.462  -0.057  16.919 -1.1060 -0.2321  0.4534
15938TIP3   OH269228   5.578   3.480   0.507 -0.6536  0.5975 -0.1070
15938TIP3    H169229   5.623   3.540   0.448 -0.2129  1.4151  1.0253
15938TIP3    H269230   5.632   3.401   0.507  0.0926  1.0940  0.2332
15939TIP3   OH269231   0.315   0.917  12.669 -0.1839 -0.4753 -0.2948
15939TIP3    H169232   0.271   1.002  12.678  2.3925  0.8432  0.7474
15939TIP3    H269233   0.377   0.930  12.598  0.7404 -1.2441  0.3582
15940TIP3   OH269234   6.639   5.782  13.565 -0.2142  0.4371  0.1678
15940TIP3    H169235   6.659   5.831  13.645 -1.8314  0.2122  0.7593
15940TIP3    H269236   6.564   5.828  13.527 -0.6650 -0.5632 -0.1944
15941TIP3   OH269237   0.188   5.158  11.782  0.1126  0.2020 -0.7363
15941TIP3    H169238   0.110   5.212  11.770  0.7478  1.5030  0.6492
15941TIP3    H269239   0.163   5.094  11.849  0.3464  0.8948  0.0250
15942TIP3   OH269240   6.078   1.943  16.344 -0.0707 -0.0219 -0.0797
15942TIP3    H169241   6.131   1.895  16.281 -0.9714 -1.3835  0.1711
15942TIP3    H269242   6.121   1.926  16.429  1.2105  1.9028 -0.2677
15943TIP3   OH269243   4.884   6.570   3.143  0.9291  0.3243  0.2116
15943TIP3    H169244   4.869   6.491   3.196 -0.3114  1.0561  0.9753
15943TIP3    H269245   4.900   6.536   3.055  0.6752 -0.7956  0.5755
15944TIP3   OH269246   1.162   5.455  11.344  0.0080 -0.6812  0.2283
15944TIP3    H169247   1.151   5.520  11.275  1.2750 -1.1266 -0.4137
15944TIP3    H269248   1.082   5.462  11.397 -1.4655 -1.0044 -1.8304
15945TIP3   OH269249   4.611   2.213   1.548 -0.4186 -0.5471  0.1352
15945TIP3    H169250   4.560   2.277   1.499 -0.5078 -0.8589 -0.1808
15945TIP3    H269251   4.546   2.152   1.583 -0.3122 -0.6023  0.2374
15946TIP3   OH269252   1.692   5.386   1.955 -0.3070  0.0457 -0.0024
15946TIP3    H169253   1.699   5.312   1.895 -0.2663  0.8427 -1.0052
15946TIP3    H269254   1.782   5.414   1.970 -0.4005  0.7592 -0.7400
15947TIP3   OH269255   4.527   6.422   4.926 -0.2586  0.2768 -0.6080
15947TIP3    H169256   4.563   6.498   4.879  0.0515  0.7176  0.3140
15947TIP3    H269257   4.523   6.353   4.860 -2.3902  1.6214 -1.9961
15948TIP3   OH269258   4.531   5.620  14.683 -0.4186  0.0007  0.1600
15948TIP3    H169259   4.625   5.635  14.685 -0.6322  1.9465 -1.3573
15948TIP3    H269260   4.520   5.545  14.624  0.1562 -0.0685  0.1356
15949TIP3   OH269261   1.836   6.315  14.719  0.0445 -0.0705  0.0442
15949TIP3    H169262   1.836   6.410  14.732 -0.9885 -0.2254  1.4063
15949TIP3    H269263   1.850   6.279  14.807  2.3012 -1.2075 -0.6916
15950TIP3   OH269264   1.013   4.125   2.835 -0.3353  0.7964 -0.1846
15950TIP3    H169265   0.920   4.103   2.830 -0.1420  0.1092 -0.8610
15950TIP3    H269266   1.036   4.108   2.927 -0.8807  1.0343  0.0039
15951TIP3   OH269267   5.414   2.886  14.140 -0.3589  0.2792  0.5681
15951TIP3    H169268   5.465   2.962  14.113 -0.5707  0.8803  1.8153
15951TIP3    H269269   5.355   2.869  14.066 -0.1628  1.1922  0.1938
15952TIP3   OH269270   6.419   1.861  11.788 -0.4075 -0.3367 -0.6446
15952TIP3    H169271   6.353   1.884  11.854 -0.5604  0.6111 -1.1017
15952TIP3    H269272   6.446   1.772  11.811 -1.1524 -0.3849  0.1193
15953TIP3   OH269273   3.603   6.612   5.482 -1.0014  0.0711 -0.4449
15953TIP3    H169274   3.692   6.641   5.464 -1.2696 -0.0402 -2.0705
15953TIP3    H269275   3.602   6.520   5.454 -1.1500 -0.5024  1.2942
15954TIP3   OH269276   2.995   4.362  15.570  0.3143  0.2686  0.0113
15954TIP3    H169277   2.960   4.273  15.567  0.8588  0.0701 -1.4023
15954TIP3    H269278   2.966   4.396  15.654  0.3259 -1.3316  0.7029
15955TIP3   OH269279   1.058   1.052   4.980  0.0650 -0.2981 -0.0633
15955TIP3    H169280   0.964   1.035   4.972 -0.1694  1.1270 -0.5241
15955TIP3    H269281   1.068   1.144   4.957  1.5091 -0.2760  0.5565
15956TIP3   OH269282   1.684   6.217   3.213 -0.1077 -0.2592 -0.3999
15956TIP3    H169283   1.649   6.156   3.148 -1.9369  1.3658 -1.0282
15956TIP3    H269284   1.747   6.165   3.262 -0.7159 -2.3213 -1.6573
15957TIP3   OH269285   4.854   0.721   5.350 -0.0854  0.9908 -0.8286
15957TIP3    H169286   4.824   0.630   5.354 -0.4304  0.9858 -2.7336
15957TIP3    H269287   4.834   0.757   5.436 -0.0355 -0.6990 -0.0686
15958TIP3   OH269288   0.755   4.616   2.878 -0.4086  0.3436 -0.7423
15958TIP3    H169289   0.836   4.620   2.929 -0.6391  0.6570 -0.3963
15958TIP3    H269290   0.778   4.564   2.801  0.5907  1.7998 -1.4865
15959TIP3   OH269291   5.386   0.690  13.411  0.1911 -0.4217 -0.1469
15959TIP3    H169292   5.437   0.610  13.407  0.8997 -0.2720  3.1425
15959TIP3    H269293   5.451   0.760  13.410 -0.3587  0.1156 -1.8442
15960TIP3   OH269294   5.433   0.834   5.862 -0.0656 -0.4605 -0.3486
15960TIP3    H169295   5.400   0.758   5.813  0.6533 -0.7803 -0.3509
15960TIP3    H269296   5.444   0.802   5.952 -0.4251 -0.1578 -0.1938
15961TIP3   OH269297   2.201   5.923   2.292  0.5294 -0.8533 -0.4747
15961TIP3    H169298   2.130   5.896   2.351  1.3026 -3.0979 -0.5025
15961TIP3    H269299   2.248   5.990   2.342 -1.3398  0.4524 -0.3245
15962TIP3   OH269300   3.106   2.765   7.045  0.0247  0.5645 -0.1592
15962TIP3    H169301   3.191   2.768   7.001  0.4277 -0.1235  0.5423
15962TIP3    H269302   3.085   2.672   7.050  0.1511  0.5885  1.3742
15963TIP3   OH269303   5.263   0.540  14.539 -0.2338 -0.8847 -0.8788
15963TIP3    H169304   5.213   0.565  14.617 -3.1618 -2.3097 -2.1546
15963TIP3    H269305   5.216   0.581  14.467  0.2593 -2.5308 -2.1897
15964TIP3   OH269306   5.065   4.497  17.514 -0.2042  0.4970  0.1301
15964TIP3    H169307   5.107   4.423  17.471  2.2479  2.2445 -0.7099
15964TIP3    H269308   5.120   4.515  17.590 -1.2238  0.9926  0.7722
15965TIP3   OH269309   6.150   2.318   6.180 -0.1540 -0.0937 -0.0219
15965TIP3    H169310   6.128   2.366   6.101 -0.6011  2.3868  1.4910
15965TIP3    H269311   6.246   2.312   6.179 -0.1712 -0.3505 -0.8708
15966TIP3   OH269312   6.137   2.050  11.700  0.6438 -0.2738  0.3559
15966TIP3    H169313   6.103   2.049  11.610 -1.3219  0.6521  1.0178
15966TIP3    H269314   6.199   1.977  11.703  0.2589 -0.7504 -1.5612
15967TIP3   OH269315   5.738   1.400   1.056 -0.4279  0.4428 -0.1352
15967TIP3    H169316   5.698   1.427   0.974  0.0782  1.0633 -0.1855
15967TIP3    H269317   5.829   1.380   1.033 -0.2337  0.8020  0.3041
15968TIP3   OH269318   0.163   6.039   2.691  0.1707  0.4465 -0.2229
15968TIP3    H169319   0.200   6.077   2.771 -0.7318 -1.7488  1.3260
15968TIP3    H269320   0.077   6.079   2.683 -0.0566  0.1008  0.3908
15969TIP3   OH269321   5.051   0.941   0.970 -0.3269  1.0312  0.1826
15969TIP3    H169322   5.095   1.019   0.936  0.3342  0.9082  0.7413
15969TIP3    H269323   4.990   0.974   1.035 -0.3712  1.1166  0.0985
15970TIP3   OH269324   4.461   0.286  13.300  0.4315  0.5210  0.3699
15970TIP3    H169325   4.418   0.370  13.280  0.5286  1.1236  2.5159
15970TIP3    H269326   4.437   0.268  13.390  1.6877 -1.0181  0.4280
15971TIP3   OH269327   1.735   6.092  11.878  0.2563 -0.3378  0.0158
15971TIP3    H169328   1.699   6.034  11.811  0.4009 -0.0269 -0.3349
15971TIP3    H269329   1.817   6.124  11.840 -0.2472  0.7960 -0.1778
15972TIP3   OH269330   5.558   0.030   5.989 -1.3522 -0.1545 -0.0180
15972TIP3    H169331   5.601   0.087   5.926 -2.5490 -1.2320 -1.9364
15972TIP3    H269332   5.535   0.087   6.062  5.4325  0.1588  2.5933
15973TIP3   OH269333   1.024   0.155  17.038  0.3414  0.4346 -0.6520
15973TIP3    H169334   1.054   0.240  17.068  1.9519  0.2069 -1.4751
15973TIP3    H269335   1.084   0.092  17.079  0.6488 -0.0984 -1.8592
15974TIP3   OH269336   6.401   0.174  16.727  0.4048 -0.1230  0.2104
15974TIP3    H169337   6.412   0.183  16.633 -0.8942 -0.4128  0.0187
15974TIP3    H269338   6.316   0.131  16.738 -0.7877  2.3154  1.5694
15975TIP3   OH269339   1.731   1.813  11.931 -0.9059  0.5545 -0.0667
15975TIP3    H169340   1.695   1.762  11.859  0.3478 -0.4884  0.0210
15975TIP3    H269341   1.825   1.815  11.915 -0.5001 -0.3189  1.8987
15976TIP3   OH269342   1.779   1.181   0.871  0.5285 -0.7499  0.5545
15976TIP3    H169343   1.869   1.188   0.840  0.7888 -1.7057  1.0694
15976TIP3    H269344   1.734   1.128   0.805 -0.0179  0.7985 -0.3890
15977TIP3   OH269345   1.610   5.665   3.057  0.3062  0.6034 -0.1291
15977TIP3    H169346   1.614   5.575   3.025  2.4989  0.2681  0.9227
15977TIP3    H269347   1.692   5.705   3.028  0.5278  1.4776  1.5878
15978TIP3   OH269348   3.101   6.553  12.171  0.6018  0.8086 -0.7739
15978TIP3    H169349   3.196   6.557  12.172  0.6715 -0.4755 -1.0529
15978TIP3    H269350   3.080   6.467  12.208 -0.5979  2.5799  3.2618
15979TIP3   OH269351   6.357   0.578  16.958 -0.7584 -0.2867  0.2234
15979TIP3    H169352   6.301   0.500  16.954 -1.3457  0.1603 -0.9081
15979TIP3    H269353   6.304   0.643  17.005 -0.7405 -0.2094  0.1360
15980TIP3   OH269354   3.456   4.297  13.901  0.6081  0.2362 -0.2599
15980TIP3    H169355   3.415   4.369  13.853  1.3892  1.9517  1.5134
15980TIP3    H269356   3.550   4.314  13.894  0.7820 -0.2244  0.7703
15981TIP3   OH269357   1.509   5.664  13.568  0.5951  0.6343 -0.8262
15981TIP3    H169358   1.555   5.722  13.507 -0.1351  1.7641 -0.3338
15981TIP3    H269359   1.417   5.690  13.560  0.6554  2.1540  2.0809
15982TIP3   OH269360   5.573   0.943   6.431  0.2129 -0.1983 -0.2276
15982TIP3    H169361   5.586   1.027   6.473 -2.9181 -0.8084  2.3805
15982TIP3    H269362   5.661   0.910   6.413  1.5299  3.3465 -0.9813
15983TIP3   OH269363   0.133   0.197  12.504  0.3692 -0.2001 -0.0568
15983TIP3    H169364   0.170   0.112  12.480  1.3317  0.3272 -0.4991
15983TIP3    H269365   0.038   0.182  12.504  0.5234 -1.3181  0.0788
15984TIP3   OH269366   0.340   5.750   3.949 -0.1150  0.1606  0.1235
15984TIP3    H169367   0.282   5.815   3.909 -0.3063 -0.6941 -1.0789
15984TIP3    H269368   0.372   5.699   3.874  0.6922 -0.5795  0.9577
15985TIP3   OH269369   5.803   1.518   6.876 -0.0578 -0.1954  0.2800
15985TIP3    H169370   5.762   1.453   6.818 -1.0770  0.6009  0.0789
15985TIP3    H269371   5.889   1.481   6.896  1.2791  0.4499 -3.4466
15986TIP3   OH269372   4.718   6.144  13.536  0.2170  0.1650  0.5381
15986TIP3    H169373   4.761   6.186  13.462 -0.2494  1.2765  0.8766
15986TIP3    H269374   4.624   6.146  13.513  0.1178  0.0288  0.9256
15987TIP3   OH269375   0.113   4.312  12.672 -0.0763  0.0734  0.0297
15987TIP3    H169376   0.093   4.241  12.612 -0.9238  0.8368 -0.6236
15987TIP3    H269377   0.194   4.350  12.639 -0.6438  0.6165 -0.7709
15988TIP3   OH269378   6.288   1.449   1.132  0.1200 -0.3618 -0.6011
15988TIP3    H169379   6.291   1.430   1.038 -1.8067  0.6865 -0.9172
15988TIP3    H269380   6.207   1.499   1.144 -0.1493 -1.2577  1.7701
15989TIP3   OH269381   5.307   5.882  12.614 -0.6015 -0.6671  0.4206
15989TIP3    H169382   5.284   5.966  12.572  1.1400 -0.0188  0.6760
15989TIP3    H269383   5.347   5.831  12.544  0.3360 -0.4139  0.7518
15990TIP3   OH269384   2.397   5.676  12.748  0.7793 -0.1122  0.0786
15990TIP3    H169385   2.378   5.587  12.777  0.4734  0.5947  2.1884
15990TIP3    H269386   2.386   5.730  12.826  2.3895  1.6019 -0.7985
15991TIP3   OH269387   2.996   0.717  11.355  0.4848  0.4430 -0.2719
15991TIP3    H169388   2.990   0.804  11.315 -0.8445  1.1055  1.2598
15991TIP3    H269389   2.948   0.725  11.437  0.5230 -1.6923  0.0141
15992TIP3   OH269390   1.030   5.513  12.775 -0.1524 -0.4710 -0.6339
15992TIP3    H169391   1.107   5.505  12.719 -0.1358  2.9752 -1.3294
15992TIP3    H269392   1.065   5.529  12.863 -0.0434 -0.0581 -0.7462
15993TIP3   OH269393   4.466   0.623   6.250  0.2564 -0.2974 -0.7578
15993TIP3    H169394   4.405   0.689   6.220  0.1671 -0.4729 -0.9650
15993TIP3    H269395   4.550   0.669   6.258 -0.2367  0.3882  1.2150
15994TIP3   OH269396   4.948   0.308  13.165  0.3226 -0.1167 -0.0242
15994TIP3    H169397   4.854   0.307  13.186  0.1944  0.2953 -0.5764
15994TIP3    H269398   4.975   0.399  13.177  0.5641 -0.1586 -0.2391
15995TIP3   OH269399   1.655   1.111   5.761  0.1839  0.3349  0.2268
15995TIP3    H169400   1.660   1.159   5.678 -0.3923  1.0507  0.5995
15995TIP3    H269401   1.601   1.165   5.817  0.9227  0.0545  1.2283
15996TIP3   OH269402   5.714   5.202   1.248  0.1724 -0.5807 -0.0878
15996TIP3    H169403   5.722   5.213   1.343  0.3531  0.5622 -0.2187
15996TIP3    H269404   5.805   5.193   1.218  0.3604  1.8847 -0.4353
15997TIP3   OH269405   0.493   4.531   1.508  0.2283 -0.6040 -0.0408
15997TIP3    H169406   0.517   4.563   1.596 -0.1825  0.3797 -0.2734
15997TIP3    H269407   0.408   4.571   1.491  0.2310 -0.9271 -0.8265
15998TIP3   OH269408   1.106   3.495  16.456  0.3738  0.6956 -0.1762
15998TIP3    H169409   1.080   3.578  16.415 -1.3030  0.5242  0.4782
15998TIP3    H269410   1.068   3.427  16.400  0.2508  0.4153  0.2435
15999TIP3   OH269411   5.086   0.207  11.979  0.4613 -0.2480 -0.4987
15999TIP3    H169412   5.006   0.215  12.031  0.1415  0.3897 -1.0768
15999TIP3    H269413   5.126   0.125  12.010  0.1395 -0.0296  0.5473
16000TIP3   OH269414   4.217   2.763  12.323 -0.0247  0.5984  0.0977
16000TIP3    H169415   4.309   2.739  12.317 -0.1521  0.4725 -2.2816
16000TIP3    H269416   4.218   2.856  12.346  0.8260  1.2867 -2.4405
16001TIP3   OH269417   3.174   1.076   0.988  0.4788 -0.6008 -0.1497
16001TIP3    H169418   3.097   1.050   1.038  0.7325 -1.0029  0.0384
16001TIP3    H269419   3.139   1.111   0.906  0.0012  1.0254  0.7012
16002TIP3   OH269420   6.152   5.697  14.902  0.6000  0.0546 -0.2176
16002TIP3    H169421   6.115   5.693  14.814 -0.0285  0.5690  0.0164
16002TIP3    H269422   6.192   5.783  14.908  2.2131 -0.6274 -0.5939
16003TIP3   OH269423   3.184   5.773  14.381 -0.2675  0.2091  0.7059
16003TIP3    H169424   3.192   5.863  14.350 -0.8510 -0.4239 -1.4308
16003TIP3    H269425   3.265   5.756  14.429  0.6819  1.2750 -0.4773
16004TIP3   OH269426   3.112   0.127   3.820  0.3141 -0.0165  0.3569
16004TIP3    H169427   3.173   0.096   3.753  0.2744  3.7043 -1.6899
16004TIP3    H269428   3.031   0.146   3.771 -0.2692  1.2754  1.7627
16005TIP3   OH269429   2.274   1.975   1.614  0.5588 -0.8574  0.0774
16005TIP3    H169430   2.310   2.011   1.695  2.4236 -0.4051 -0.8935
16005TIP3    H269431   2.296   1.882   1.617  0.2530 -0.9253  0.2701
16006TIP3   OH269432   1.878   4.276   1.123 -0.2661 -0.1408  0.1570
16006TIP3    H169433   1.810   4.228   1.170 -3.0068  2.1215 -1.1640
16006TIP3    H269434   1.911   4.214   1.058 -1.0048 -1.3289  0.8922
16007TIP3   OH269435   1.026   4.235   5.261 -0.4032  0.6638  0.3681
16007TIP3    H169436   0.969   4.276   5.325  0.3234  0.7285  0.9813
16007TIP3    H269437   1.081   4.306   5.228 -0.9606  0.6895 -0.5460
16008TIP3   OH269438   2.896   6.485  11.576  0.4049  0.8417 -0.1151
16008TIP3    H169439   2.970   6.452  11.627  0.8837  2.0897  0.0302
16008TIP3    H269440   2.933   6.506  11.490 -0.3008 -0.7915 -0.8787
16009TIP3   OH269441   4.690   2.322   4.231 -0.1274  0.3358 -0.4048
16009TIP3    H169442   4.598   2.331   4.205  0.6188  0.9018 -3.1403
16009TIP3    H269443   4.727   2.262   4.167  1.9611  2.0205 -0.8643
16010TIP3   OH269444   2.400   3.627  13.442  0.3247  0.0302 -0.7505
16010TIP3    H169445   2.419   3.571  13.517  1.2290 -0.9096 -1.6522
16010TIP3    H269446   2.456   3.704  13.456 -0.1136  0.2378 -0.0657
16011TIP3   OH269447   0.105   1.947   2.324  0.0453 -0.4830  0.4131
16011TIP3    H169448   0.102   1.913   2.413 -2.8630 -2.1673 -0.1999
16011TIP3    H269449   0.198   1.947   2.301  0.6520 -2.5347  2.5262
16012TIP3   OH269450   0.978   1.204   2.845  0.0744 -0.5133 -0.5461
16012TIP3    H169451   0.932   1.227   2.764  1.6581 -0.2225 -1.4031
16012TIP3    H269452   0.933   1.254   2.913  0.2351  1.1982 -1.6242
16013TIP3   OH269453   2.598   3.653   1.016 -0.2906  0.0644 -0.0797
16013TIP3    H169454   2.680   3.610   1.038 -1.1382 -0.9919  1.1922
16013TIP3    H269455   2.535   3.581   1.005 -1.7304  0.8979  2.0343
16014TIP3   OH269456   5.814   3.779  16.389 -0.3092 -0.6054  0.0116
16014TIP3    H169457   5.829   3.784  16.483 -0.4167 -0.2378  0.0118
16014TIP3    H269458   5.764   3.698  16.376 -1.5863  0.0897  0.4447
16015TIP3   OH269459   1.240   5.901  15.107 -0.2602 -0.8642 -0.2721
16015TIP3    H169460   1.239   5.910  15.012  3.8296  0.5650 -0.3589
16015TIP3    H269461   1.311   5.839  15.124 -0.6630 -0.7965  1.9051
16016TIP3   OH269462   0.017   2.339  11.473 -0.2971 -0.2113 -0.0602
16016TIP3    H169463   0.021   2.392  11.393 -1.1560 -1.8349 -1.2355
16016TIP3    H269464  -0.075   2.314  11.480 -0.2727  0.0321  1.5689
16017TIP3   OH269465   3.262   1.854  11.597  0.2985 -0.6159  0.2347
16017TIP3    H169466   3.348   1.886  11.624 -1.1752  1.3979  3.0631
16017TIP3    H269467   3.245   1.895  11.512  0.8739  1.5661  1.1222
16018TIP3   OH269468   4.928   3.355   3.051 -0.2611 -0.0334 -0.3607
16018TIP3    H169469   4.970   3.385   3.132 -0.0704  2.2500 -1.2346
16018TIP3    H269470   4.894   3.435   3.011 -0.6636 -1.1549 -2.3722
16019TIP3   OH269471   5.127   4.185  15.569  0.3666  0.3834  0.2114
16019TIP3    H169472   5.199   4.145  15.520 -0.3502 -1.7398  0.7631
16019TIP3    H269473   5.057   4.195  15.504  0.3153  0.0493  0.2100
16020TIP3   OH269474   0.564   6.219  12.806 -0.0865  0.3670  0.4524
16020TIP3    H169475   0.631   6.198  12.872  2.4692  0.4554 -1.9068
16020TIP3    H269476   0.539   6.309  12.826 -0.3511 -0.0117  2.0168
16021TIP3   OH269477   1.306   6.413   1.390 -0.1739  0.0288 -0.0872
16021TIP3    H169478   1.357   6.472   1.446 -1.4502  1.0205  0.0592
16021TIP3    H269479   1.342   6.427   1.302 -0.2180  0.7452  0.0065
16022TIP3   OH269480   0.663   4.952   5.249  0.4615  0.0034 -0.5337
16022TIP3    H169481   0.676   5.047   5.239  0.4235  0.3269  1.9044
16022TIP3    H269482   0.573   4.944   5.281  0.4683 -0.8797 -0.7214
16023TIP3   OH269483   5.263   3.307  14.826 -0.7568  0.3226  0.1962
16023TIP3    H169484   5.294   3.224  14.791  0.5483  1.0926 -0.5854
16023TIP3    H269485   5.310   3.316  14.909 -2.2576 -0.5263  1.1690
16024TIP3   OH269486   3.355   4.562   4.914  0.1333 -0.4504 -0.6886
16024TIP3    H169487   3.306   4.542   4.993  0.2260 -0.2838 -0.5869
16024TIP3    H269488   3.298   4.622   4.865  1.0397  1.3949  0.3747
16025TIP3   OH269489   3.248   1.539  12.353  0.5154  0.4341 -0.0728
16025TIP3    H169490   3.296   1.458  12.370  0.6812  0.7599  1.1548
16025TIP3    H269491   3.297   1.582  12.284  0.5343 -0.4131 -0.6040
16026TIP3   OH269492   6.654   5.955   4.745 -0.7079 -0.3497 -0.0658
16026TIP3    H169493   6.717   5.910   4.690 -1.4108 -1.3624 -0.0752
16026TIP3    H269494   6.575   5.962   4.691 -0.3956  1.5803 -0.3300
16027TIP3   OH269495   5.316   4.835  14.753  0.5210  0.0078  0.4611
16027TIP3    H169496   5.293   4.877  14.836 -1.6309 -1.1336  0.5010
16027TIP3    H269497   5.293   4.899  14.686 -1.9214 -0.6551  0.5678
16028TIP3   OH269498   6.225   4.288   3.155 -0.0655 -0.0159  0.0294
16028TIP3    H169499   6.263   4.327   3.076 -0.0191 -1.1285 -0.5049
16028TIP3    H269500   6.168   4.357   3.191 -2.4191 -0.4680 -2.5567
16029TIP3   OH269501   1.416   3.931  12.639  0.6634  0.1526  0.0687
16029TIP3    H169502   1.346   3.948  12.575 -0.8290 -2.3653  0.9129
16029TIP3    H269503   1.404   3.999  12.705  0.1595  0.8216 -0.6835
16030TIP3   OH269504   4.734   4.452   0.708 -0.1267  0.4127 -0.4819
16030TIP3    H169505   4.638   4.460   0.702 -0.2242 -0.7356 -0.8048
16030TIP3    H269506   4.756   4.490   0.793 -1.2747 -2.0417  1.0592
16031TIP3   OH269507   6.433   0.852  12.328 -0.1047 -0.2219  0.6154
16031TIP3    H169508   6.439   0.906  12.250 -1.6377  1.9369  1.8992
16031TIP3    H269509   6.381   0.776  12.302 -1.6865  1.0924 -0.1771
16032TIP3   OH269510   4.321   3.385  11.025 -0.8331 -0.3994 -0.2641
16032TIP3    H169511   4.330   3.473  10.989 -0.4392 -0.4376 -0.2634
16032TIP3    H269512   4.377   3.331  10.970  0.8968 -0.2208  1.2360
16033TIP3   OH269513   6.032   2.001  11.466  0.1531  0.0488  0.2053
16033TIP3    H169514   5.949   1.954  11.478  0.3250 -0.2098  0.3978
16033TIP3    H269515   6.099   1.934  11.477  0.3746  0.1689 -0.4125
16034TIP3   OH269516   1.657   3.402  16.239  0.7699  0.0733 -0.0640
16034TIP3    H169517   1.613   3.368  16.317  0.6451  0.2971 -0.0380
16034TIP3    H269518   1.603   3.373  16.166  2.1343 -2.1964 -0.2578
16035TIP3   OH269519   4.375   2.777  15.562 -0.6333 -0.2122  0.2160
16035TIP3    H169520   4.281   2.778  15.582 -0.6585 -0.9372  0.1550
16035TIP3    H269521   4.387   2.702  15.504 -0.1963  0.5477 -0.7218
16036TIP3   OH269522   5.182   5.136  16.629  0.2127 -0.4255  0.3262
16036TIP3    H169523   5.270   5.173  16.633  0.1186 -0.3270  1.8623
16036TIP3    H269524   5.196   5.041  16.634  0.2354 -0.4158  0.4413
16037TIP3   OH269525   2.974   5.149   3.753 -0.0269  0.0126 -0.3014
16037TIP3    H169526   3.056   5.118   3.714 -0.4608 -0.7051 -0.6657
16037TIP3    H269527   2.972   5.109   3.840 -0.9542 -1.6871 -1.0539
16038TIP3   OH269528   0.819   1.294   2.655 -0.0653  0.1133  0.0140
16038TIP3    H169529   0.872   1.372   2.670 -0.5550  0.2260  1.2350
16038TIP3    H269530   0.756   1.321   2.588 -0.9842  1.1483  1.2519
16039TIP3   OH269531   6.467   0.416   2.031  0.1235 -0.4449  0.5599
16039TIP3    H169532   6.518   0.478   1.978 -0.2831 -0.7948 -0.2492
16039TIP3    H269533   6.379   0.454   2.033 -0.0422 -0.8170  0.3512
16040TIP3   OH269534   3.300   2.539   5.997 -0.0622 -0.8616 -0.3008
16040TIP3    H169535   3.317   2.609   6.060  2.0504 -0.3014 -1.4239
16040TIP3    H269536   3.273   2.585   5.918  0.5844 -1.3624 -0.8161
16041TIP3   OH269537   3.325   5.840   1.903  0.0955  0.5458  0.1634
16041TIP3    H169538   3.242   5.827   1.856 -0.1201 -2.1370  1.0835
16041TIP3    H269539   3.392   5.828   1.836 -0.2447 -0.4678 -0.0163
16042TIP3   OH269540   0.527   2.775   4.012 -0.5651  0.1174  0.5635
16042TIP3    H169541   0.456   2.759   4.075  0.7548 -1.5621  1.7016
16042TIP3    H269542   0.595   2.818   4.063  0.0756 -0.2052 -0.0098
16043TIP3   OH269543   5.076   3.323  13.469  0.4172 -0.4337 -0.4014
16043TIP3    H169544   5.053   3.348  13.380  0.2355  1.4043  0.1110
16043TIP3    H269545   5.005   3.266  13.497 -0.4145  0.3315 -0.8876
16044TIP3   OH269546   0.470   4.319  11.264  0.1043 -0.4300  0.4021
16044TIP3    H169547   0.463   4.224  11.262 -1.7434 -0.3149 -0.7035
16044TIP3    H269548   0.465   4.346  11.173  1.3361  0.7136  0.6437
16045TIP3   OH269549   2.967   0.336   0.423 -0.3966 -0.1882 -1.1034
16045TIP3    H169550   2.908   0.351   0.497  1.2872  2.8180 -0.1901
16045TIP3    H269551   2.911   0.344   0.346 -1.5659  0.5200 -0.2263
16046TIP3   OH269552   5.147   4.500   6.178  0.0721 -0.4863 -0.0131
16046TIP3    H169553   5.158   4.407   6.200 -0.2221 -0.3759  0.6377
16046TIP3    H269554   5.059   4.521   6.210 -0.5834 -0.4237 -1.7471
16047TIP3   OH269555   5.081   4.080   3.294 -0.2422 -0.2653 -0.0307
16047TIP3    H169556   5.103   4.005   3.350 -3.8706 -1.1919  0.3738
16047TIP3    H269557   5.055   4.149   3.354  2.1377  1.1129 -0.4505
16048TIP3   OH269558   1.476   3.427   2.207 -0.1360  0.4238 -0.3026
16048TIP3    H169559   1.521   3.404   2.289  0.4242 -1.8253 -1.1703
16048TIP3    H269560   1.523   3.378   2.139 -1.3710  1.2364 -1.8096
16049TIP3   OH269561   2.430   1.850   0.140  0.1144  0.0904 -0.2239
16049TIP3    H169562   2.400   1.891   0.059  1.1336  1.0155 -0.1634
16049TIP3    H269563   2.355   1.856   0.199 -0.2864  0.3972 -0.7578
16050TIP3   OH269564   4.458   6.673   0.354  0.6836  0.3420 -0.5847
16050TIP3    H169565   4.518   6.604   0.326 -0.0512 -0.5362 -0.0534
16050TIP3    H269566   4.441   6.653   0.447  1.0875  1.7074 -0.1955
16051TIP3   OH269567   2.266   2.862   2.540  0.4583  0.2037  0.0173
16051TIP3    H169568   2.279   2.816   2.457  0.3014  0.7991 -0.3410
16051TIP3    H269569   2.178   2.835   2.568 -0.1400  1.2095 -0.8063
16052TIP3   OH269570   4.863   5.914   3.054  0.2249 -0.2798  0.3117
16052TIP3    H169571   4.866   5.883   3.145  0.0987 -1.7530 -0.1631
16052TIP3    H269572   4.788   5.973   3.052  1.1901  1.0547  1.5296
16053TIP3   OH269573   3.974   4.883  14.830 -0.2085  0.1197  0.3264
16053TIP3    H169574   3.887   4.851  14.805  0.0180 -0.5542  0.3689
16053TIP3    H269575   4.015   4.908  14.748 -0.0292 -0.6459  0.1705
16054TIP3   OH269576   1.305   1.431  12.574 -0.1022  0.3939 -0.5967
16054TIP3    H169577   1.348   1.378  12.641  0.1225 -0.1351 -1.1491
16054TIP3    H269578   1.336   1.520  12.591  1.9632 -0.0786 -1.5021
16055TIP3   OH269579   3.972   2.430  17.562  0.4794 -0.0027  0.2522
16055TIP3    H169580   3.894   2.377  17.578 -1.9451  2.3000 -2.6845
16055TIP3    H269581   3.949   2.517  17.596  2.3405  0.4449  0.4745
16056TIP3   OH269582   6.611   1.507  14.879  0.4241  0.3955 -0.0147
16056TIP3    H169583   6.691   1.481  14.834 -0.5612 -1.0835 -0.9844
16056TIP3    H269584   6.623   1.476  14.969  0.4537 -0.9695 -0.4644
16057TIP3   OH269585   4.017   2.791   5.573 -0.2696 -0.1718  0.7228
16057TIP3    H169586   4.005   2.727   5.502 -2.0069  0.3802  0.4501
16057TIP3    H269587   3.930   2.798   5.613  0.7463 -0.7478  3.1931
16058TIP3   OH269588   3.239   5.109  16.104 -0.3385  0.5100 -0.0816
16058TIP3    H169589   3.154   5.076  16.133 -0.3055  0.3131 -0.2045
16058TIP3    H269590   3.227   5.129  16.011 -0.5717  1.5715  0.1690
16059TIP3   OH269591   0.777   4.255   2.999  0.2820 -0.0860 -0.3021
16059TIP3    H169592   0.848   4.269   3.062 -1.2878  1.3654  1.2561
16059TIP3    H269593   0.733   4.340   2.994 -1.8036 -1.1365 -0.6114
16060TIP3   OH269594   2.448   4.950  10.454 -0.3775 -0.0001  0.2064
16060TIP3    H169595   2.522   4.931  10.397 -0.1047  0.9388  0.2208
16060TIP3    H269596   2.423   5.040  10.431 -0.9847 -0.0160  0.7726
16061TIP3   OH269597   6.676   0.640  16.787 -0.0309 -0.4999  0.4688
16061TIP3    H169598   6.761   0.612  16.823  0.4084 -0.5521 -0.5715
16061TIP3    H269599   6.638   0.694  16.856  1.5231  0.7860  0.3919
16062TIP3   OH269600   1.089   3.748  12.898  0.8050  0.1034 -0.8949
16062TIP3    H169601   1.058   3.818  12.841 -0.7751 -0.5319 -0.8793
16062TIP3    H269602   1.112   3.792  12.980 -1.4456  0.5205 -0.4115
16063TIP3   OH269603   3.870   0.756  15.530 -0.0618 -0.1931 -0.3783
16063TIP3    H169604   3.779   0.784  15.539  0.7961  2.0638  3.3608
16063TIP3    H269605   3.897   0.732  15.619  3.1032 -0.3742 -1.2504
16064TIP3   OH269606   2.860   4.438  16.049  0.4582 -0.1391  0.1158
16064TIP3    H169607   2.848   4.474  16.137 -0.9089  0.1139 -0.1505
16064TIP3    H269608   2.902   4.354  16.063  1.6355  0.5506  0.9063
16065TIP3   OH269609   5.869   2.605   5.901  0.3193 -0.1528 -0.4092
16065TIP3    H169610   5.791   2.656   5.920 -0.2020 -1.2812  0.5449
16065TIP3    H269611   5.938   2.646   5.954  0.5171  1.1301 -1.6023
16066TIP3   OH269612   4.676   1.407  14.588  0.1257 -0.6473 -0.3297
16066TIP3    H169613   4.599   1.370  14.545  0.7075 -1.7794 -0.4133
16066TIP3    H269614   4.646   1.492  14.622 -0.2465  0.5716 -3.3792
16067TIP3   OH269615   4.552   4.100   2.354 -0.6044  0.4743  0.1651
16067TIP3    H169616   4.457   4.107   2.353 -0.5663  1.0434 -0.9374
16067TIP3    H269617   4.573   4.065   2.441 -1.7404  1.2557  0.7668
16068TIP3   OH269618   4.592   4.924   5.430  0.6572  0.0300 -0.5720
16068TIP3    H169619   4.497   4.918   5.427  0.7091 -0.9107 -0.4233
16068TIP3    H269620   4.621   4.838   5.460  1.5310  0.4718 -0.1187
16069TIP3   OH269621   5.910   1.141   1.765 -0.4409  0.0519 -0.1366
16069TIP3    H169622   5.999   1.106   1.759 -0.1592  0.6657  0.3018
16069TIP3    H269623   5.887   1.130   1.857 -0.5334  0.5694 -0.0976
16070TIP3   OH269624   0.642   0.832  12.688 -0.1858  0.4045 -0.0995
16070TIP3    H169625   0.632   0.794  12.601  1.1399  0.5029 -0.3036
16070TIP3    H269626   0.555   0.821  12.728 -0.7198  0.0588 -1.2961
16071TIP3   OH269627   6.029   3.136  10.927  0.6542 -0.6169 -0.5787
16071TIP3    H169628   6.101   3.073  10.923  0.9624 -0.2638 -0.7414
16071TIP3    H269629   6.070   3.220  10.905 -0.2665 -0.7630 -3.1757
16072TIP3   OH269630   3.006   5.075   4.034 -0.1004  0.2648 -0.4385
16072TIP3    H169631   3.071   5.009   4.008  0.0273  0.3413 -0.3148
16072TIP3    H269632   3.057   5.154   4.051 -0.3349  0.6185 -1.3304
16073TIP3   OH269633   1.293   5.602   3.962  0.3160  0.7816  0.5536
16073TIP3    H169634   1.316   5.694   3.974 -1.1280  1.4532 -1.4068
16073TIP3    H269635   1.198   5.599   3.972  0.5351 -0.9820  3.0635
16074TIP3   OH269636   1.269   5.366   5.185  0.1043  0.5901 -0.1279
16074TIP3    H169637   1.357   5.393   5.212  0.1011 -0.2001  0.7082
16074TIP3    H269638   1.220   5.447   5.177  1.0576  1.0864 -1.1523
16075TIP3   OH269639   3.563   2.787   1.774  0.1640 -0.7903 -0.7016
16075TIP3    H169640   3.640   2.816   1.823 -1.7312 -0.2981  2.2434
16075TIP3    H269641   3.490   2.796   1.836 -2.1144 -2.3287 -2.9484
16076TIP3   OH269642   3.408   0.373  15.315 -0.5945  0.1531 -0.3142
16076TIP3    H169643   3.445   0.420  15.240 -0.3264  1.4305  0.5918
16076TIP3    H269644   3.403   0.282  15.285  2.0819  0.1231 -0.9599
16077TIP3   OH269645   2.364   3.551  11.169  0.0377 -0.5788  0.2493
16077TIP3    H169646   2.346   3.629  11.222 -1.1443  0.1886 -1.2042
16077TIP3    H269647   2.424   3.583  11.101  0.1549 -1.1169  0.1005
16078TIP3   OH269648   6.647   3.443  16.111 -0.3662  0.0222 -0.6047
16078TIP3    H169649   6.691   3.453  16.195 -2.1687  2.7503  0.1661
16078TIP3    H269650   6.554   3.448  16.133 -0.8880  3.3333 -2.8863
16079TIP3   OH269651   1.390   1.703  16.088 -0.2264 -0.7075 -0.0253
16079TIP3    H169652   1.316   1.713  16.029  0.3064 -0.0608 -0.5941
16079TIP3    H269653   1.350   1.688  16.174 -1.0520  0.9500 -0.0710
16080TIP3   OH269654   2.184   6.207   4.400  0.3824  0.0543  0.0749
16080TIP3    H169655   2.242   6.149   4.450  0.2156  0.7619  1.1268
16080TIP3    H269656   2.124   6.242   4.466  0.6857  1.6779 -0.4834
16081TIP3   OH269657   2.871   3.567  13.480 -0.2184  0.0390  0.2762
16081TIP3    H169658   2.839   3.648  13.518 -1.4546 -0.1917 -0.1974
16081TIP3    H269659   2.960   3.557  13.513 -0.6650  0.6768  1.7546
16082TIP3   OH269660   0.183   4.795  16.351 -0.0688 -0.0072 -1.0617
16082TIP3    H169661   0.106   4.802  16.406  0.2225  1.5899 -0.8090
16082TIP3    H269662   0.215   4.885  16.342  1.9009 -0.6474 -0.9597
16083TIP3   OH269663   0.210   3.357   0.154  0.5644 -0.0868  0.4457
16083TIP3    H169664   0.132   3.302   0.151  0.5193 -0.0690  1.0873
16083TIP3    H269665   0.283   3.298   0.138  0.4913 -0.2801  0.8178
16084TIP3   OH269666   4.674   0.463  16.066 -0.1736  0.3843  0.0041
16084TIP3    H169667   4.645   0.552  16.087  1.0736  1.0203 -0.8659
16084TIP3    H269668   4.719   0.472  15.982  0.0584 -1.0597 -0.0442
16085TIP3   OH269669   5.369   2.716  12.372  0.0719  0.4604  0.2673
16085TIP3    H169670   5.360   2.811  12.372 -0.4898  0.4270  1.4016
16085TIP3    H269671   5.323   2.688  12.451 -2.6579 -1.0468 -1.6770
16086TIP3   OH269672   2.615   2.325  11.732  0.6092  0.1706 -0.0469
16086TIP3    H169673   2.588   2.314  11.823  1.7270 -2.6776  0.0287
16086TIP3    H269674   2.679   2.256  11.717  2.1119  1.9041 -2.3997
16087TIP3   OH269675   5.718   5.063   4.341  0.0469  0.4085 -0.0427
16087TIP3    H169676   5.673   5.148   4.343  0.6858  0.7375  1.6195
16087TIP3    H269677   5.805   5.083   4.307  0.5820  0.6556  1.3898
16088TIP3   OH269678   2.666   2.197  13.871 -0.3379  0.0492  0.1016
16088TIP3    H169679   2.645   2.218  13.780  1.0967 -0.7682 -0.4483
16088TIP3    H269680   2.721   2.119  13.866  0.1694  0.2742  1.6420
16089TIP3   OH269681   4.941   3.371  14.044  0.5912 -0.8117 -0.1891
16089TIP3    H169682   4.850   3.391  14.067  1.1376  1.5139  0.2253
16089TIP3    H269683   4.955   3.417  13.961  1.6266 -0.4111  0.1931
16090TIP3   OH269684   0.172   3.814   2.963 -0.6990 -0.3483 -0.2764
16090TIP3    H169685   0.236   3.818   2.892  2.7309 -3.5469  2.2416
16090TIP3    H269686   0.166   3.904   2.995  0.3664  0.5203 -2.3558
16091TIP3   OH269687   3.350   0.570   0.926 -0.1023 -0.0545 -0.0984
16091TIP3    H169688   3.318   0.614   0.847  1.3513  0.7866 -0.2600
16091TIP3    H269689   3.314   0.621   0.998  1.0149  1.0241 -0.2777
16092TIP3   OH269690   2.903   1.228   0.296 -0.2401  0.1056  0.2414
16092TIP3    H169691   2.814   1.243   0.329 -0.3322  0.6504 -0.2328
16092TIP3    H269692   2.949   1.310   0.315 -0.0303  0.0737 -0.1248
16093TIP3   OH269693   2.635   2.614  16.737  0.8477 -0.3627 -0.2386
16093TIP3    H169694   2.675   2.625  16.823 -1.2479  1.5321  0.6109
16093TIP3    H269695   2.684   2.673  16.679  2.1999 -1.5705 -0.3579
16094TIP3   OH269696   4.186   6.417  15.338 -0.0278 -0.2234 -0.5598
16094TIP3    H169697   4.228   6.440  15.421 -0.3819  0.3122 -0.5209
16094TIP3    H269698   4.177   6.500  15.292 -0.9407 -0.3402 -0.6089
16095TIP3   OH269699   5.334   2.352   3.445 -0.5810 -0.5481 -0.1551
16095TIP3    H169700   5.360   2.278   3.390 -0.6922 -0.2270 -0.6457
16095TIP3    H269701   5.383   2.339   3.526 -0.8939 -1.3713 -0.0778
16096TIP3   OH269702   4.006   2.089   0.618  0.1280  0.1545 -0.1773
16096TIP3    H169703   4.098   2.065   0.635  0.2061  1.5222  1.6797
16096TIP3    H269704   4.010   2.180   0.590 -0.7188  0.5009  0.7865
16097TIP3   OH269705   5.331   5.580   1.095 -0.8558 -0.3370  0.3809
16097TIP3    H169706   5.296   5.612   1.178  1.0689  2.1433  0.3669
16097TIP3    H269707   5.294   5.639   1.029 -1.2671 -1.4097 -0.3636
16098TIP3   OH269708   1.173   5.463  15.291 -0.1887 -1.3251  0.2087
16098TIP3    H169709   1.079   5.465  15.313 -0.3353 -0.4686 -0.4530
16098TIP3    H269710   1.200   5.374  15.311 -1.2136 -1.6646  0.1390
16099TIP3   OH269711   3.930   6.289  16.963 -0.3100 -0.0349 -0.2506
16099TIP3    H169712   3.885   6.221  17.014 -0.5309  0.6177  0.4501
16099TIP3    H269713   4.022   6.280  16.987 -0.2952 -0.2866 -0.3992
16100TIP3   OH269714   1.104   0.113  14.460 -0.7275 -0.1759 -0.2634
16100TIP3    H169715   1.140   0.170  14.528 -0.0892  0.5176 -1.1675
16100TIP3    H269716   1.085   0.030  14.506  1.8648 -0.5429  0.3066
16101TIP3   OH269717   3.551   4.422   3.496 -0.2623  0.4712  0.2964
16101TIP3    H169718   3.490   4.488   3.465 -2.0584 -0.4676  1.6616
16101TIP3    H269719   3.498   4.364   3.551  1.7451 -0.7248  1.0773
16102TIP3   OH269720   4.170   1.520   5.557 -0.2748  0.2696  0.0882
16102TIP3    H169721   4.105   1.502   5.490 -2.5553  1.7693  1.7691
16102TIP3    H269722   4.161   1.448   5.619 -0.3903  0.5323  0.3756
16103TIP3   OH269723   2.578   3.117  15.112  0.0025 -0.3332 -0.2714
16103TIP3    H169724   2.647   3.082  15.169  0.3987  1.3021  0.2925
16103TIP3    H269725   2.625   3.172  15.049 -0.8064  1.3602  0.5408
16104TIP3   OH269726   3.715   4.035  15.769  0.2174  0.1929 -0.2292
16104TIP3    H169727   3.699   4.064  15.859 -0.2565 -1.1907  0.1662
16104TIP3    H269728   3.718   3.940  15.775  0.4355  0.0845 -1.6485
16105TIP3   OH269729   3.930   0.502  12.643  0.5841  0.0197 -0.1144
16105TIP3    H169730   3.884   0.461  12.570  2.1238  0.1915 -1.2455
16105TIP3    H269731   3.940   0.433  12.708 -1.4912  0.0695  0.3042
16106TIP3   OH269732   0.040   2.629   1.759  0.5146  0.2103 -0.4327
16106TIP3    H169733   0.131   2.651   1.738  0.7674 -0.9444 -0.5900
16106TIP3    H269734   0.020   2.683   1.836  1.4836  0.1394 -0.1198
16107TIP3   OH269735   4.247   5.397  17.485  0.2239 -0.2551 -0.2162
16107TIP3    H169736   4.317   5.408  17.420 -0.1817  1.3152 -0.4143
16107TIP3    H269737   4.201   5.318  17.456 -0.8427  1.1556 -2.7680
16108TIP3   OH269738   2.095   0.762  14.962  0.0193  0.0119 -0.0290
16108TIP3    H169739   2.017   0.808  14.932  1.1546  0.6005 -2.2411
16108TIP3    H269740   2.147   0.828  15.008  0.1027  0.1199 -0.2755
16109TIP3   OH269741   4.130   2.676   4.750 -0.3273 -0.4228  0.5059
16109TIP3    H169742   4.154   2.618   4.822  2.5027 -0.5184 -0.3852
16109TIP3    H269743   4.210   2.726   4.732 -1.0856 -0.0176 -2.1911
16110TIP3   OH269744   4.595   1.274  10.940 -0.2002  0.0340 -0.2778
16110TIP3    H169745   4.642   1.236  10.866 -0.8556 -0.1372 -0.6131
16110TIP3    H269746   4.561   1.198  10.988  0.4627  0.1350  0.3624
16111TIP3   OH269747   1.068   2.767  16.216  0.0059  0.0554 -0.6274
16111TIP3    H169748   1.149   2.742  16.171  0.6684  1.5059 -0.3027
16111TIP3    H269749   1.090   2.760  16.310  0.4986  2.4794 -0.4953
16112TIP3   OH269750   2.862   3.976  11.859 -0.1474  0.3040  0.2028
16112TIP3    H169751   2.818   3.955  11.941  0.1843  0.0517  0.3188
16112TIP3    H269752   2.948   4.008  11.886 -0.2049  0.6632 -0.0280
16113TIP3   OH269753   2.980   4.716   1.120 -0.1468  0.0176 -0.2649
16113TIP3    H169754   2.941   4.629   1.107 -0.1423  0.0492 -0.5028
16113TIP3    H269755   2.974   4.731   1.214 -0.9780  0.1497 -0.3287
16114TIP3   OH269756   0.059   1.665  15.150 -0.1164  0.3590  0.2678
16114TIP3    H169757  -0.019   1.671  15.094  1.2221  0.5949 -1.6671
16114TIP3    H269758   0.045   1.585  15.202 -1.6931  0.4811  0.0807
16115TIP3   OH269759   0.314   6.220   1.336 -0.2772 -0.4487  0.2003
16115TIP3    H169760   0.275   6.266   1.410 -0.0622  0.4157 -0.2221
16115TIP3    H269761   0.345   6.137   1.373  0.9749  0.5018  1.3504
16116TIP3   OH269762   1.349   0.970  13.956  0.3728 -0.3712 -0.4587
16116TIP3    H169763   1.316   0.944  13.870 -0.9885  0.4387 -0.1972
16116TIP3    H269764   1.353   0.888  14.005 -0.2387 -0.6259 -0.8288
16117TIP3   OH269765   5.369   3.816   4.403  0.1712  0.0840  0.0408
16117TIP3    H169766   5.460   3.791   4.421  0.6626 -0.0434 -2.3896
16117TIP3    H269767   5.319   3.772   4.472  1.7127 -1.8782 -0.0069
16118TIP3   OH269768   1.900   2.100   2.329  0.2928 -0.3789 -0.2087
16118TIP3    H169769   1.953   2.145   2.394  1.1600 -2.2062  0.4002
16118TIP3    H269770   1.882   2.167   2.262  1.6338  0.8127  0.5758
16119TIP3   OH269771   4.180   4.081   2.537  0.0518 -0.1645  0.0594
16119TIP3    H169772   4.090   4.048   2.530 -0.0805 -0.3438  2.1387
16119TIP3    H269773   4.211   4.083   2.447 -1.5246 -1.5164 -0.5685
16120TIP3   OH269774   6.158   5.293  12.045 -0.4004  0.2750  0.4685
16120TIP3    H169775   6.234   5.323  11.996 -0.6725 -1.1089 -0.8822
16120TIP3    H269776   6.084   5.337  12.003 -0.5557 -0.2858  0.1372
16121TIP3   OH269777   3.674   0.256   3.977  0.5754  0.5521 -0.5038
16121TIP3    H169778   3.634   0.208   3.905 -0.0411  1.6324 -0.9051
16121TIP3    H269779   3.602   0.303   4.018  1.2237  1.4721 -0.3901
16122TIP3   OH269780   3.631   2.291   5.372  0.9666 -0.2215 -0.2030
16122TIP3    H169781   3.537   2.295   5.391  0.9448  2.0968 -0.5555
16122TIP3    H269782   3.673   2.286   5.458  0.5681 -0.2924 -0.0080
16123TIP3   OH269783   0.490   1.659  12.049 -0.0093  0.3027  0.2773
16123TIP3    H169784   0.404   1.644  12.009  0.0790  0.3694  0.0580
16123TIP3    H269785   0.484   1.619  12.135 -0.3735  0.5920  0.3927
16124TIP3   OH269786   5.410   0.041  15.410 -0.3128 -0.0954 -0.3982
16124TIP3    H169787   5.423  -0.042  15.364  1.9710 -0.3723  0.5892
16124TIP3    H269788   5.364   0.018  15.491  1.2321 -0.6305  0.3726
16125TIP3   OH269789   6.222   0.721  17.156  0.3111  0.4375  0.4763
16125TIP3    H169790   6.260   0.768  17.231 -0.8998  0.1273  1.3228
16125TIP3    H269791   6.128   0.732  17.167  0.1087  0.0475 -0.8045
16126TIP3   OH269792   0.050   5.302  16.745  0.2991  0.1628  0.4092
16126TIP3    H169793   0.012   5.361  16.680 -1.0374 -1.3631 -0.2675
16126TIP3    H269794   0.041   5.348  16.828  0.4123  1.4073 -0.2395
16127TIP3   OH269795   2.247   1.683  15.500  1.1812 -0.2545  0.6818
16127TIP3    H169796   2.343   1.682  15.508  1.3563 -1.8736 -0.9469
16127TIP3    H269797   2.227   1.768  15.463  2.3091 -0.8994 -1.5831
16128TIP3   OH269798   1.893   1.848  15.312 -0.0694 -0.1073  0.0408
16128TIP3    H169799   1.926   1.884  15.394  1.0194  0.0257 -0.4368
16128TIP3    H269800   1.855   1.923  15.266  1.3491  0.3041 -0.5396
16129TIP3   OH269801   1.417   5.276   0.137 -0.0313 -0.0376  0.1080
16129TIP3    H169802   1.363   5.352   0.115  0.6569 -0.4302 -3.7704
16129TIP3    H269803   1.500   5.314   0.168 -1.1899  0.6048  2.6339
16130TIP3   OH269804   0.413   3.001   3.126 -0.6213  0.4970  0.2813
16130TIP3    H169805   0.426   3.068   3.193  1.7725  1.0574 -0.6237
16130TIP3    H269806   0.378   3.049   3.051  1.8891  1.0379 -0.6607
16131TIP3   OH269807   2.739   3.275  11.715 -0.2074 -0.0150 -0.1520
16131TIP3    H169808   2.724   3.180  11.723 -1.0343  0.1288  0.0334
16131TIP3    H269809   2.725   3.294  11.623  0.5217 -0.1640 -0.2983
16132TIP3   OH269810   3.481   1.837  16.487  0.6329 -0.5462 -0.5645
16132TIP3    H169811   3.389   1.853  16.466  0.6522  0.2749 -0.0711
16132TIP3    H269812   3.478   1.791  16.572  0.6687 -0.8697 -0.7375
16133TIP3   OH269813   1.402   0.215   1.014  0.0529 -0.0743 -0.1090
16133TIP3    H169814   1.404   0.280   0.944 -0.1360 -0.6095 -0.6157
16133TIP3    H269815   1.482   0.231   1.064  0.7269 -0.3580 -1.0676
16134TIP3   OH269816   3.411   5.784   2.393 -0.1141  0.5871 -0.0753
16134TIP3    H169817   3.401   5.850   2.461  0.4373 -0.0425  0.6314
16134TIP3    H269818   3.392   5.701   2.436  2.3052 -0.0677 -0.0988
16135TIP3   OH269819   2.303   0.304  16.235 -0.0357 -0.1099 -0.0827
16135TIP3    H169820   2.335   0.295  16.146  0.2411  0.4133 -0.0390
16135TIP3    H269821   2.311   0.216  16.272  1.9677  0.1169  0.1321
16136TIP3   OH269822   2.283   4.445  14.065  0.2689  0.4361  0.2219
16136TIP3    H169823   2.280   4.497  14.145  0.8201  1.6050 -0.4830
16136TIP3    H269824   2.195   4.408  14.056 -0.4289  1.9981  0.2868
16137TIP3   OH269825   5.881   6.512  13.294  0.4806  0.1986 -0.1384
16137TIP3    H169826   5.800   6.495  13.246  1.0554 -2.8881 -0.2392
16137TIP3    H269827   5.857   6.577  13.361 -1.9015 -0.1754 -0.5569
16138TIP3   OH269828   1.322   1.852   3.902 -0.1355  0.1212  0.1177
16138TIP3    H169829   1.285   1.827   3.818  0.1999  0.4586 -0.1358
16138TIP3    H269830   1.414   1.826   3.896 -0.0246  0.4798  0.2356
16139TIP3   OH269831   4.560   5.313  14.896  0.3831  0.5587 -0.0522
16139TIP3    H169832   4.598   5.328  14.982  0.8230  0.1603 -0.1752
16139TIP3    H269833   4.530   5.400  14.868 -0.6682  0.5349  0.9123
16140TIP3   OH269834   2.987   5.008  16.107  0.6079  0.0421  0.6894
16140TIP3    H169835   2.947   4.921  16.109  0.2500  0.2195  1.9086
16140TIP3    H269836   2.947   5.051  16.031 -1.3280  0.0902  1.6504
16141TIP3   OH269837   2.132   4.625  10.731 -0.7857 -0.1848 -0.0966
16141TIP3    H169838   2.095   4.666  10.653 -0.0547  1.4978  0.3889
16141TIP3    H269839   2.190   4.557  10.698 -1.3557 -0.2512 -0.9790
16142TIP3   OH269840   1.932   0.399   0.438  0.5552 -0.4343 -0.6136
16142TIP3    H169841   1.986   0.426   0.512 -0.2831 -2.8270  0.9743
16142TIP3    H269842   1.982   0.329   0.396 -0.9961 -2.3922  0.6338
16143TIP3   OH269843   4.735   4.373  13.249  0.2457  0.2132 -0.0936
16143TIP3    H169844   4.766   4.284  13.236 -0.7802 -0.0699 -0.6458
16143TIP3    H269845   4.640   4.367  13.244  0.1958  1.6377 -2.1800
16144TIP3   OH269846   4.721   1.786  11.949  0.7653  0.3954  0.0106
16144TIP3    H169847   4.666   1.779  12.027 -0.1127  0.7770 -0.5589
16144TIP3    H269848   4.781   1.712  11.955 -1.4115 -1.5386 -0.5835
16145TIP3   OH269849   0.498   1.428  13.824 -0.0190 -0.6111 -0.6130
16145TIP3    H169850   0.581   1.437  13.777  0.4819 -1.6269  0.0358
16145TIP3    H269851   0.488   1.333  13.836 -1.5951 -0.5469 -1.2447
16146TIP3   OH269852   2.881   0.092  12.078  0.3227  0.6836 -0.2430
16146TIP3    H169853   2.959   0.036  12.083 -1.0113 -1.3051 -0.4765
16146TIP3    H269854   2.893   0.140  11.996  0.5615 -0.8463 -1.1565
16147TIP3   OH269855   2.409   6.519  14.935 -0.4227 -0.6337 -0.3705
16147TIP3    H169856   2.327   6.484  14.972 -0.7988 -0.0387 -0.6234
16147TIP3    H269857   2.392   6.613  14.924 -0.4902 -0.8348 -2.4483
16148TIP3   OH269858   3.127   4.227   1.592  0.1198 -0.0597  0.4717
16148TIP3    H169859   3.220   4.207   1.586  0.6912  2.6151 -1.3919
16148TIP3    H269860   3.117   4.272   1.676  1.2368  2.4554 -0.6462
16149TIP3   OH269861   1.965   1.804  11.752  0.3571  0.3826 -0.4390
16149TIP3    H169862   2.031   1.862  11.789  0.4169 -0.9548  1.7432
16149TIP3    H269863   2.015   1.740  11.701  0.3079  1.9933 -2.6317
16150TIP3   OH269864   2.984   3.619   4.127  0.5111 -0.3473  0.1087
16150TIP3    H169865   2.947   3.593   4.211 -0.2691  1.3703  0.3396
16150TIP3    H269866   2.989   3.538   4.076  2.4821 -1.7377  2.3237
16151TIP3   OH269867   3.104   5.901   1.078  0.0464 -0.0371 -0.9484
16151TIP3    H169868   3.129   5.868   1.165  2.4910  0.4232 -1.3897
16151TIP3    H269869   3.015   5.871   1.066  0.0923 -1.2625  1.1777
16152TIP3   OH269870   0.656   4.859  14.791 -0.3066 -0.6668 -0.2356
16152TIP3    H169871   0.672   4.795  14.721  0.4971  0.0627 -0.7495
16152TIP3    H269872   0.742   4.901  14.804 -1.5755  3.3395 -2.9527
16153TIP3   OH269873   0.606   0.187  12.688 -0.4070 -0.1691  0.0545
16153TIP3    H169874   0.633   0.133  12.763  0.2539  1.1599  0.8262
16153TIP3    H269875   0.530   0.235  12.719  0.4766  1.1500  0.2680
16154TIP3   OH269876   0.156   5.386   1.091 -0.3531 -0.2214  0.1487
16154TIP3    H169877   0.234   5.434   1.066  0.6516 -2.0370 -0.4183
16154TIP3    H269878   0.136   5.414   1.180  1.0781  0.1169  0.3764
16155TIP3   OH269879   4.561   3.877   5.784 -0.3577 -0.8255  0.1292
16155TIP3    H169880   4.595   3.806   5.729  2.3103 -0.0609  0.6202
16155TIP3    H269881   4.561   3.841   5.873  2.1207 -0.0145  0.5644
16156TIP3   OH269882   6.659   0.067  13.945 -0.2106  0.0739 -0.1955
16156TIP3    H169883   6.618   0.069  13.858  1.4582 -0.0745 -1.0254
16156TIP3    H269884   6.749   0.039  13.929 -0.1587 -1.0599  1.7281
16157TIP3   OH269885   5.499   3.525  15.997 -0.7102  0.3519  0.4069
16157TIP3    H169886   5.429   3.460  16.002  0.5298 -0.9882  0.9988
16157TIP3    H269887   5.514   3.536  15.903 -1.8411  0.8352  0.2622
16158TIP3   OH269888   2.173   1.831  11.969 -0.1718 -0.3133  0.5417
16158TIP3    H169889   2.244   1.767  11.964 -0.3299 -0.6649  2.1120
16158TIP3    H269890   2.197   1.898  11.906  0.5959 -1.3375 -0.3018
16159TIP3   OH269891   0.287   1.676   1.001  0.4728  0.0937  0.3330
16159TIP3    H169892   0.354   1.657   0.935 -0.2827 -1.5939 -0.0075
16159TIP3    H269893   0.242   1.753   0.967  0.5001 -0.3829 -0.8463
16160TIP3   OH269894   4.702   5.143   5.077  0.8039 -0.1291  0.3841
16160TIP3    H169895   4.775   5.154   5.016 -0.2899  1.7267 -0.6944
16160TIP3    H269896   4.707   5.052   5.104  1.3235 -1.0885 -2.5452
16161TIP3   OH269897   5.948   2.389   4.050  0.5623 -0.7590 -0.1913
16161TIP3    H169898   5.942   2.301   4.014 -0.3219 -0.2288 -1.4320
16161TIP3    H269899   6.000   2.437   3.986  0.4818 -0.2192  0.1414
16162TIP3   OH269900   1.083   2.009   2.144 -0.2317  0.0331 -0.7033
16162TIP3    H169901   1.117   1.966   2.223  0.1616  1.9462  0.2147
16162TIP3    H269902   1.031   2.082   2.177  0.6898  1.4193 -2.2235
16163TIP3   OH269903   1.055   3.827   4.175 -0.3231  0.3053 -0.1419
16163TIP3    H169904   0.986   3.870   4.224  0.0429 -1.5214  2.1213
16163TIP3    H269905   1.041   3.734   4.190  2.0340 -0.1582 -0.4487
16164TIP3   OH269906   6.302   3.946   1.762  0.3755 -0.2456 -0.3690
16164TIP3    H169907   6.395   3.964   1.752  0.3540 -0.1664 -0.4347
16164TIP3    H269908   6.271   4.011   1.826  0.0606  0.7562 -1.4952
16165TIP3   OH269909   4.455   2.998  11.437  0.1671 -0.6045  0.2223
16165TIP3    H169910   4.452   3.054  11.359  0.6198 -2.6321 -1.3363
16165TIP3    H269911   4.455   2.909  11.402  1.3240 -1.5795  2.5347
16166TIP3   OH269912   5.871   3.279   2.647 -0.0089  0.6690  0.3139
16166TIP3    H169913   5.965   3.296   2.644  0.2911 -0.7832  0.4355
16166TIP3    H269914   5.861   3.211   2.714 -0.7797 -1.1277 -1.4898
16167TIP3   OH269915   0.388   3.828  14.440  0.0948  0.2823  0.0002
16167TIP3    H169916   0.363   3.755  14.496  1.3029  0.3487  0.6545
16167TIP3    H269917   0.324   3.896  14.459  0.6852  0.4291  1.5815
16168TIP3   OH269918   4.458   6.550   3.545  0.6073  0.9218  0.0567
16168TIP3    H169919   4.382   6.553   3.603  1.8723 -0.2782  1.8894
16168TIP3    H269920   4.476   6.457   3.534  3.8337  1.0456  2.6231
16169TIP3   OH269921   6.521   4.678  15.100 -0.3418  0.1564 -0.6147
16169TIP3    H169922   6.590   4.727  15.145 -0.9984  0.5879 -0.0571
16169TIP3    H269923   6.488   4.617  15.165  0.8165 -1.4334 -1.4560
16170TIP3   OH269924   0.318   4.406  17.032  0.3684 -0.0451  0.1423
16170TIP3    H169925   0.401   4.363  17.052  0.9560  0.7049 -0.6179
16170TIP3    H269926   0.323   4.426  16.939 -0.6495  0.0529  0.0979
16171TIP3   OH269927   5.221   4.579  12.876  0.2526 -0.1316 -0.1819
16171TIP3    H169928   5.150   4.588  12.940  2.0854  2.2186  1.7279
16171TIP3    H269929   5.217   4.660  12.825  1.7768  0.2278  0.2421
16172TIP3   OH269930   1.984   0.536  11.735  0.0811  0.6144 -0.3546
16172TIP3    H169931   1.912   0.521  11.797 -0.6647  0.2873 -1.2629
16172TIP3    H269932   1.993   0.631  11.731  1.3830  0.6290  1.6026
16173TIP3   OH269933   0.869   2.366   3.395  0.4922  0.7891  0.2233
16173TIP3    H169934   0.901   2.326   3.314 -0.9331 -0.3061  0.1754
16173TIP3    H269935   0.781   2.332   3.406  0.7225  0.7625  2.3528
16174TIP3   OH269936   4.771   4.408  11.714 -0.2579 -0.2525  0.1703
16174TIP3    H169937   4.861   4.377  11.702 -0.7685 -1.0904 -2.0811
16174TIP3    H269938   4.765   4.486  11.659 -0.7211  0.2275  0.8884
16175TIP3   OH269939   4.170   5.964   2.633 -0.0600  0.0695  0.2607
16175TIP3    H169940   4.183   6.043   2.581 -1.5253  1.7301  2.2730
16175TIP3    H269941   4.170   5.994   2.724 -2.5696 -1.8941  1.0261
16176TIP3   OH269942   4.272   1.671  10.763 -0.0273 -0.0269 -0.4090
16176TIP3    H169943   4.188   1.655  10.720  0.5531 -2.0945 -0.9095
16176TIP3    H269944   4.262   1.756  10.805 -2.8791 -0.8144  0.7375
16177TIP3   OH269945   3.949   3.164   1.878 -0.1736  0.3795 -0.3882
16177TIP3    H169946   3.854   3.163   1.868 -0.0449  1.0101 -1.8827
16177TIP3    H269947   3.972   3.257   1.875  0.6608  0.1477 -2.1682
16178TIP3   OH269948   5.964   2.844   0.273  0.0956  0.1842 -0.6852
16178TIP3    H169949   6.045   2.852   0.323 -0.8142 -0.9475  1.0908
16178TIP3    H269950   5.989   2.861   0.182  2.2327  0.2245 -0.1276
16179TIP3   OH269951   6.122   0.762  14.396 -0.3416 -0.2908  0.0312
16179TIP3    H169952   6.209   0.722  14.392  0.3749  1.1186  0.7743
16179TIP3    H269953   6.085   0.731  14.478 -1.3193 -2.3375 -1.1206
16180TIP3   OH269954   5.844   3.585   4.666 -0.0542  0.1807 -0.0292
16180TIP3    H169955   5.868   3.504   4.710  1.3065  0.7608  0.3480
16180TIP3    H269956   5.855   3.566   4.573 -3.1293 -1.1119 -0.2396
16181TIP3   OH269957   5.463   2.963   3.737 -0.7062  0.1055  0.4867
16181TIP3    H169958   5.452   2.954   3.831 -2.3351 -0.1891  0.2969
16181TIP3    H269959   5.526   3.034   3.726  0.4719 -0.6919  1.7937
16182TIP3   OH269960   3.429   1.296  10.656  0.2225  0.1513  0.7274
16182TIP3    H169961   3.443   1.223  10.716  1.2189  0.4943  0.9341
16182TIP3    H269962   3.344   1.278  10.616  0.3891 -1.0535  0.8620
16183TIP3   OH269963   0.846   2.567  10.927  0.0063  0.5001  0.0077
16183TIP3    H169964   0.883   2.501  10.986  0.8292  1.6067  0.7848
16183TIP3    H269965   0.813   2.635  10.985 -0.3311  1.0309 -0.7847
16184TIP3   OH269966   5.190   1.773   2.621 -0.2338 -0.2406 -0.0541
16184TIP3    H169967   5.194   1.719   2.543 -0.3062  0.6657 -0.7064
16184TIP3    H269968   5.261   1.741   2.676  0.1124 -0.5937 -0.6954
16185TIP3   OH269969   2.235   4.639   3.345 -0.8815 -0.1580 -0.4017
16185TIP3    H169970   2.304   4.614   3.283  0.2187  0.5739  0.4770
16185TIP3    H269971   2.280   4.696   3.408 -2.4585  0.9238 -0.2050
16186TIP3   OH269972   2.537   0.591  12.963  0.1361  0.3197 -0.4918
16186TIP3    H169973   2.455   0.629  12.992  0.0100  1.0733 -1.7558
16186TIP3    H269974   2.586   0.665  12.927  0.5435 -0.4430 -1.5401
16187TIP3   OH269975   1.104   5.907   6.494  0.3833 -0.4763  0.6341
16187TIP3    H169976   1.128   5.838   6.432  1.3979  0.4327 -0.0233
16187TIP3    H269977   1.188   5.947   6.519 -0.2873  2.5717 -1.4366
16188TIP3   OH269978   1.041   3.282   2.051  0.1993 -0.2359  0.5405
16188TIP3    H169979   1.028   3.355   2.111  3.2239 -0.3906  1.5682
16188TIP3    H269980   1.042   3.322   1.964 -0.1279  0.6295  0.9243
16189TIP3   OH269981   4.762   5.241   5.580  0.3334 -0.8218 -0.2680
16189TIP3    H169982   4.804   5.274   5.660 -0.0738  0.3603 -0.5194
16189TIP3    H269983   4.668   5.245   5.599  0.2372 -0.5884 -0.7858
16190TIP3   OH269984   2.906   1.351   2.877 -0.4256  0.7997  0.2333
16190TIP3    H169985   2.836   1.398   2.922  1.7082  2.3604  2.1214
16190TIP3    H269986   2.958   1.313   2.947 -0.2985 -1.8839 -1.1764
16191TIP3   OH269987   1.563   1.284   2.274  0.0623  0.8782 -0.1157
16191TIP3    H169988   1.630   1.217   2.262  0.1862  0.5830  1.9204
16191TIP3    H269989   1.612   1.366   2.279  0.2546  0.7178  0.8571
16192TIP3   OH269990   0.430   2.091   5.063 -0.0013 -0.0999  0.2223
16192TIP3    H169991   0.410   2.180   5.092  0.7754  0.5495 -1.1332
16192TIP3    H269992   0.443   2.042   5.144 -1.9516  0.6211  1.0418
16193TIP3   OH269993   2.784   0.523  15.075  0.2276  0.2016 -0.1281
16193TIP3    H169994   2.778   0.589  15.007  1.1722  0.0871 -0.3397
16193TIP3    H269995   2.748   0.565  15.153 -0.7204  0.3823 -0.6541
16194TIP3   OH269996   1.559   5.448  15.821 -0.1272  0.1344  0.4628
16194TIP3    H169997   1.538   5.376  15.762 -0.8627  0.8837 -0.2276
16194TIP3    H269998   1.654   5.453  15.821 -0.0454 -1.0471  0.8040
16195TIP3   OH269999   1.659   5.478  12.646 -0.8011  0.1470 -0.3755
16195TIP3    H170000   1.659   5.383  12.659  0.4555 -0.0887 -1.8303
16195TIP3    H270001   1.615   5.491  12.562 -0.3991  0.8023 -0.4925
16196TIP3   OH270002   2.500   6.379   1.559 -0.7337  0.2807  0.2082
16196TIP3    H170003   2.414   6.358   1.522  0.4690 -1.8332 -1.5879
16196TIP3    H270004   2.532   6.296   1.594  0.8162  0.9042  0.3663
16197TIP3   OH270005   1.533   0.531   1.619 -0.5294  0.3707 -0.6584
16197TIP3    H170006   1.551   0.526   1.525 -0.3781  0.3555 -0.6297
16197TIP3    H270007   1.533   0.440   1.648 -0.4921  0.3799 -0.6292
16198TIP3   OH270008   2.520   0.098  11.218 -0.5097  0.2011 -0.2334
16198TIP3    H170009   2.600   0.048  11.200 -1.6281 -0.8549 -2.6920
16198TIP3    H270010   2.551   0.177  11.263  1.8746 -0.2992 -0.8366
16199TIP3   OH270011   6.149   0.241   4.416 -0.0865 -0.3053  0.0765
16199TIP3    H170012   6.166   0.258   4.324 -0.0172 -1.0725 -0.0574
16199TIP3    H270013   6.141   0.328   4.455 -0.5555  0.0287 -0.7314
16200TIP3   OH270014   3.067   0.886  16.685 -0.3539  0.5750  0.0380
16200TIP3    H170015   3.104   0.828  16.618 -0.5508  1.2384 -0.6533
16200TIP3    H270016   2.974   0.888  16.666 -0.3659  1.0026  0.1438
16201TIP3   OH270017   6.144   1.554   2.110 -0.3753  0.3985  0.2524
16201TIP3    H170018   6.217   1.502   2.144  1.1747  2.3695  0.1135
16201TIP3    H270019   6.138   1.528   2.018  1.6527  1.7246 -0.3227
16202TIP3   OH270020   2.375   1.399   5.697 -0.1885 -0.6029 -0.1606
16202TIP3    H170021   2.330   1.351   5.627 -0.7900  0.3212 -0.4258
16202TIP3    H270022   2.363   1.491   5.674  0.2253 -0.3053  0.7818
16203TIP3   OH270023   1.457   2.776   5.434  0.0150  0.1815  0.0491
16203TIP3    H170024   1.451   2.765   5.529 -0.2178 -1.0221 -0.0981
16203TIP3    H270025   1.475   2.689   5.400  2.4629  0.9779 -0.8592
16204TIP3   OH270026   2.048   4.289   5.002 -0.0255  0.1935 -0.0292
16204TIP3    H170027   2.012   4.356   4.944 -1.2593 -2.2340 -2.2774
16204TIP3    H270028   2.094   4.228   4.943  0.6941 -1.1956  1.8353
16205TIP3   OH270029   2.336   1.400   0.073 -0.1727  0.5140  0.5426
16205TIP3    H170030   2.420   1.437   0.047  1.1682 -2.7008 -0.1516
16205TIP3    H270031   2.274   1.430   0.006  0.6679  1.8631  0.3373
16206TIP3   OH270032   0.591   1.751   5.253  0.4446 -0.4407  0.6464
16206TIP3    H170033   0.508   1.773   5.293  0.4036  0.9862 -0.1642
16206TIP3    H270034   0.570   1.734   5.161  0.5689 -3.3977  1.0523
16207TIP3   OH270035   4.831   2.488  15.615  0.1434  0.1755  0.5014
16207TIP3    H170036   4.796   2.555  15.556  0.5800 -0.0926 -0.0678
16207TIP3    H270037   4.763   2.479  15.683 -1.4058 -1.0391 -1.1137
16208TIP3   OH270038   1.100   4.175  15.415 -0.4479 -0.9597  0.2262
16208TIP3    H170039   1.129   4.176  15.506  0.6925 -0.2470 -0.1159
16208TIP3    H270040   1.094   4.267  15.390  2.7514 -1.0532 -1.4069
16209TIP3   OH270041   5.883   2.226   3.786  0.1265  0.2536  0.2355
16209TIP3    H170042   5.942   2.198   3.715 -0.5495  0.9011 -0.6036
16209TIP3    H270043   5.804   2.254   3.741 -1.6441 -2.4309  1.4134
16210TIP3   OH270044   5.436   4.397  13.141 -0.1373 -0.3046  0.0878
16210TIP3    H170045   5.456   4.418  13.050 -0.1039 -0.7703 -0.0124
16210TIP3    H270046   5.475   4.311  13.155 -1.5047 -0.9527  0.0684
16211TIP3   OH270047   5.755   1.042   2.027 -0.4773 -0.0555  0.3699
16211TIP3    H170048   5.770   0.947   2.028  1.2249  0.1616 -0.5173
16211TIP3    H270049   5.831   1.079   2.072  0.6100  1.0051 -2.1080
16212TIP3   OH270050   1.682   2.523  16.769 -0.0527 -0.0265  0.1260
16212TIP3    H170051   1.594   2.515  16.806 -0.0480  0.0981  0.1664
16212TIP3    H270052   1.728   2.445  16.800 -0.2766 -0.3134 -0.2527
16213TIP3   OH270053   1.766   5.421  14.687  0.4224 -0.3293 -0.6254
16213TIP3    H170054   1.850   5.391  14.653  0.5207 -1.3556  0.4663
16213TIP3    H270055   1.761   5.513  14.661  3.4185  0.7991  2.0830
16214TIP3   OH270056   2.478   0.633  14.774 -0.9198 -0.3220  0.6908
16214TIP3    H170057   2.437   0.710  14.736 -1.1970  0.0969  1.7838
16214TIP3    H270058   2.474   0.566  14.705 -1.0369  0.5142 -0.1235
16215TIP3   OH270059   6.421   3.543  11.725 -0.3965 -0.4159 -0.1791
16215TIP3    H170060   6.461   3.588  11.650 -0.7919  0.7937  0.3299
16215TIP3    H270061   6.339   3.589  11.740 -0.0076 -0.1951  1.4298
16216TIP3   OH270062   3.272   1.071  17.486  0.3041 -0.5249 -0.5253
16216TIP3    H170063   3.253   1.142  17.547  2.8060 -0.5317  0.4114
16216TIP3    H270064   3.320   1.112  17.415  1.3138 -1.1388 -0.2337
16217TIP3   OH270065   4.324   3.479  15.283 -0.0521 -0.2670  0.0808
16217TIP3    H170066   4.245   3.486  15.230  0.3674 -1.1250 -0.6856
16217TIP3    H270067   4.296   3.503  15.372 -1.0351  0.0016 -0.2951
16218TIP3   OH270068   4.084   1.401   3.745  0.6272  0.2043 -0.2532
16218TIP3    H170069   4.147   1.389   3.674 -0.5787 -1.0493 -1.1949
16218TIP3    H270070   4.132   1.379   3.824  1.1418 -1.8153 -1.0447
16219TIP3   OH270071   3.543   3.769  14.211  0.1416 -0.3147 -0.0415
16219TIP3    H170072   3.591   3.756  14.129  1.0896  2.6306 -0.0683
16219TIP3    H270073   3.610   3.768  14.279 -0.2707 -0.0920  0.3795
16220TIP3   OH270074   1.347   1.884  17.395  0.1779  0.2360 -0.0065
16220TIP3    H170075   1.388   1.911  17.477  0.0515  1.4609 -0.3239
16220TIP3    H270076   1.265   1.842  17.421 -0.6511  2.0394  0.4793
16221TIP3   OH270077   5.243   4.688   3.018  0.0722 -0.0838  0.0697
16221TIP3    H170078   5.319   4.735   2.985  1.3646 -1.6344  0.6889
16221TIP3    H270079   5.237   4.609   2.964 -1.1254  0.0231  0.0146
16222TIP3   OH270080   0.043   3.249   2.724 -0.1859 -0.1093 -0.1559
16222TIP3    H170081   0.086   3.168   2.697 -2.5724 -1.4335 -0.2578
16222TIP3    H270082   0.062   3.312   2.654  2.4813 -0.2077  0.3716
16223TIP3   OH270083   0.553   5.684  14.950 -0.1533 -1.0158 -0.3759
16223TIP3    H170084   0.512   5.633  15.020  0.4625 -1.4052 -0.2895
16223TIP3    H270085   0.593   5.758  14.995  0.8562 -1.6427 -0.2084
16224TIP3   OH270086   1.168   2.287  16.617  0.9051  0.8251  0.0701
16224TIP3    H170087   1.129   2.370  16.591  0.4611  0.5209 -0.2470
16224TIP3    H270088   1.190   2.244  16.535 -0.1192  0.0397  0.1847
16225TIP3   OH270089   6.264   5.532  14.330 -0.0305 -0.2543 -0.4132
16225TIP3    H170090   6.316   5.606  14.362  0.2360 -0.3501 -0.6195
16225TIP3    H270091   6.219   5.499  14.407  0.9111 -0.7308 -0.0528
16226TIP3   OH270092   2.487   0.069  12.824  0.4863 -0.0569  0.7331
16226TIP3    H170093   2.550   0.013  12.869  0.3162  0.8307  2.1184
16226TIP3    H270094   2.481   0.147  12.878 -0.4937  0.6216 -0.3133
16227TIP3   OH270095   6.507   5.314   3.703 -0.0805 -0.8170 -0.4009
16227TIP3    H170096   6.562   5.259   3.647 -0.5528 -1.1610 -0.5365
16227TIP3    H270097   6.567   5.380   3.739  0.7757 -2.1834  0.7967
16228TIP3   OH270098   0.540   2.591   4.635  0.5044 -0.6040 -0.0206
16228TIP3    H170099   0.607   2.561   4.573  1.8091  1.2449  0.3979
16228TIP3    H270100   0.538   2.686   4.623  0.7312 -0.1914  2.6664
16229TIP3   OH270101   0.372   2.922  15.133  0.1044 -0.4683 -0.1708
16229TIP3    H170102   0.296   2.926  15.191  0.2676 -0.0202  0.0093
16229TIP3    H270103   0.437   2.871  15.182  0.6688  0.8840  0.5411
16230TIP3   OH270104   4.352   6.082  15.198 -0.1525  0.1678 -0.1539
16230TIP3    H170105   4.350   6.105  15.105  0.9576  0.6153 -0.0818
16230TIP3    H270106   4.391   5.994  15.200  0.0816  0.2721 -0.0964
16231TIP3   OH270107   0.836   3.725  16.483 -0.1091  0.1316  0.1037
16231TIP3    H170108   0.891   3.784  16.536 -1.2916  0.2535  1.2551
16231TIP3    H270109   0.840   3.762  16.395  1.4790  0.2531  0.1976
16232TIP3   OH270110   4.849   3.882  12.189  0.0873 -0.6635  0.4143
16232TIP3    H170111   4.928   3.934  12.177  1.5472 -2.4172  1.8204
16232TIP3    H270112   4.805   3.922  12.264 -0.5441  0.4672 -0.5250
16233TIP3   OH270113   2.512   3.776   4.562  0.0676  0.1774  0.3213
16233TIP3    H170114   2.470   3.838   4.621  1.6109  0.8691  0.7471
16233TIP3    H270115   2.582   3.737   4.615  1.7541  1.0997 -1.1288
16234TIP3   OH270116   3.687   2.394  16.221 -0.3519 -0.7739  0.2132
16234TIP3    H170117   3.667   2.436  16.138  1.7021 -0.0261  0.0511
16234TIP3    H270118   3.749   2.325  16.199  0.0310 -0.7272  1.1019
16235TIP3   OH270119   0.666   5.213   5.270 -0.2730  0.1022  0.1116
16235TIP3    H170120   0.590   5.270   5.262 -0.2086  0.0350 -1.3205
16235TIP3    H270121   0.741   5.272   5.261 -0.1319  0.1696  1.5280
16236TIP3   OH270122   4.110   0.007  16.421 -0.0855  0.0221  0.6513
16236TIP3    H170123   4.135  -0.041  16.342 -0.1348 -1.3561  1.4468
16236TIP3    H270124   4.022   0.042  16.401  0.2632  0.4466 -0.2066
16237TIP3   OH270125   3.536   4.659   1.966  0.0377  0.1297  0.5946
16237TIP3    H170126   3.513   4.566   1.967 -1.6049  0.4838 -0.2797
16237TIP3    H270127   3.560   4.676   1.875 -1.5736  0.9380  0.2718
16238TIP3   OH270128   6.325   1.724  12.091 -0.0997 -0.1951 -0.3328
16238TIP3    H170129   6.249   1.678  12.057  0.9255 -2.4661  0.2341
16238TIP3    H270130   6.340   1.685  12.177  0.8008  1.2927  0.2194
16239TIP3   OH270131   3.640   4.366   5.537  0.2714 -0.6814 -0.1182
16239TIP3    H170132   3.701   4.422   5.583  2.1535  1.3698 -4.4986
16239TIP3    H270133   3.687   4.283   5.525  0.8013 -0.3224 -0.5321
16240TIP3   OH270134   5.800   4.107  12.545  0.2039  0.1414 -0.5608
16240TIP3    H170135   5.724   4.053  12.525  1.5379 -2.1080  0.0438
16240TIP3    H270136   5.842   4.063  12.619  0.8918  2.5704  0.6027
16241TIP3   OH270137   1.871   4.260   5.517  0.2857  0.6871 -0.1410
16241TIP3    H170138   1.894   4.187   5.574  1.3059  0.9928 -0.1460
16241TIP3    H270139   1.952   4.282   5.471 -0.7569 -0.3574 -2.6592
16242TIP3   OH270140   0.614   2.027   5.668 -0.3108  0.0112 -0.4773
16242TIP3    H170141   0.667   2.015   5.747 -0.5764  0.1509 -0.2793
16242TIP3    H270142   0.658   1.973   5.602 -0.9579 -1.3464  0.1614
16243TIP3   OH270143   1.268   0.585  12.203 -0.0168  0.1767  0.0353
16243TIP3    H170144   1.259   0.679  12.194  3.1492  0.4355 -1.8012
16243TIP3    H270145   1.268   0.569  12.297  0.5152  2.1377  0.4065
16244TIP3   OH270146   0.062   2.360   0.294 -0.1324  0.2845 -0.2900
16244TIP3    H170147   0.044   2.383   0.385 -0.8757 -0.9245 -0.1197
16244TIP3    H270148   0.143   2.309   0.298 -0.3318 -0.0326 -0.2642
16245TIP3   OH270149   2.839   1.750   5.656 -0.4184  0.5196  0.1260
16245TIP3    H170150   2.933   1.739   5.672 -0.5063 -2.0470 -0.7989
16245TIP3    H270151   2.809   1.805   5.729  1.6369  0.7398  0.8681
16246TIP3   OH270152   6.579   5.719  16.976 -0.3618 -0.5900 -0.2001
16246TIP3    H170153   6.592   5.686  17.065 -0.8288  2.2167  1.0065
16246TIP3    H270154   6.592   5.813  16.983 -1.0335 -0.2047 -3.0013
16247TIP3   OH270155   2.974   0.577   5.738 -0.2637  0.0059 -0.1359
16247TIP3    H170156   3.012   0.635   5.803 -2.1781  1.5775 -0.3535
16247TIP3    H270157   3.000   0.614   5.654  1.2047 -1.3505 -0.3435
16248TIP3   OH270158   1.492   2.174   5.753  0.0122  0.1808 -0.0254
16248TIP3    H170159   1.516   2.257   5.712 -0.4383  0.0493 -0.5687
16248TIP3    H270160   1.576   2.132   5.773  0.2395  0.4991 -0.3047
16249TIP3   OH270161   2.521   0.095  11.878 -0.1577  0.0545 -0.4266
16249TIP3    H170162   2.528   0.189  11.862 -1.2383  0.2290  0.0839
16249TIP3    H270163   2.584   0.056  11.816  2.3247  1.2261  1.2014
16250TIP3   OH270164   1.201   3.127   4.944 -0.4844  0.4243 -0.1864
16250TIP3    H170165   1.183   3.205   4.996 -0.1458  0.5807 -0.3024
16250TIP3    H270166   1.269   3.081   4.992 -0.4173  0.3931 -0.3109
16251TIP3   OH270167   5.874   4.125  11.232  0.1379 -0.3423 -0.0592
16251TIP3    H170168   5.790   4.166  11.209  0.3719  0.9082  1.1629
16251TIP3    H270169   5.936   4.160  11.168 -0.1961 -1.0722 -0.8068
16252TIP3   OH270170   2.014   3.661   2.970 -0.7830  0.5080 -0.2857
16252TIP3    H170171   2.083   3.598   2.948 -1.4823 -0.6974  0.8530
16252TIP3    H270172   2.062   3.741   2.993  0.1175  0.4191 -1.7089
16253TIP3   OH270173   2.267   4.133   2.358 -0.3245  0.1656  0.0376
16253TIP3    H170174   2.285   4.119   2.265  4.0380  1.1287  0.5163
16253TIP3    H270175   2.229   4.221   2.362  0.3775  0.5163 -0.7796
16254TIP3   OH270176   1.802   5.759  13.813 -0.6704 -0.3159  0.5259
16254TIP3    H170177   1.821   5.732  13.723  0.7788  0.1288  0.6619
16254TIP3    H270178   1.763   5.846  13.805  1.4701  0.6873  0.3753
16255TIP3   OH270179   1.765   3.693  17.383 -0.0521  0.3954  0.2671
16255TIP3    H170180   1.679   3.698  17.341 -0.0079  0.6042  0.1964
16255TIP3    H270181   1.822   3.747  17.327  0.6205 -1.4327 -0.8907
16256TIP3   OH270182   4.656   6.368  12.356 -0.1043 -0.5318  0.2247
16256TIP3    H170183   4.655   6.351  12.261  0.5774 -2.2327  0.4795
16256TIP3    H270184   4.743   6.342  12.384  0.0271  0.8756  1.2019
16257TIP3   OH270185   2.353   4.581  11.978  0.3901 -0.0552 -0.2684
16257TIP3    H170186   2.308   4.500  11.955 -1.6541  1.3520 -1.5524
16257TIP3    H270187   2.384   4.617  11.895 -0.8699  1.6192 -0.0823
16258TIP3   OH270188   1.569   2.769  17.084 -0.6697  0.2742 -0.3919
16258TIP3    H170189   1.563   2.673  17.081  0.5984  0.1994 -1.5907
16258TIP3    H270190   1.609   2.793  17.001  0.1172  1.7668  0.3729
16259TIP3   OH270191   2.901   2.852  14.101 -0.0560  0.3206  0.0643
16259TIP3    H170192   2.967   2.869  14.168  0.7322  0.2594 -0.6779
16259TIP3    H270193   2.886   2.757  14.107  1.6090 -0.0744 -1.2471
16260TIP3   OH270194   5.245   4.956  11.860  0.2275 -0.3118 -0.3309
16260TIP3    H170195   5.323   4.959  11.805  1.5131  0.9708  1.4480
16260TIP3    H270196   5.236   4.863  11.882 -0.2852 -0.8484 -2.5560
16261TIP3   OH270197   6.517   6.385  11.545  0.0336  0.5863 -0.1201
16261TIP3    H170198   6.496   6.380  11.452 -1.8911  0.6034  0.2774
16261TIP3    H270199   6.455   6.449  11.580  0.2706  0.0708  1.2986
16262TIP3   OH270200   2.148   1.463  12.811 -0.2352  0.4489  0.5049
16262TIP3    H170201   2.148   1.473  12.716 -1.2572 -0.3814  0.3913
16262TIP3    H270202   2.072   1.407  12.829 -0.3815  1.0404  1.8570
16263TIP3   OH270203   4.518   3.581   2.132 -0.1326 -0.0035  0.1536
16263TIP3    H170204   4.501   3.659   2.079 -0.0554 -0.1348 -0.0647
16263TIP3    H270205   4.583   3.532   2.082 -0.3206 -0.3005  0.1955
16264TIP3   OH270206   2.572   2.579   5.503  0.1778 -0.5931 -0.2121
16264TIP3    H170207   2.592   2.557   5.412 -1.6203 -0.3716 -0.7074
16264TIP3    H270208   2.610   2.507   5.553 -0.0607 -1.5038 -1.2761
16265TIP3   OH270209   5.905   0.743   2.502 -0.1365  0.0650  0.5467
16265TIP3    H170210   5.841   0.729   2.432  2.1882  1.6459 -2.1427
16265TIP3    H270211   5.909   0.838   2.512  3.2595  0.2524 -1.1131
16266TIP3   OH270212   1.654   0.460  14.998 -0.0566 -0.6169 -0.3493
16266TIP3    H170213   1.679   0.491  14.911  1.4032  0.3738  0.3906
16266TIP3    H270214   1.736   0.439  15.041 -0.7522 -1.0231  0.8298
16267TIP3   OH270215   5.011   5.217   4.154 -0.2434  0.1084  0.0319
16267TIP3    H170216   5.034   5.125   4.141  2.3237  0.6494  0.1557
16267TIP3    H270217   5.043   5.238   4.242  0.2349  1.3794 -0.4130
16268TIP3   OH270218   1.979   1.163  12.628 -0.0176 -0.4853 -0.1641
16268TIP3    H170219   1.908   1.207  12.581 -0.4826 -2.3394 -1.3055
16268TIP3    H270220   1.935   1.112  12.696  0.3085 -0.8138 -0.1949
16269TIP3   OH270221   2.117   3.850  15.828  0.1416 -0.3944  0.1545
16269TIP3    H170222   2.158   3.836  15.913 -1.3047 -1.9831  0.6482
16269TIP3    H270223   2.023   3.845  15.845 -0.1879 -0.6679 -1.5219
16270TIP3   OH270224   0.489   6.098   0.509  0.2739 -0.8335  0.6978
16270TIP3    H170225   0.412   6.053   0.544  0.5087 -2.2010 -0.4880
16270TIP3    H270226   0.542   6.117   0.587 -0.7058 -0.9154  1.4091
16271TIP3   OH270227   5.139   0.525   2.606  0.0908  0.1222 -0.0078
16271TIP3    H170228   5.045   0.536   2.625  0.1736 -2.0081  2.1693
16271TIP3    H270229   5.141   0.478   2.523 -0.8534 -0.9269  0.5317
16272TIP3   OH270230   6.126   3.439   5.127  0.4770  0.5644  0.1326
16272TIP3    H170231   6.185   3.443   5.201  0.2114  0.8555  0.3330
16272TIP3    H270232   6.139   3.352   5.090  0.3693  0.2979  0.7163
16273TIP3   OH270233   5.802   4.070  13.301 -0.0585  0.0793  0.6061
16273TIP3    H170234   5.873   4.074  13.365  0.1656 -2.6636  0.6534
16273TIP3    H270235   5.803   3.979  13.270  0.3196  1.3656 -3.8809
16274TIP3   OH270236   2.278   4.193   4.801 -0.6370 -0.2566  0.1510
16274TIP3    H170237   2.323   4.177   4.718  0.4902  2.5096  0.1206
16274TIP3    H270238   2.335   4.254   4.848 -1.6714 -1.0597  2.6172
16275TIP3   OH270239   4.044   4.237   3.183 -0.2647  0.0988 -0.2557
16275TIP3    H170240   4.136   4.235   3.157 -0.3938  2.1105 -1.0778
16275TIP3    H270241   4.042   4.197   3.270  1.2232 -0.8197 -0.6204
16276TIP3   OH270242   1.982   1.071   2.546 -0.1117 -0.0961 -0.3284
16276TIP3    H170243   2.012   1.107   2.629  1.2443  0.8462 -1.1962
16276TIP3    H270244   2.030   1.120   2.479  2.1876 -3.6886 -1.6044
16277TIP3   OH270245   1.880   6.289   4.841  0.1729  0.3801 -0.7111
16277TIP3    H170246   1.815   6.347   4.881 -0.4528 -0.3348 -0.6565
16277TIP3    H270247   1.900   6.225   4.910  0.7402  0.4472 -0.8139
16278TIP3   OH270248   0.556   1.540   3.552  0.2502  0.3302 -0.5655
16278TIP3    H170249   0.575   1.446   3.550  0.4253  0.3684 -1.6310
16278TIP3    H270250   0.464   1.547   3.524  0.4538  0.5043 -1.2284
16279TIP3   OH270251   2.741   2.046  15.692  0.9540  0.2780  0.0717
16279TIP3    H170252   2.663   2.096  15.716  0.1951 -0.5751 -0.5419
16279TIP3    H270253   2.730   2.027  15.599  2.4407  1.0745 -0.3087
16280TIP3   OH270254   6.097   5.648   1.523 -0.0061  0.4810  0.5822
16280TIP3    H170255   6.119   5.557   1.503 -1.5848  0.1497  0.2273
16280TIP3    H270256   6.171   5.679   1.576  0.6203 -0.9597  0.6081
16281TIP3   OH270257   0.612   3.236  16.844  0.8092  0.4359  0.1186
16281TIP3    H170258   0.530   3.233  16.794  1.1638 -1.3288 -0.4159
16281TIP3    H270259   0.653   3.318  16.817  0.4509  0.0809 -1.6542
16282TIP3   OH270260   1.033   1.272  13.700  0.3568  0.4287 -0.0742
16282TIP3    H170261   1.045   1.198  13.759 -1.1881  1.1260  1.1904
16282TIP3    H270262   0.962   1.245  13.641  0.5728  0.4739 -0.3585
16283TIP3   OH270263   1.575   3.345  17.260  0.3034 -0.1443 -0.3523
16283TIP3    H170264   1.559   3.417  17.198  0.8581 -0.6709 -1.1329
16283TIP3    H270265   1.526   3.369  17.338  0.9357  1.3746 -0.3883
16284TIP3   OH270266   0.015   5.649  12.601  0.5628  0.2805 -0.1856
16284TIP3    H170267   0.070   5.701  12.542  0.1519  0.3649 -0.4979
16284TIP3    H270268  -0.006   5.570  12.550  1.5050 -0.3890  0.4214
16285TIP3   OH270269   0.606   0.716  15.767  0.4537 -0.8984  0.4141
16285TIP3    H170270   0.562   0.786  15.719 -0.4484 -1.0994  0.9120
16285TIP3    H270271   0.698   0.726  15.746  0.5160  1.2454  1.4761
16286TIP3   OH270272   6.636   2.860   5.793  0.3771 -0.8039  0.2656
16286TIP3    H170273   6.584   2.845   5.873  1.7605  0.3524  1.4281
16286TIP3    H270274   6.574   2.844   5.722 -1.5411  0.3045  1.5796
16287TIP3   OH270275   2.601   1.061   0.161 -0.4210 -0.2051 -0.3929
16287TIP3    H170276   2.565   1.138   0.117  0.6214  0.6824  0.2368
16287TIP3    H270277   2.690   1.053   0.125 -0.1947 -0.5475  0.2258
16288TIP3   OH270278   3.467   5.881   2.964 -0.2012  0.2008  0.4056
16288TIP3    H170279   3.390   5.900   3.017 -0.9650 -0.3207 -0.4786
16288TIP3    H270280   3.446   5.798   2.921  1.3011 -0.5043  0.9598
16289TIP3   OH270281   5.847   0.803  11.581  0.2472  0.1940  0.1183
16289TIP3    H170282   5.877   0.804  11.672 -0.3279  1.2972  0.3166
16289TIP3    H270283   5.752   0.801  11.586  0.1859  1.0215 -0.4343
16290TIP3   OH270284   4.626   0.856  17.174  0.0373  0.0443  0.4904
16290TIP3    H170285   4.634   0.896  17.088  2.9955 -0.8578  0.2226
16290TIP3    H270286   4.537   0.820  17.176 -0.0479 -0.0943 -2.2696
16291TIP3   OH270287   3.106   4.807  12.119  0.1222  0.0203 -0.7529
16291TIP3    H170288   3.167   4.847  12.180  0.5983  0.2636 -1.3741
16291TIP3    H270289   3.074   4.880  12.066 -0.8057 -0.0885 -0.3579
16292TIP3   OH270290   5.936   0.631   4.269  0.2318 -0.3428  0.1994
16292TIP3    H170291   6.013   0.676   4.304  0.8733 -1.9919  0.9739
16292TIP3    H270292   5.911   0.568   4.337 -0.0639 -1.8288 -1.2259
16293TIP3   OH270293   4.878   1.656  14.481  0.0393  0.0939  0.6093
16293TIP3    H170294   4.931   1.717  14.532  1.6512 -0.9958  0.3251
16293TIP3    H270295   4.942   1.598  14.439 -1.2534  0.5632 -2.1838
16294TIP3   OH270296   6.358   5.047  12.019  1.1754  0.1110  0.3963
16294TIP3    H170297   6.430   4.989  11.994  1.1444  0.2512 -0.0305
16294TIP3    H270298   6.344   5.102  11.942  0.8790  0.3551  0.6219
16295TIP3   OH270299   2.519   3.164   1.814  0.1704 -0.4670  0.1465
16295TIP3    H170300   2.551   3.231   1.755 -0.8332  1.2275  1.4223
16295TIP3    H270301   2.429   3.146   1.785  0.1282 -0.5995  0.3507
16296TIP3   OH270302   0.782   6.334   2.655 -0.0391  0.1832 -0.0465
16296TIP3    H170303   0.734   6.263   2.697 -0.8214  0.5506 -0.2982
16296TIP3    H270304   0.859   6.346   2.709  0.8514 -1.8085 -0.7908
16297TIP3   OH270305   2.265   1.189   3.627  0.4865  0.2040  0.1599
16297TIP3    H170306   2.278   1.150   3.714  2.0828 -0.2878 -0.2652
16297TIP3    H270307   2.190   1.142   3.590  0.6106 -0.4846  0.7689
16298TIP3   OH270308   2.908   4.928  17.020  0.2431  0.4440  0.6543
16298TIP3    H170309   2.921   4.844  16.976 -0.6646 -0.0346  1.2630
16298TIP3    H270310   2.895   4.906  17.112 -0.7789  1.1706  0.7088
16299TIP3   OH270311   5.472   0.485   5.953  0.2910 -0.4807 -0.0514
16299TIP3    H170312   5.564   0.472   5.932  0.4913  1.9729 -0.9715
16299TIP3    H270313   5.471   0.561   6.012 -1.1635 -0.1982 -0.3877
16300TIP3   OH270314   3.821   3.794  16.898  0.4136  0.2097 -0.0256
16300TIP3    H170315   3.764   3.842  16.957  0.9370  1.2752 -0.3683
16300TIP3    H270316   3.840   3.712  16.944 -0.4006  0.3719  0.6087
16301TIP3   OH270317   4.051   3.006  13.124  0.3398 -0.0066 -0.1663
16301TIP3    H170318   4.043   2.913  13.103  3.0752 -0.3057 -0.1962
16301TIP3    H270319   4.085   3.008  13.213 -0.3667  1.0254  0.1092
16302TIP3   OH270320   2.431   4.175  15.426 -0.1693 -0.1116  0.3575
16302TIP3    H170321   2.374   4.100  15.433  0.9953 -1.0489  0.1336
16302TIP3    H270322   2.517   4.143  15.455  0.8198  0.5530 -1.6506
16303TIP3   OH270323   5.415   4.920   5.656  0.4962  0.0338 -0.3736
16303TIP3    H170324   5.501   4.954   5.681 -0.1551  0.3929  1.6132
16303TIP3    H270325   5.356   4.995   5.668 -0.6587 -1.1456  2.1532
16304TIP3   OH270326   6.561   4.910  11.917 -0.0043  0.2692  0.3933
16304TIP3    H170327   6.603   4.826  11.930  0.9389  0.4017 -1.4357
16304TIP3    H270328   6.525   4.905  11.828 -1.3546  1.2104  0.8551
16305TIP3   OH270329   1.484   3.175   0.974  0.4394  0.2562 -0.4360
16305TIP3    H170330   1.507   3.265   0.951  0.0232  0.8888  1.4450
16305TIP3    H270331   1.408   3.183   1.031  0.7105 -1.2489  0.1857
16306TIP3   OH270332   5.889   6.256   3.304  0.0487 -0.6788 -0.6794
16306TIP3    H170333   5.809   6.209   3.280 -1.2293  1.2899 -0.4738
16306TIP3    H270334   5.890   6.254   3.400 -0.6251  0.6312 -0.6279
16307TIP3   OH270335   2.398   3.539   2.225  0.1685  0.5950  0.1528
16307TIP3    H170336   2.360   3.622   2.197  0.7870  0.9022  0.2253
16307TIP3    H270337   2.436   3.502   2.145 -0.8064 -0.0112 -0.0558
16308TIP3   OH270338   3.145   3.415   5.115 -0.6110 -0.2652 -0.3539
16308TIP3    H170339   3.131   3.428   5.021 -0.7184 -0.6488 -0.3895
16308TIP3    H270340   3.120   3.324   5.132 -0.7983 -0.1357  0.0875
16309TIP3   OH270341   0.698   4.679  16.693 -0.1846 -0.0708  0.3156
16309TIP3    H170342   0.660   4.731  16.764  0.6874 -0.6194  1.1997
16309TIP3    H270343   0.790   4.702  16.691  0.2814 -1.7078  0.8792
16310TIP3   OH270344   0.417   5.527  12.615 -0.2344 -0.3933  0.1086
16310TIP3    H170345   0.366   5.608  12.614 -0.1595 -0.3491 -0.5256
16310TIP3    H270346   0.499   5.550  12.571  0.8879 -0.1203  2.2211
16311TIP3   OH270347   6.201   5.963  10.323 -0.5312  0.7653 -0.0108
16311TIP3    H170348   6.274   5.991  10.379 -1.2499  0.5939  1.0453
16311TIP3    H270349   6.212   5.868  10.316 -0.8708  0.6816  0.4976
16312TIP3   OH270350   0.087   3.074  10.960  0.0606 -0.3428 -0.0162
16312TIP3    H170351   0.011   3.039  11.006  0.0039 -1.3399 -0.8276
16312TIP3    H270352   0.134   2.996  10.929  0.0455  0.2750 -1.7027
16313TIP3   OH270353   5.044   4.610   4.600  0.2196  0.2764  0.1940
16313TIP3    H170354   5.135   4.624   4.573 -0.1794  2.6115 -0.1130
16313TIP3    H270355   4.996   4.596   4.518  0.1802 -0.2741  0.3055
16314TIP3   OH270356   6.143   1.185   2.933 -0.4093  0.3018  0.6722
16314TIP3    H170357   6.100   1.269   2.920 -1.8420 -0.4188  0.5656
16314TIP3    H270358   6.074   1.120   2.916  0.7395 -0.8974  0.4438
16315TIP3   OH270359   1.984   0.225  12.628 -0.1882 -0.2356 -0.1681
16315TIP3    H170360   1.896   0.221  12.590 -1.5039 -0.0302  2.5984
16315TIP3    H270361   1.994   0.317  12.654  0.8360 -0.2810 -0.3882
16316TIP3   OH270362   3.699   6.041  12.340  0.0895  0.0111 -0.0768
16316TIP3    H170363   3.762   5.990  12.288  1.7586  2.2457 -0.3901
16316TIP3    H270364   3.705   6.003  12.428  1.8826  0.1377 -0.1098
16317TIP3   OH270365   0.902   4.404   4.480 -0.6762  0.1946  0.2692
16317TIP3    H170366   0.959   4.459   4.535 -0.5366 -0.2000  0.5222
16317TIP3    H270367   0.961   4.366   4.415 -0.9961  1.4285 -0.7864
16318TIP3   OH270368   0.112   3.167   3.540  0.5123  0.3529 -0.2999
16318TIP3    H170369   0.081   3.094   3.594 -1.7286  1.7774  0.5173
16318TIP3    H270370   0.050   3.171   3.467  0.7171  1.2876 -0.4426
16319TIP3   OH270371   5.537   1.558  16.660 -0.5589 -0.6341 -0.4366
16319TIP3    H170372   5.601   1.560  16.589  0.5261  0.0649  0.5379
16319TIP3    H270373   5.455   1.532  16.617 -0.1627  0.6995 -2.1288
16320TIP3   OH270374   1.114   2.927   5.399  0.0141 -0.0905 -0.5351
16320TIP3    H170375   1.108   2.870   5.476  0.9807  1.7969  1.0468
16320TIP3    H270376   1.190   2.894   5.351 -0.1400 -0.8381 -0.2867
16321TIP3   OH270377   3.458   2.107   0.156  0.5620 -0.1471 -0.3366
16321TIP3    H170378   3.455   2.017   0.125  3.1992  0.0367 -1.4288
16321TIP3    H270379   3.533   2.109   0.216  0.8330  1.3970 -0.6839
16322TIP3   OH270380   1.380   5.695  12.003 -0.3291  0.5801  0.4246
16322TIP3    H170381   1.457   5.670  12.055 -1.0738  0.0542  1.3017
16322TIP3    H270382   1.377   5.631  11.933  1.2136  1.8268 -0.8777
16323TIP3   OH270383   5.001   5.548  14.395  0.2384 -0.8584 -0.3376
16323TIP3    H170384   5.010   5.461  14.356  1.5148 -1.8973  2.0621
16323TIP3    H270385   5.091   5.576  14.412 -0.1190  1.2617 -1.6021
16324TIP3   OH270386   3.100   3.942  15.003 -0.4792  0.1576  0.3365
16324TIP3    H170387   3.162   3.979  15.067  0.3792  0.6730 -0.7511
16324TIP3    H270388   3.156   3.906  14.934 -1.3813  0.7586 -0.7433
16325TIP3   OH270389   5.321   2.956  11.704 -0.1716  0.1524 -0.0561
16325TIP3    H170390   5.281   3.003  11.631 -0.7539  0.4562  0.4493
16325TIP3    H270391   5.310   3.014  11.780  0.4149 -0.1607  0.2802
16326TIP3   OH270392   6.219   2.636   0.522  0.0909  0.0102  0.3622
16326TIP3    H170393   6.271   2.700   0.472  1.3176 -0.5622  0.8472
16326TIP3    H270394   6.220   2.557   0.469  0.8294 -0.3930  0.9515
16327TIP3   OH270395   4.723   2.752  17.152 -0.0210 -0.0048  1.0199
16327TIP3    H170396   4.647   2.794  17.111 -0.0380  0.1922  1.2524
16327TIP3    H270397   4.792   2.819  17.149  0.6465 -0.7143 -0.6513
16328TIP3   OH270398   3.296   3.485   0.680 -0.2391  0.0220 -0.4711
16328TIP3    H170399   3.244   3.443   0.611 -0.5001  1.4959 -1.2157
16328TIP3    H270400   3.256   3.572   0.690  1.0176  0.5471  0.1699
16329TIP3   OH270401   3.352   2.201  15.135 -0.0366 -0.1015 -0.8511
16329TIP3    H170402   3.360   2.153  15.218 -1.7403  1.0011 -0.0010
16329TIP3    H270403   3.441   2.230  15.116  0.3785 -0.2904  0.6451
16330TIP3   OH270404   4.578   3.715  16.736 -0.0064 -0.1266 -0.0164
16330TIP3    H170405   4.655   3.749  16.692 -1.0334 -1.3573 -3.0478
16330TIP3    H270406   4.611   3.645  16.792  1.6336  3.0079  3.3230
16331TIP3   OH270407   6.324   5.008  12.790  0.5617  0.6597 -0.5180
16331TIP3    H170408   6.250   4.959  12.755 -0.1194 -0.3766  2.0875
16331TIP3    H270409   6.289   5.051  12.868  2.2458  1.7548 -0.3042
16332TIP3   OH270410   2.576   5.760   3.508  0.7257 -0.2121 -0.5738
16332TIP3    H170411   2.513   5.771   3.437 -0.5342  0.9442  0.6805
16332TIP3    H270412   2.529   5.713   3.576  1.5499 -0.2251  0.0059
16333TIP3   OH270413   1.444   3.873  11.126  0.0475  0.4509  0.2960
16333TIP3    H170414   1.481   3.832  11.048 -0.0146  1.0177 -0.0294
16333TIP3    H270415   1.357   3.902  11.099 -0.0783  0.4099  0.6519
16334TIP3   OH270416   0.756   2.680  16.553 -0.2766  0.1586 -0.5190
16334TIP3    H170417   0.727   2.702  16.465  0.4059  1.0494 -0.5282
16334TIP3    H270418   0.812   2.753  16.580  0.3265 -0.5675  0.2744
16335TIP3   OH270419   0.023   1.485  14.210  0.1017  0.4498  0.3263
16335TIP3    H170420  -0.007   1.574  14.223  0.7153  0.6957  0.1021
16335TIP3    H270421   0.109   1.494  14.168 -0.0471 -0.2523 -0.1520
16336TIP3   OH270422   0.912   2.822   0.610  0.0937 -0.3948  0.3624
16336TIP3    H170423   0.875   2.758   0.548 -0.6142  0.4293 -0.0831
16336TIP3    H270424   0.886   2.789   0.696  0.4352 -1.1420  0.1886
16337TIP3   OH270425   6.558   1.302  12.551  0.0595  0.2890 -0.0197
16337TIP3    H170426   6.595   1.269  12.469  2.0801 -1.6704  1.5441
16337TIP3    H270427   6.476   1.254  12.561 -0.0012  0.2389 -0.7058
16338TIP3   OH270428   4.832   6.308   2.069 -0.1141 -0.8630  0.2238
16338TIP3    H170429   4.881   6.320   1.988  1.1262 -1.0091  0.9256
16338TIP3    H270430   4.763   6.374   2.066 -0.6578 -1.4664 -1.3526
16339TIP3   OH270431   3.035   4.724  13.949 -0.3431  0.6895  0.8759
16339TIP3    H170432   2.988   4.780  13.888 -1.2151  0.4229  1.2875
16339TIP3    H270433   3.021   4.635  13.917  1.0788  0.6851  0.1927
16340TIP3   OH270434   5.016   4.931  14.528  0.1671 -0.2290 -0.3462
16340TIP3    H170435   4.986   4.862  14.587 -1.7262  0.8958  0.0909
16340TIP3    H270436   5.109   4.942  14.549  0.0713 -1.4013  0.8229
16341TIP3   OH270437   2.670   0.156  17.562 -0.1746 -0.1610 -0.4558
16341TIP3    H170438   2.738   0.139  17.497 -1.6587 -2.9903 -1.4310
16341TIP3    H270439   2.596   0.189  17.512  0.4749  3.5649  0.6755
16342TIP3   OH270440   6.550   0.155   5.614  0.5261  0.3297  0.3331
16342TIP3    H170441   6.603   0.125   5.688  0.2100 -0.1578  0.3667
16342TIP3    H270442   6.460   0.154   5.647  0.4140  0.3970  0.0318
16343TIP3   OH270443   3.998   3.907   3.527  0.0938  0.2301 -0.2632
16343TIP3    H170444   3.906   3.894   3.548 -0.0179 -0.5715 -1.1668
16343TIP3    H270445   4.038   3.935   3.609 -0.3847 -2.2797  0.9093
16344TIP3   OH270446   3.698   4.787  17.566 -0.2477  0.6723  0.2248
16344TIP3    H170447   3.711   4.880  17.547  1.2094 -0.0768 -3.1132
16344TIP3    H270448   3.714   4.780  17.660 -0.8597  3.8115  0.7013
16345TIP3   OH270449   4.118   2.641   2.402  0.3045 -0.1112 -0.3898
16345TIP3    H170450   4.101   2.666   2.492  2.4756  3.8870 -0.8183
16345TIP3    H270451   4.055   2.692   2.350  0.9091 -0.1385 -1.1842
16346TIP3   OH270452   4.827   6.511   0.212 -0.7460 -0.0047 -0.2978
16346TIP3    H170453   4.763   6.572   0.176 -0.4607  0.6619  0.3019
16346TIP3    H270454   4.779   6.464   0.280 -0.9841 -0.4972 -0.8032
16347TIP3   OH270455   6.383   1.715   1.105  0.1905  0.4274 -0.0100
16347TIP3    H170456   6.396   1.805   1.135  0.8864  0.1491  0.5452
16347TIP3    H270457   6.354   1.668   1.183 -0.6264  0.2553 -0.4034
16348TIP3   OH270458   3.640   4.643  16.450 -0.3627  0.0226  0.1674
16348TIP3    H170459   3.722   4.632  16.402  0.3416 -0.1718  1.3891
16348TIP3    H270460   3.572   4.640  16.382  0.7519  2.8082 -1.1997
16349TIP3   OH270461   1.347   2.164  13.357 -0.2133  0.2060 -0.4434
16349TIP3    H170462   1.429   2.117  13.341  0.0073  0.4043  0.1003
16349TIP3    H270463   1.344   2.175  13.452 -0.8461  0.2477 -0.4680
16350TIP3   OH270464   3.761   5.016   4.971  0.2410 -0.0440 -0.4369
16350TIP3    H170465   3.744   5.038   5.063 -1.7687  0.2783 -0.8483
16350TIP3    H270466   3.771   4.921   4.971 -0.2440 -0.0997  0.0526
16351TIP3   OH270467   3.136   2.803   1.199 -0.1477 -0.4827 -0.3847
16351TIP3    H170468   3.127   2.885   1.248  1.7051 -0.4707  0.0150
16351TIP3    H270469   3.111   2.825   1.110 -2.7063 -0.2801  0.2934
16352TIP3   OH270470   6.547   5.388   4.791 -0.7936 -0.2062 -0.9137
16352TIP3    H170471   6.487   5.372   4.865 -0.1880 -0.8925 -0.5592
16352TIP3    H270472   6.618   5.439   4.829 -1.6109  1.4959 -1.5561
16353TIP3   OH270473   5.331   5.844   4.637 -0.3501  0.0013 -0.2864
16353TIP3    H170474   5.398   5.890   4.587 -0.7344  0.5452 -0.3103
16353TIP3    H270475   5.349   5.866   4.728 -2.2098  2.5887 -0.4274
16354TIP3   OH270476   3.229   6.058   2.243 -0.2525 -0.0363 -0.6022
16354TIP3    H170477   3.296   6.104   2.293 -0.6935  0.2266 -0.2423
16354TIP3    H270478   3.250   6.077   2.152 -0.2496  0.6336 -0.4696
16355TIP3   OH270479   5.843   2.401   6.092  0.0198  0.2829  0.1817
16355TIP3    H170480   5.895   2.459   6.148  2.6709 -2.4430  0.7692
16355TIP3    H270481   5.859   2.434   6.003  2.1862  0.0131  0.4220
16356TIP3   OH270482   0.554   5.220  13.673 -0.0260 -0.0501  0.1726
16356TIP3    H170483   0.533   5.157  13.605 -0.7310  1.4338 -1.0441
16356TIP3    H270484   0.542   5.305  13.632 -0.5125  0.9058  2.1635
16357TIP3   OH270485   5.304   5.249   3.643  0.6529  0.1608  0.1921
16357TIP3    H170486   5.356   5.181   3.599  1.6432  0.7274  0.4349
16357TIP3    H270487   5.217   5.211   3.652  1.0073 -0.8125 -0.2870
16358TIP3   OH270488   5.912   1.860   4.532 -0.0971  0.0607 -0.7489
16358TIP3    H170489   5.823   1.874   4.564 -0.4088 -0.3733 -1.4061
16358TIP3    H270490   5.965   1.856   4.611 -0.7317 -0.1716 -0.3227
16359TIP3   OH270491   6.708   4.834   0.532 -0.6597 -0.5259  0.1911
16359TIP3    H170492   6.761   4.785   0.596 -0.3010 -0.2869  0.0767
16359TIP3    H270493   6.686   4.769   0.465 -2.5011 -1.2447  1.3976
16360TIP3   OH270494   1.779   3.808  14.096 -0.0177  0.1109 -0.6055
16360TIP3    H170495   1.688   3.834  14.112 -0.3053 -1.7036  1.2330
16360TIP3    H270496   1.784   3.795  14.001 -1.9795 -0.6263 -0.6657
16361TIP3   OH270497   3.907   5.288   5.029  0.3916 -0.7819  0.2775
16361TIP3    H170498   3.960   5.287   5.108  0.2225 -1.0199  0.3891
16361TIP3    H270499   3.849   5.363   5.040  2.1141  0.8138 -0.7936
16362TIP3   OH270500   3.267   5.110  15.831 -0.1711 -0.1429 -0.2754
16362TIP3    H170501   3.337   5.134  15.770 -0.2044 -0.6265 -0.5063
16362TIP3    H270502   3.208   5.056  15.779  0.0453 -0.9540  0.3148
16363TIP3   OH270503   3.107   1.741   5.683 -0.5290 -0.3723 -0.1657
16363TIP3    H170504   3.133   1.676   5.748  0.3116  0.3850  0.2765
16363TIP3    H270505   3.162   1.817   5.702 -1.1392  0.2919 -0.9900
16364TIP3   OH270506   1.093   1.666   5.993  0.1110 -0.4132 -0.0589
16364TIP3    H170507   1.024   1.730   5.975  2.4954  2.3265 -0.2487
16364TIP3    H270508   1.077   1.595   5.931 -1.7333  0.7420 -1.0062
16365TIP3   OH270509   4.204   2.856  14.598  0.3297  0.3700  0.2209
16365TIP3    H170510   4.283   2.895  14.635  2.3096 -2.4210 -0.7062
16365TIP3    H270511   4.157   2.822  14.673  0.8363  0.6780  0.6872
16366TIP3   OH270512   3.209   4.339   1.065  0.1916 -0.3588 -0.7090
16366TIP3    H170513   3.121   4.342   1.028  0.7918 -2.0218 -2.4078
16366TIP3    H270514   3.199   4.290   1.146 -0.3120 -1.4152 -1.3915
16367TIP3   OH270515   3.477   3.499  12.378 -0.0921  0.3756  0.3878
16367TIP3    H170516   3.396   3.447  12.372  0.0272  0.2878 -0.6366
16367TIP3    H270517   3.448   3.590  12.375 -0.1460  0.3442 -0.3773
16368TIP3   OH270518   2.647   2.946  17.284  0.1567 -0.1235  0.0661
16368TIP3    H170519   2.679   2.885  17.351  3.2570  1.9771  0.6880
16368TIP3    H270520   2.719   2.954  17.222 -1.2794  0.7734 -1.5758
16369TIP3   OH270521   2.269   1.835   4.945 -0.0375 -0.7401 -0.1878
16369TIP3    H170522   2.238   1.830   4.855  2.1325  0.9144 -1.1299
16369TIP3    H270523   2.244   1.752   4.984 -0.7487 -1.6461 -2.4102
16370TIP3   OH270524   5.876   3.059   1.179 -0.2109  0.0043 -0.2000
16370TIP3    H170525   5.932   3.013   1.241  0.9529  0.2304 -1.0441
16370TIP3    H270526   5.796   3.006   1.174  0.7940 -1.5160 -0.5827
16371TIP3   OH270527   5.332   0.235   5.981 -0.0454  1.2476 -0.3385
16371TIP3    H170528   5.379   0.318   5.970 -2.3411  2.8285  1.0172
16371TIP3    H270529   5.272   0.251   6.053 -0.2055 -1.8231  0.3327
16372TIP3   OH270530   5.334   1.744  13.971 -0.6018  0.1653  0.7138
16372TIP3    H170531   5.356   1.831  13.938 -0.5051  0.9064  2.6162
16372TIP3    H270532   5.400   1.686  13.934 -0.7951  0.8410 -0.7469
16373TIP3   OH270533   0.115   5.718  10.834 -0.8008 -0.1679  0.5008
16373TIP3    H170534   0.129   5.805  10.796  0.6801 -1.0894 -1.2098
16373TIP3    H270535   0.190   5.705  10.891 -1.7476  0.1982  1.8804
16374TIP3   OH270536   0.634   1.255   5.457 -0.0532 -0.1155 -0.6716
16374TIP3    H170537   0.647   1.344   5.489  1.0175 -1.0117  1.6131
16374TIP3    H270538   0.655   1.260   5.364  0.9480  1.8330 -0.3896
16375TIP3   OH270539   5.469   1.523   3.296  0.4412  0.0657 -0.3014
16375TIP3    H170540   5.524   1.467   3.351  0.0415  0.6804  0.7539
16375TIP3    H270541   5.498   1.612   3.316 -0.0396  0.3192 -0.7233
16376TIP3   OH270542   6.540   1.421   0.180  0.1939  0.0541 -0.6309
16376TIP3    H170543   6.497   1.399   0.098 -0.9532  1.5195 -0.4645
16376TIP3    H270544   6.633   1.418   0.160  0.0686 -2.6201 -1.1546
16377TIP3   OH270545   1.006   3.694   3.231  0.4986 -0.3602 -0.1262
16377TIP3    H170546   1.086   3.733   3.266  0.4641 -1.0660  0.7816
16377TIP3    H270547   0.937   3.725   3.289  0.1281  0.1141 -0.8080
16378TIP3   OH270548   3.102   6.605   3.603 -0.0468  0.0628  0.4775
16378TIP3    H170549   3.108   6.511   3.621  0.0978 -0.7554 -3.1347
16378TIP3    H270550   3.013   6.618   3.573  1.0795  0.0510 -3.3110
16379TIP3   OH270551   5.177   1.616  12.785 -0.5128 -0.1461 -0.4341
16379TIP3    H170552   5.133   1.531  12.791  0.7880 -0.7566  1.5295
16379TIP3    H270553   5.129   1.673  12.845 -0.8209  0.2663 -1.0552
16380TIP3   OH270554   0.294   6.326  11.399 -0.4242  0.2080 -0.1572
16380TIP3    H170555   0.323   6.417  11.404  1.6994 -0.3328 -1.5390
16380TIP3    H270556   0.257   6.308  11.486 -1.8796  2.6600 -0.1964
16381TIP3   OH270557   4.775   6.448  17.107 -0.4323  0.2077 -0.5612
16381TIP3    H170558   4.726   6.368  17.089 -1.4951  0.5714  0.5482
16381TIP3    H270559   4.729   6.516  17.058 -0.4045  0.3741 -0.3612
16382TIP3   OH270560   4.657   0.397   3.989  1.2105  0.0625 -0.1304
16382TIP3    H170561   4.615   0.407   3.904 -0.3727 -1.5615  0.4065
16382TIP3    H270562   4.736   0.346   3.971  0.0228 -1.7276 -0.4498
16383TIP3   OH270563   3.011   1.308   4.074  0.4544  0.5018 -0.5573
16383TIP3    H170564   3.085   1.332   4.129  0.6905 -1.3379 -0.0156
16383TIP3    H270565   3.040   1.231   4.025 -0.6804  0.4815 -1.2572
16384TIP3   OH270566   5.095   2.569  11.920  0.4227  0.0153 -0.0224
16384TIP3    H170567   5.167   2.590  11.860 -1.9301  1.2567 -2.6259
16384TIP3    H270568   5.121   2.608  12.003  2.6598  0.5553 -0.9071
16385TIP3   OH270569   0.631   3.191  12.338 -0.1545 -0.6151  0.3384
16385TIP3    H170570   0.686   3.167  12.412 -2.2806 -0.0999  2.1981
16385TIP3    H270571   0.548   3.147  12.354 -1.3147  1.0587 -0.6953
16386TIP3   OH270572   5.882   1.005  16.941  0.3486 -0.4041  0.6190
16386TIP3    H170573   5.884   1.029  16.849  0.5974 -1.5471  0.3088
16386TIP3    H270574   5.792   1.022  16.969  0.4314  0.5305  0.3410
16387TIP3   OH270575   0.725   1.345   3.035  0.1435 -0.4541 -0.4196
16387TIP3    H170576   0.816   1.335   3.063 -0.7488 -1.5805  2.5176
16387TIP3    H270577   0.724   1.425   2.984  2.1295  2.1214  3.1141
16388TIP3   OH270578   6.389   2.855  11.659 -0.3737  0.2993  0.0570
16388TIP3    H170579   6.473   2.871  11.616 -1.0917  1.2865 -1.0398
16388TIP3    H270580   6.324   2.888  11.597 -1.5456  0.1555  1.1748
16389TIP3   OH270581   5.145   3.478   3.779 -0.1068 -0.0149 -0.1886
16389TIP3    H170582   5.135   3.547   3.844 -0.9904 -1.1426  0.9208
16389TIP3    H270583   5.116   3.398   3.823 -1.6044 -0.6965 -2.2200
16390TIP3   OH270584   2.147   3.044   0.840 -0.3195  0.0754 -0.1929
16390TIP3    H170585   2.201   3.086   0.907 -1.4101  0.3826  0.5164
16390TIP3    H270586   2.136   2.954   0.870 -1.6994  0.4886  0.6414
16391TIP3   OH270587   6.110   1.395   1.392 -0.6730  0.4725  0.2395
16391TIP3    H170588   6.107   1.481   1.352  2.3579  0.2615 -0.6930
16391TIP3    H270589   6.085   1.335   1.322 -2.7534  0.5152  0.8801
16392TIP3   OH270590   1.340   2.605  16.200 -0.4227  0.1011  0.4207
16392TIP3    H170591   1.367   2.690  16.235 -0.0295  0.0100  0.3354
16392TIP3    H270592   1.386   2.541  16.255 -0.3990 -0.0517  0.2242
16393TIP3   OH270593   2.109   1.593   1.633  0.5121 -0.3307 -0.2821
16393TIP3    H170594   2.063   1.643   1.700  1.4580  0.9430 -0.5363
16393TIP3    H270595   2.074   1.505   1.640 -0.7993  0.2287  0.5783
16394TIP3   OH270596   4.043   6.551  11.988 -0.4496  0.0471 -0.4457
16394TIP3    H170597   4.133   6.519  11.996  0.5151  2.5746 -0.0113
16394TIP3    H270598   4.018   6.531  11.898  1.0566  0.3734 -0.9723
16395TIP3   OH270599   4.141   2.533   1.462 -0.2381 -0.0356  0.4569
16395TIP3    H170600   4.209   2.523   1.528  0.3285  3.7050  0.6703
16395TIP3    H270601   4.063   2.493   1.501  1.0016 -1.4450  1.6100
16396TIP3   OH270602   5.537   5.975   4.525 -0.2277 -0.3270  0.5709
16396TIP3    H170603   5.553   6.068   4.544  3.0331 -0.8675  1.1687
16396TIP3    H270604   5.546   5.968   4.430 -1.1896  0.0605  0.4466
16397TIP3   OH270605   2.394   0.372  13.613  0.6581 -0.4255 -0.0260
16397TIP3    H170606   2.358   0.294  13.655  0.3101  1.1155  2.8262
16397TIP3    H270607   2.430   0.340  13.530 -1.0054 -3.2544  0.1984
16398TIP3   OH270608   2.554   0.270  16.994 -0.0332  0.6434  0.1383
16398TIP3    H170609   2.596   0.350  16.963  0.1556  0.0156 -1.3101
16398TIP3    H270610   2.498   0.299  17.066  0.7940  1.9108  0.3036
16399TIP3   OH270611   4.032   2.635   1.745 -0.3826 -0.0208  0.2435
16399TIP3    H170612   3.992   2.596   1.668 -0.4059 -0.2035  0.3470
16399TIP3    H270613   3.986   2.718   1.757  0.1517  0.3722 -0.3933
16400TIP3   OH270614   6.592   6.625   0.627  0.4163  0.2013 -0.0105
16400TIP3    H170615   6.625   6.629   0.716 -1.8988  1.4545  0.8832
16400TIP3    H270616   6.591   6.531   0.606  1.2434 -0.0971  1.1528
16401TIP3   OH270617   6.672   0.985  14.564 -0.4668  0.1897  0.0330
16401TIP3    H170618   6.750   0.972  14.510  1.2015  1.3813  1.9840
16401TIP3    H270619   6.623   0.903  14.557  0.6192 -0.3418 -1.7727
16402TIP3   OH270620   5.205   4.284  17.413 -0.2044 -0.3879  0.6450
16402TIP3    H170621   5.194   4.195  17.448 -1.0494 -0.2150  0.8584
16402TIP3    H270622   5.289   4.313  17.447 -0.1047 -0.9592  0.9032
16403TIP3   OH270623   4.805   3.458  16.369 -0.0173  0.3354 -0.4253
16403TIP3    H170624   4.770   3.521  16.432  0.2590 -0.1607  0.2390
16403TIP3    H270625   4.729   3.433  16.317 -1.4775 -2.8725  2.8043
16404TIP3   OH270626   2.463   5.470   3.444  0.4417  0.0817  0.2307
16404TIP3    H170627   2.380   5.435   3.478  1.0836  0.7075  2.6203
16404TIP3    H270628   2.489   5.535   3.508  2.9629 -0.3306 -0.2860
16405TIP3   OH270629   4.601   1.622   2.259  0.1078 -0.2746  0.1931
16405TIP3    H170630   4.525   1.579   2.298  1.2136 -0.9026  1.7620
16405TIP3    H270631   4.646   1.553   2.210 -0.6100  0.2292 -1.2342
16406TIP3   OH270632   2.102   3.408  13.976 -0.4309  0.4224 -0.0082
16406TIP3    H170633   2.095   3.495  14.017 -1.9358  0.2196  0.2132
16406TIP3    H270634   2.102   3.347  14.050  1.2081  0.2351 -0.1339
16407TIP3   OH270635   2.210   2.870   0.174  0.5939 -0.1452  0.4338
16407TIP3    H170636   2.209   2.911   0.261  0.8109  1.1766 -0.1741
16407TIP3    H270637   2.192   2.941   0.113 -1.8602 -1.4399 -0.4890
16408TIP3   OH270638   6.203   6.047  11.790  0.1553  0.0046 -0.3934
16408TIP3    H170639   6.284   6.005  11.819 -0.0316 -0.1171 -0.0346
16408TIP3    H270640   6.229   6.133  11.759  0.8044 -0.9474 -2.7197
16409TIP3   OH270641   5.654   1.641  12.706  0.3512  0.6578 -0.3396
16409TIP3    H170642   5.629   1.719  12.755  1.1292 -0.4690  2.0205
16409TIP3    H270643   5.724   1.602  12.758 -0.5103 -1.9818 -1.0018
16410TIP3   OH270644   0.711   6.545  15.268  0.1438 -0.0360  0.1049
16410TIP3    H170645   0.659   6.599  15.208 -0.2895 -0.6401 -0.0769
16410TIP3    H270646   0.646   6.499  15.321  0.5302  0.6137  1.1580
16411TIP3   OH270647   1.049   6.576  14.325  0.7949  0.1299  0.2680
16411TIP3    H170648   1.004   6.607  14.404  0.1830  0.3358 -0.1505
16411TIP3    H270649   1.119   6.520  14.358 -1.7259 -2.9341  0.9463
16412TIP3   OH270650   5.436   5.029   5.078 -0.2012  0.2506 -0.4479
16412TIP3    H170651   5.356   5.066   5.041  0.6772  1.9357 -0.8050
16412TIP3    H270652   5.418   5.019   5.171 -0.6920  1.0201 -0.4526
16413TIP3   OH270653   0.045   5.469  12.337 -0.2004 -0.2609 -0.0969
16413TIP3    H170654  -0.030   5.443  12.390  0.1577  0.1085  0.6232
16413TIP3    H270655   0.120   5.430  12.383 -0.0980 -2.8853 -2.2256
16414TIP3   OH270656   4.013   1.772  11.971 -0.3870 -0.1296 -0.1976
16414TIP3    H170657   3.932   1.725  11.989 -0.6637  0.3785 -0.0977
16414TIP3    H270658   4.007   1.852  12.022 -0.1006  0.2009 -0.6667
16415TIP3   OH270659   5.458   0.581  13.746  0.2033 -0.4984 -0.1596
16415TIP3    H170660   5.384   0.625  13.787 -0.4975  0.1587 -2.0183
16415TIP3    H270661   5.533   0.639  13.763 -0.1218 -0.1097 -0.0308
16416TIP3   OH270662   1.042   4.127  11.792 -0.1810 -0.3100 -0.6342
16416TIP3    H170663   1.015   4.188  11.860 -0.8821 -1.8109  0.4806
16416TIP3    H270664   0.977   4.139  11.722 -0.2919  0.2158 -0.4489
16417TIP3   OH270665   3.879   5.891  17.483  0.1619 -0.2496  0.3976
16417TIP3    H170666   3.959   5.888  17.534  1.1962 -1.6301 -1.1939
16417TIP3    H270667   3.877   5.807  17.436 -1.8313  0.0528 -0.1692
16418TIP3   OH270668   4.198   2.473  14.023  0.0077 -0.8262 -0.7444
16418TIP3    H170669   4.169   2.508  14.107  0.7921 -1.3160 -0.2507
16418TIP3    H270670   4.289   2.446  14.038  1.1206  1.6014 -2.4819
16419TIP3   OH270671   1.397   4.225  13.255 -0.2740  0.1732  0.2231
16419TIP3    H170672   1.448   4.220  13.175  0.6699 -0.7902  0.8581
16419TIP3    H270673   1.460   4.209  13.325 -1.2580  0.0108  1.1020
16420TIP3   OH270674   4.085   3.337   3.290  0.8075  0.3659 -0.1160
16420TIP3    H170675   4.101   3.254   3.336 -0.9767  0.7118  1.2082
16420TIP3    H270676   4.044   3.394   3.355 -0.1444  1.5134 -1.6347
16421TIP3   OH270677   6.062   1.173   0.985 -0.2450 -0.3243  0.0447
16421TIP3    H170678   6.156   1.166   1.003 -0.1976  0.6554  0.2156
16421TIP3    H270679   6.057   1.210   0.897 -0.4847 -1.3865 -0.4062
16422TIP3   OH270680   1.742   5.684  14.577  0.4789  0.2532  0.2237
16422TIP3    H170681   1.837   5.676  14.568  0.7381 -0.5816  2.8424
16422TIP3    H270682   1.720   5.763  14.527  2.1827 -0.6674 -2.1908
16423TIP3   OH270683   3.518   3.217  14.664 -0.4876 -0.3170  0.2242
16423TIP3    H170684   3.480   3.189  14.580  0.9463 -0.0203 -0.5589
16423TIP3    H270685   3.575   3.290  14.641  0.6524 -0.8243  1.3121
16424TIP3   OH270686   0.103   6.538   1.355 -0.4559 -0.9686 -0.1265
16424TIP3    H170687   0.109   6.627   1.387  0.5733 -0.5654 -1.3566
16424TIP3    H270688   0.165   6.534   1.282 -1.2605 -2.3796 -0.7856
16425TIP3   OH270689   1.097   1.633   4.411 -0.0334  0.2069  0.6468
16425TIP3    H170690   1.077   1.543   4.384  0.9584 -0.3972  1.8051
16425TIP3    H270691   1.105   1.681   4.329 -1.0871 -0.6305  0.0152
16426TIP3   OH270692   4.441   6.649  11.599  0.4836 -0.3541  0.5413
16426TIP3    H170693   4.352   6.626  11.626  0.4382 -0.2089  0.5185
16426TIP3    H270694   4.478   6.568  11.565  1.3903 -1.1989  3.2768
16427TIP3   OH270695   0.001   2.008   3.542  0.9370  0.0677 -0.1756
16427TIP3    H170696  -0.006   1.945   3.614 -1.5682 -0.3742 -0.7219
16427TIP3    H270697   0.055   1.963   3.477 -0.6977 -1.5471 -0.5009
16428TIP3   OH270698   2.616   4.355   2.283  1.2561 -0.2277 -0.0172
16428TIP3    H170699   2.572   4.339   2.367  1.1543 -1.5647 -0.3052
16428TIP3    H270700   2.671   4.278   2.270 -0.9772 -1.5361 -2.5885
16429TIP3   OH270701   2.354   2.093  12.853 -0.2614  0.8718  0.3372
16429TIP3    H170702   2.330   2.035  12.781 -0.3296  1.3271 -0.0146
16429TIP3    H270703   2.333   2.043  12.932  0.8422 -0.0714  0.0645
16430TIP3   OH270704   3.633   1.997  15.927 -0.1612 -0.2284  0.1438
16430TIP3    H170705   3.679   2.067  15.974  0.9178 -1.1515  0.5169
16430TIP3    H270706   3.556   1.979  15.980  0.4677 -0.4913  0.9993
16431TIP3   OH270707   2.711   6.087   4.672 -0.3536 -0.9976 -0.2312
16431TIP3    H170708   2.795   6.093   4.625  1.0814 -1.3676  2.1012
16431TIP3    H270709   2.682   5.998   4.657  1.1178 -1.7573  1.1100
16432TIP3   OH270710   3.600   2.627   6.774  0.0897 -0.3815  0.4335
16432TIP3    H170711   3.576   2.552   6.720 -0.4295 -0.0180  0.1652
16432TIP3    H270712   3.689   2.606   6.803  0.0321 -1.0054  0.1936
16433TIP3   OH270713   3.430   1.185  15.891  0.0079 -0.0824  0.3646
16433TIP3    H170714   3.387   1.190  15.806 -0.5739  0.4226  0.6884
16433TIP3    H270715   3.360   1.164  15.953  0.0100  1.7641  1.0541
16434TIP3   OH270716   1.845   6.007   0.693 -0.5181  0.0106 -0.3692
16434TIP3    H170717   1.868   5.916   0.677 -0.3633  0.0066 -0.1247
16434TIP3    H270718   1.895   6.056   0.628 -0.1209 -0.0304 -0.0982
16435TIP3   OH270719   4.739   2.989   3.854  0.3731  0.2543 -0.7036
16435TIP3    H170720   4.797   3.028   3.789 -1.3880  1.6755 -1.4863
16435TIP3    H270721   4.665   2.957   3.804 -0.9517  1.2210  0.5649
16436TIP3   OH270722   1.307   4.637   1.690 -0.4521  0.2830  0.2723
16436TIP3    H170723   1.338   4.553   1.657 -1.2753 -0.0453  0.3122
16436TIP3    H270724   1.280   4.619   1.780 -1.5379  0.3604 -0.0267
16437TIP3   OH270725   1.437   3.294   5.044 -0.3726  0.0340 -0.2922
16437TIP3    H170726   1.522   3.336   5.051 -0.4216  0.1143 -0.1844
16437TIP3    H270727   1.430   3.269   4.951 -0.5280  0.6444 -0.4491
16438TIP3   OH270728   4.557   4.499  12.810  0.3221 -0.1188  0.4275
16438TIP3    H170729   4.533   4.584  12.773  0.4472 -1.1391 -2.2471
16438TIP3    H270730   4.652   4.503  12.820  0.8195 -0.8964 -2.7714
16439TIP3   OH270731   3.891   2.418   0.262  0.0342  0.2438 -0.2050
16439TIP3    H170732   3.878   2.503   0.305  1.9286  1.4560 -1.8344
16439TIP3    H270733   3.808   2.403   0.215 -0.3366  1.2042  0.1077
16440TIP3   OH270734   6.322   0.532  13.670  0.0115  0.0220  0.2512
16440TIP3    H170735   6.340   0.613  13.624 -2.9494  0.8006  0.3104
16440TIP3    H270736   6.254   0.554  13.734  1.6074 -1.7412  2.7942
16441TIP3   OH270737   5.634   0.223   6.503  0.5902 -0.2127  0.0273
16441TIP3    H170738   5.678   0.215   6.588  0.9874  1.6432  0.0285
16441TIP3    H270739   5.689   0.174   6.443  1.3181  0.0141  0.5014
16442TIP3   OH270740   4.498   2.741  13.631 -0.0627 -0.1753 -0.0904
16442TIP3    H170741   4.442   2.779  13.563  0.5216 -0.0559 -0.5183
16442TIP3    H270742   4.493   2.646  13.616 -0.4586 -0.1926  0.1281
16443TIP3   OH270743   6.233   1.277  11.245 -0.0394 -0.0334 -0.8589
16443TIP3    H170744   6.265   1.228  11.169  0.1600  0.4573 -1.0977
16443TIP3    H270745   6.224   1.367  11.213  0.7719  0.3330 -0.1086
16444TIP3   OH270746   3.376   2.849  15.245 -0.0891 -0.2768 -0.2328
16444TIP3    H170747   3.461   2.881  15.216 -0.5643 -1.0146 -2.6862
16444TIP3    H270748   3.314   2.915  15.214 -0.6743 -1.3920 -1.5479
16445TIP3   OH270749   3.192   1.431   4.969 -0.2201 -0.5628 -0.4686
16445TIP3    H170750   3.171   1.486   5.045 -0.6880 -2.1877  0.6269
16445TIP3    H270751   3.112   1.430   4.917 -0.2870 -0.3987 -0.3707
16446TIP3   OH270752   2.595   5.178   2.528 -0.0235 -0.1291 -0.0717
16446TIP3    H170753   2.618   5.271   2.519  1.5515 -0.6299 -1.8458
16446TIP3    H270754   2.519   5.166   2.472 -0.0971  0.0296 -0.0082
16447TIP3   OH270755   4.998   3.980   1.570  0.2647  0.9780  0.2782
16447TIP3    H170756   5.038   4.047   1.516  2.0798  0.8665  1.4100
16447TIP3    H270757   4.984   3.906   1.511  3.2700  0.4325  0.1293
16448TIP3   OH270758   2.341   3.338   5.871 -0.7040  0.4619 -0.0457
16448TIP3    H170759   2.340   3.396   5.948 -1.2627 -0.0958  0.3816
16448TIP3    H270760   2.259   3.289   5.877  1.2328 -2.9742  1.6376
16449TIP3   OH270761   4.224   2.050  11.741  0.3422 -0.0598 -0.1282
16449TIP3    H170762   4.279   2.051  11.819  1.2097 -1.2980 -0.6817
16449TIP3    H270763   4.190   2.139  11.734 -1.0621 -0.2681  2.5413
16450TIP3   OH270764   1.335   3.254  15.467  0.2655 -0.4425 -0.1230
16450TIP3    H170765   1.342   3.263  15.372 -1.3996  1.7387 -0.1196
16450TIP3    H270766   1.400   3.315  15.502  0.0555 -0.3422  0.1006
16451TIP3   OH270767   0.598   2.545   5.167  0.0377 -0.6858 -0.2509
16451TIP3    H170768   0.625   2.569   5.079 -1.1658  0.3209 -0.3780
16451TIP3    H270769   0.529   2.479   5.155 -0.1177 -0.5602 -0.0719
16452TIP3   OH270770   2.901   1.785   1.895 -0.0567  0.0496  0.1327
16452TIP3    H170771   2.810   1.758   1.889  0.1721 -0.8674  0.5884
16452TIP3    H270772   2.951   1.704   1.881  0.6880  0.5777 -0.3250
16453TIP3   OH270773   5.959   5.404   1.990 -0.1973  0.1658  1.0135
16453TIP3    H170774   5.897   5.333   1.975 -0.3508  0.4404  0.2801
16453TIP3    H270775   5.935   5.471   1.926 -0.1277  0.9363  1.7679
16454TIP3   OH270776   1.983   2.410  13.878  0.3540 -0.3253  0.6306
16454TIP3    H170777   2.069   2.445  13.903 -0.1819  1.1966  0.4688
16454TIP3    H270778   1.927   2.487  13.871 -1.2608 -1.3510  1.5596
16455TIP3   OH270779   5.405   1.117   1.902  0.3237  0.3759 -0.4226
16455TIP3    H170780   5.351   1.181   1.856  0.2217  0.1533 -0.6123
16455TIP3    H270781   5.482   1.106   1.847  0.6603  0.8336 -0.0611
16456TIP3   OH270782   2.182   2.870  12.787 -0.6016 -0.0073 -1.0988
16456TIP3    H170783   2.249   2.804  12.807 -1.3402 -0.5923 -0.4768
16456TIP3    H270784   2.229   2.953  12.783  0.7163 -0.7684 -3.9343
16457TIP3   OH270785   5.052   4.719  15.993 -0.5113  0.0189 -0.6623
16457TIP3    H170786   4.975   4.717  16.050 -0.2559  1.1508 -0.2645
16457TIP3    H270787   5.016   4.711  15.904 -1.0092 -0.3844 -0.4278
16458TIP3   OH270788   5.869   4.351   2.127 -0.1152 -0.1717  0.2666
16458TIP3    H170789   5.886   4.372   2.035 -1.8825  0.1785 -0.0151
16458TIP3    H270790   5.825   4.266   2.124 -0.1301 -0.1878  0.7942
16459TIP3   OH270791   3.347   1.875   5.651  0.2489 -0.5003 -0.4468
16459TIP3    H170792   3.346   1.967   5.625 -1.8702 -0.9985 -2.4769
16459TIP3    H270793   3.402   1.832   5.585 -0.1437 -0.9021 -0.5196
16460TIP3   OH270794   3.158   1.423  15.746 -0.2479  0.3768  0.0933
16460TIP3    H170795   3.156   1.332  15.776  0.0807  0.0679 -0.7923
16460TIP3    H270796   3.112   1.472  15.815  0.0368 -0.3755  0.8397
16461TIP3   OH270797   4.329   2.612   0.861 -0.3592  0.4617  0.0530
16461TIP3    H170798   4.396   2.637   0.797 -0.0223 -1.2110 -0.2742
16461TIP3    H270799   4.358   2.652   0.943  2.0853 -1.7154  0.3628
16462TIP3   OH270800   6.509   5.305   0.635 -0.3384 -0.1087  0.2942
16462TIP3    H170801   6.577   5.341   0.691  1.4863  0.2750 -2.0199
16462TIP3    H270802   6.525   5.210   0.634 -0.0977 -0.0673  0.1033
16463TIP3   OH270803   4.852   5.812   1.372 -0.0368 -0.5786  0.2972
16463TIP3    H170804   4.931   5.856   1.338 -1.7235  1.4842 -1.2204
16463TIP3    H270805   4.849   5.729   1.324  1.5559 -1.0306  0.9086
16464TIP3   OH270806   0.058   4.386   6.024 -0.2025  0.2378  0.1250
16464TIP3    H170807   0.116   4.409   6.096 -1.5877 -0.6727  1.6151
16464TIP3    H270808   0.052   4.291   6.027 -0.8218  0.2339 -0.7702
16465TIP3   OH270809   0.938   1.436  15.285 -0.2743  0.0255 -0.2231
16465TIP3    H170810   0.947   1.527  15.256 -2.0652 -0.5359 -2.9420
16465TIP3    H270811   0.845   1.417  15.275 -0.0895 -1.8987  1.0956
16466TIP3   OH270812   3.940   6.511  15.733 -0.3116 -0.2104  0.1789
16466TIP3    H170813   3.902   6.448  15.793  0.9167 -1.6068 -0.4256
16466TIP3    H270814   3.925   6.473  15.646 -1.1665  1.2637 -0.3452
16467TIP3   OH270815   2.289   6.254  17.464  0.3238  0.3232  0.2184
16467TIP3    H170816   2.326   6.215  17.543 -0.3832  0.8673  0.8288
16467TIP3    H270817   2.216   6.198  17.440 -0.6914  1.2260  1.0942
16468TIP3   OH270818   1.573   4.256  11.608  0.0751 -0.0370 -0.0983
16468TIP3    H170819   1.636   4.292  11.671 -0.4689 -1.0983  1.0988
16468TIP3    H270820   1.496   4.235  11.661  0.0586 -2.1327 -0.8797
16469TIP3   OH270821   5.437   3.262  14.189 -0.1787  0.2941  0.4915
16469TIP3    H170822   5.356   3.293  14.230 -0.8490  1.2392 -1.4208
16469TIP3    H270823   5.489   3.341  14.176 -0.4327  0.1962 -1.3503
16470TIP3   OH270824   4.059   1.303  17.374 -0.3978 -0.0687 -0.7633
16470TIP3    H170825   4.138   1.284  17.424 -0.1362 -0.1917 -1.2209
16470TIP3    H270826   4.034   1.220  17.335 -0.3959  0.0987 -1.1263
16471TIP3   OH270827   1.213   1.099  13.276  0.3476  0.3634  0.2250
16471TIP3    H170828   1.145   1.038  13.246  2.1406 -1.1188 -1.0630
16471TIP3    H270829   1.192   1.115  13.368 -1.7309 -0.0118 -0.1263
16472TIP3   OH270830   5.771   1.608   6.514  0.8222  0.3564  0.3609
16472TIP3    H170831   5.708   1.646   6.575 -1.2249 -1.0681 -0.7625
16472TIP3    H270832   5.791   1.679   6.453  2.3019  1.5610  2.1248
16473TIP3   OH270833   6.179   4.395  15.610  0.4101 -0.1692  0.0697
16473TIP3    H170834   6.273   4.388  15.594  0.1105 -0.8741 -1.4954
16473TIP3    H270835   6.172   4.460  15.680  2.0563 -0.2104  0.3198
16474TIP3   OH270836   3.658   1.134  11.819 -0.2511 -0.0668 -0.1568
16474TIP3    H170837   3.719   1.112  11.748  1.3697 -0.8513  1.3956
16474TIP3    H270838   3.633   1.225  11.802 -0.4490 -0.4394 -2.0777
16475TIP3   OH270839   0.111   5.600   3.283 -0.0868 -0.1299  0.0058
16475TIP3    H170840   0.047   5.544   3.237 -0.3802  1.5004 -1.6821
16475TIP3    H270841   0.176   5.621   3.217  1.1528 -0.1221  1.1866
16476TIP3   OH270842   4.293   5.946  11.378 -1.2143 -0.1359  0.0999
16476TIP3    H170843   4.355   5.875  11.362 -1.6110 -0.3343 -0.5980
16476TIP3    H270844   4.329   6.021  11.331 -0.3523  0.3863  1.5283
16477TIP3   OH270845   3.392   1.325   3.808 -0.1442 -0.1993  0.0882
16477TIP3    H170846   3.328   1.265   3.846  0.7541 -1.1878  0.0668
16477TIP3    H270847   3.433   1.276   3.737  0.8492  0.3085  0.2850
16478TIP3   OH270848   6.096   6.614   4.055 -0.2666  0.0602 -0.8063
16478TIP3    H170849   6.084   6.551   3.983 -1.2618  0.9890 -1.4860
16478TIP3    H270850   6.012   6.615   4.101  0.7417 -1.4593  1.2074
16479TIP3   OH270851   6.099   3.700  12.815 -0.1098  0.5852 -0.0021
16479TIP3    H170852   6.174   3.760  12.821  0.7136  0.1993 -3.9247
16479TIP3    H270853   6.137   3.617  12.788 -1.6877 -0.6096  1.2525
16480TIP3   OH270854   1.153   1.394   2.161  0.0584 -0.4134  0.1479
16480TIP3    H170855   1.133   1.484   2.184  0.6742 -0.4918  1.0272
16480TIP3    H270856   1.178   1.398   2.068  0.8150  0.4457  0.3675
16481TIP3   OH270857   0.572   6.162  14.327 -0.0600 -0.2241  0.3014
16481TIP3    H170858   0.656   6.208  14.324 -0.1399  0.0416  1.5753
16481TIP3    H270859   0.523   6.205  14.397 -0.9281 -0.9375  0.1557
16482TIP3   OH270860   6.137   5.218  13.837 -0.6638  0.3719  0.2641
16482TIP3    H170861   6.125   5.170  13.919  0.3476  3.2598  2.2603
16482TIP3    H270862   6.224   5.193  13.806 -0.2117  0.7677  1.1953
16483TIP3   OH270863   2.762   1.969  11.343 -0.1203  0.1479  0.0565
16483TIP3    H170864   2.826   2.038  11.361  0.9408 -0.6179 -0.6051
16483TIP3    H270865   2.765   1.914  11.421  0.1872  0.0076 -0.0500
16484TIP3   OH270866   0.735   4.157  15.589  0.5209  0.2926 -0.2789
16484TIP3    H170867   0.692   4.134  15.506 -1.4495  1.0907  0.4376
16484TIP3    H270868   0.716   4.250  15.600  2.2313  0.5975  0.2572
16485TIP3   OH270869   4.440   1.687   3.891  0.3697 -0.4019 -0.2903
16485TIP3    H170870   4.399   1.693   3.977 -2.0551 -2.4389 -1.1715
16485TIP3    H270871   4.533   1.678   3.909 -0.1874 -2.1718  2.2234
16486TIP3   OH270872   5.300   2.424  14.436 -0.1259 -0.2205 -0.2568
16486TIP3    H170873   5.238   2.423  14.509 -1.4734 -0.3985 -1.3452
16486TIP3    H270874   5.262   2.486  14.373  0.4905 -0.7555 -1.1894
16487TIP3   OH270875   0.272   4.477  13.385 -0.1972  0.2515 -0.8718
16487TIP3    H170876   0.223   4.525  13.452  0.8317  0.3594 -0.1827
16487TIP3    H270877   0.359   4.517  13.385  0.3234 -0.8390 -1.1104
16488TIP3   OH270878   0.028   1.064   4.165  0.5693 -0.4743 -0.4535
16488TIP3    H170879   0.065   1.099   4.084  1.6124  1.6148  0.8498
16488TIP3    H270880  -0.043   1.007   4.136  1.4171 -0.4080 -2.8510
16489TIP3   OH270881   6.012   2.564  14.518  0.1826  0.7683  0.5275
16489TIP3    H170882   5.954   2.580  14.444  1.1715  0.4923 -0.3355
16489TIP3    H270883   5.955   2.565  14.594 -1.3440 -1.7171 -0.4668
16490TIP3   OH270884   5.339   4.672  17.499  0.0335 -0.5032  0.0796
16490TIP3    H170885   5.419   4.704  17.541  0.1412  0.9096 -1.1234
16490TIP3    H270886   5.361   4.668  17.406 -0.1331 -3.7197  0.0851
16491TIP3   OH270887   0.803   2.381   1.147 -0.3408  0.3549  0.2520
16491TIP3    H170888   0.717   2.343   1.158 -0.1077 -0.3308 -0.2564
16491TIP3    H270889   0.843   2.331   1.076  0.4165  0.7624  0.3784
16492TIP3   OH270890   4.032   4.881  11.359 -0.1063  0.0577  0.1355
16492TIP3    H170891   3.970   4.949  11.332 -0.6050 -1.1742 -2.0576
16492TIP3    H270892   3.989   4.799  11.335  0.8597 -1.0126  1.9152
16493TIP3   OH270893   6.668   0.502  12.147 -0.0682 -0.2775 -0.4773
16493TIP3    H170894   6.741   0.469  12.199 -0.8296  0.4612  1.1231
16493TIP3    H270895   6.708   0.566  12.088  0.5355  0.4871  0.7203
16494TIP3   OH270896   2.726   1.136   2.637  0.2624  0.0233  0.2885
16494TIP3    H170897   2.752   1.149   2.728 -0.3852  0.2725  0.4419
16494TIP3    H270898   2.806   1.103   2.594  0.7366  0.4804  0.8043
16495TIP3   OH270899   0.672   1.437  14.636 -0.0632 -0.4816 -0.3476
16495TIP3    H170900   0.582   1.434  14.604  0.0756 -1.1709 -0.7040
16495TIP3    H270901   0.668   1.400  14.724 -0.5029  1.7325  0.6454
16496TIP3   OH270902   6.333   6.425   5.015  0.1698  0.2920 -0.3939
16496TIP3    H170903   6.275   6.498   5.038  2.0292  1.8786 -0.4379
16496TIP3    H270904   6.341   6.431   4.920  1.0063  0.5978 -0.3106
16497TIP3   OH270905   6.325   0.244  17.058 -0.4447 -0.0124  0.0314
16497TIP3    H170906   6.351   0.155  17.082  0.2904  0.1066 -0.2808
16497TIP3    H270907   6.278   0.234  16.975 -0.7517 -0.1527  0.2202
16498TIP3   OH270908   2.130   2.077   2.087 -0.5465  0.1920  0.2796
16498TIP3    H170909   2.038   2.078   2.113 -1.0563  3.7418 -1.0632
16498TIP3    H270910   2.129   2.099   1.994  1.6526  1.9576  0.5793
16499TIP3   OH270911   1.088   2.095   4.659 -0.4300  0.2741 -0.4263
16499TIP3    H170912   1.039   2.013   4.651 -1.0525  0.8109 -2.7236
16499TIP3    H270913   1.136   2.103   4.577  0.4889  1.6760  0.2107
16500TIP3   OH270914   3.629   2.319  15.465  0.0748 -0.2186 -0.2319
16500TIP3    H170915   3.551   2.280  15.505  0.8311 -1.3815  0.1661
16500TIP3    H270916   3.639   2.273  15.382  0.4223 -0.1704 -0.2162
16501TIP3   OH270917   6.083   4.003   6.090  0.1189  0.3613  0.4887
16501TIP3    H170918   6.066   4.040   6.177 -0.7038  1.0883  0.0299
16501TIP3    H270919   6.175   3.975   6.094 -0.1066 -0.2952  1.8262
16502TIP3   OH270920   4.153   5.771  11.664 -0.1045  0.1630  0.3665
16502TIP3    H170921   4.058   5.777  11.679 -0.0961 -0.9583  0.9982
16502TIP3    H270922   4.161   5.721  11.582 -0.0883 -3.1852  2.2323
16503TIP3   OH270923   5.350   2.351  16.856  0.3117 -0.3777  0.3113
16503TIP3    H170924   5.350   2.295  16.778  1.2433 -1.2057  0.8963
16503TIP3    H270925   5.298   2.428  16.829  0.0592 -0.9386 -0.9012
16504TIP3   OH270926   6.105   1.489  11.497 -0.4222  0.3974 -0.4490
16504TIP3    H170927   6.075   1.499  11.407 -0.2700 -0.3752 -0.5976
16504TIP3    H270928   6.030   1.516  11.550 -1.6541 -2.0149 -0.8134
16505TIP3   OH270929   5.915   2.371  16.455  0.4649 -0.3807  0.0882
16505TIP3    H170930   5.826   2.390  16.483  0.8002  0.7237  0.4596
16505TIP3    H270931   5.908   2.292  16.402 -1.1333  1.1259 -2.1437
16506TIP3   OH270932   1.776   0.532  17.465 -0.0887  0.5030  0.8375
16506TIP3    H170933   1.710   0.533  17.534 -1.3564  0.0901 -0.3263
16506TIP3    H270934   1.728   0.507  17.386  1.4855  0.0976 -0.0308
16507TIP3   OH270935   5.260   3.869  12.612 -0.1535 -0.0141 -0.6430
16507TIP3    H170936   5.342   3.909  12.638  0.4012 -1.4051 -0.1707
16507TIP3    H270937   5.261   3.873  12.516 -0.3719  1.5411 -0.6071
16508TIP3   OH270938   2.008   0.672  17.151  0.9338 -0.0315  0.1165
16508TIP3    H170939   1.923   0.716  17.144  0.8942 -0.2655 -1.1699
16508TIP3    H270940   2.068   0.741  17.179  0.6266  0.5464 -0.6026
16509TIP3   OH270941   1.773   5.653   0.026 -0.3893 -0.3534 -0.1951
16509TIP3    H170942   1.745   5.598   0.100  2.3636 -0.0825  1.1599
16509TIP3    H270943   1.708   5.723   0.023 -1.0418 -0.8304  1.4625
16510TIP3   OH270944   0.106   2.645   4.376 -0.5250  0.9244  0.3559
16510TIP3    H170945   0.035   2.584   4.396 -0.0114  0.9278  2.3705
16510TIP3    H270946   0.170   2.592   4.329 -1.9816  1.0293 -1.9296
16511TIP3   OH270947   0.801   6.344  14.473 -0.2798  0.5722  0.5272
16511TIP3    H170948   0.774   6.407  14.540  1.2123  0.2106  1.5290
16511TIP3    H270949   0.832   6.268  14.522  0.1561  0.0012 -0.5921
16512TIP3   OH270950   3.266   5.492   3.284 -0.2921 -0.0564 -0.0759
16512TIP3    H170951   3.353   5.462   3.257 -0.9978 -0.5835 -1.8982
16512TIP3    H270952   3.236   5.425   3.345 -0.4239 -1.2531 -1.4084
16513TIP3   OH270953   4.077   4.238   4.812  0.6085 -0.5189  0.2715
16513TIP3    H170954   4.111   4.239   4.902 -0.4863  0.9379  0.7243
16513TIP3    H270955   4.065   4.331   4.791  0.2534 -0.8714 -1.1546
16514TIP3   OH270956   2.454   6.536   0.567 -0.3391  0.0323 -0.1894
16514TIP3    H170957   2.486   6.447   0.552  1.6234  0.8314 -1.0877
16514TIP3    H270958   2.528   6.582   0.606 -0.3271  1.9714 -2.3258
16515TIP3   OH270959   2.954   2.596   1.231 -0.1963 -0.3408 -0.1902
16515TIP3    H170960   2.889   2.648   1.279  1.1615 -0.4773  1.9480
16515TIP3    H270961   3.031   2.653   1.226  0.4821 -1.2184 -0.0506
16516TIP3   OH270962   5.876   2.246   0.662 -0.0858  0.0018  0.4213
16516TIP3    H170963   5.794   2.290   0.683 -0.1182  0.7608 -1.1538
16516TIP3    H270964   5.943   2.314   0.670  0.1548 -0.1916  0.1063
16517TIP3   OH270965   6.558   0.983  10.757 -0.0860  0.5400  0.6047
16517TIP3    H170966   6.622   1.054  10.757 -0.0764  0.5433 -0.3275
16517TIP3    H270967   6.590   0.922  10.823 -0.4670  1.7251  1.9205
16518TIP3   OH270968   3.066   2.919  11.758 -0.1938  0.1715  0.1513
16518TIP3    H170969   3.017   2.882  11.684 -2.2753  0.8882  1.1074
16518TIP3    H270970   3.128   2.850  11.782 -2.1769 -1.6759  0.2391
16519TIP3   OH270971   1.984   5.773   0.806 -0.3068 -0.3353 -0.2627
16519TIP3    H170972   1.993   5.740   0.895  2.3391 -3.4571 -1.4857
16519TIP3    H270973   2.055   5.835   0.795  0.5066 -1.3022 -0.6526
16520TIP3   OH270974   5.970   1.430  15.238 -0.1324  0.0793  0.4134
16520TIP3    H170975   5.987   1.421  15.332  1.0007 -0.3323  0.1873
16520TIP3    H270976   6.007   1.516  15.216  2.0106 -0.8923 -0.1149
16521TIP3   OH270977   1.671   4.984  13.384  0.0290 -0.1390  0.2836
16521TIP3    H170978   1.669   5.054  13.449  1.8466  0.0788  0.1512
16521TIP3    H270979   1.710   4.910  13.429  0.3955 -0.2918 -0.2793
16522TIP3   OH270980   0.834   3.935  14.247  0.3425 -0.2069  0.2408
16522TIP3    H170981   0.889   3.990  14.303 -0.1699  0.3685  0.1865
16522TIP3    H270982   0.745   3.950  14.279 -0.0900  0.9891 -1.4047
16523TIP3   OH270983   0.888   3.754   5.348 -0.0292  0.2772 -0.8037
16523TIP3    H170984   0.942   3.831   5.362  0.5376 -0.3796  0.9415
16523TIP3    H270985   0.945   3.680   5.368 -0.1719 -0.7375 -3.6471
16524TIP3   OH270986   2.274   6.224  12.240 -0.1063 -0.1164  0.2813
16524TIP3    H170987   2.266   6.201  12.333  1.0217 -0.3536  0.3373
16524TIP3    H270988   2.369   6.234  12.226 -0.3813  2.2021 -0.3101
16525TIP3   OH270989   3.089   4.414   0.247 -0.5963  0.0533 -0.3281
16525TIP3    H170990   3.104   4.347   0.180 -0.7808 -0.1997 -0.1189
16525TIP3    H270991   3.163   4.406   0.306 -0.5822  0.0815 -0.3420
16526TIP3   OH270992   0.600   6.147  16.199 -0.3949  0.7138  0.3475
16526TIP3    H170993   0.679   6.101  16.227 -0.2635  0.1992 -0.8243
16526TIP3    H270994   0.528   6.097  16.238 -0.1905  0.5275  0.4895
16527TIP3   OH270995   3.929   1.253  15.004 -0.1878 -0.1264  0.1638
16527TIP3    H170996   3.915   1.160  15.024 -1.1369 -0.1912 -0.7230
16527TIP3    H270997   3.862   1.274  14.938 -1.0361  1.5889  1.4803
16528TIP3   OH270998   0.463   2.716  11.745  0.1828 -0.5343  0.0075
16528TIP3    H170999   0.369   2.701  11.753 -0.2917  1.1938 -1.4974
16528TIP3    H271000   0.497   2.640  11.698 -0.5250 -0.9830  0.2183
16529TIP3   OH271001   2.520   1.490  17.501  0.1135  0.5294  0.0574
16529TIP3    H171002   2.504   1.464  17.410  1.5928 -0.2757 -0.0008
16529TIP3    H271003   2.576   1.568  17.494 -0.6693  1.1267  0.2844
16530TIP3   OH271004   3.294   5.644   3.053  0.3061 -0.3220 -0.1911
16530TIP3    H171005   3.243   5.593   2.990 -0.1946  0.2723 -0.2787
16530TIP3    H271006   3.296   5.590   3.132  0.0681 -0.6194 -0.3867
16531TIP3   OH271007   5.764   0.090   3.244  0.0593  0.0053  0.1756
16531TIP3    H171008   5.713   0.042   3.179 -0.4687  0.5395  0.1786
16531TIP3    H271009   5.741   0.182   3.229  0.7176  0.2251  0.4473
16532TIP3   OH271010   2.397   4.158  13.537  0.8582 -0.2873 -0.3328
16532TIP3    H171011   2.333   4.092  13.566 -0.7967  0.6232 -1.6883
16532TIP3    H271012   2.394   4.225  13.604  0.5229 -0.3474 -0.2835
16533TIP3   OH271013   0.395   0.369   0.576  0.4671  0.2776 -0.2894
16533TIP3    H171014   0.325   0.376   0.512 -0.9157 -1.6129  0.9180
16533TIP3    H271015   0.475   0.363   0.524 -0.5075 -0.0837 -1.7892
16534TIP3   OH271016   2.178   5.261   5.329 -0.3490 -0.2142  0.2596
16534TIP3    H171017   2.095   5.291   5.293 -0.9949  1.2218  2.7319
16534TIP3    H271018   2.242   5.324   5.298 -0.8627  0.8776  1.3054
16535TIP3   OH271019   2.385   4.916   5.768 -0.1332  0.1376  0.2307
16535TIP3    H171020   2.420   4.831   5.740  1.1385  1.0406 -1.0829
16535TIP3    H271021   2.304   4.894   5.815  0.6193 -1.8439  0.7296
16536TIP3   OH271022   2.394   6.536   3.424  0.0430  0.0062 -0.1112
16536TIP3    H171023   2.426   6.624   3.444  0.8201  0.2504 -2.1890
16536TIP3    H271024   2.309   6.549   3.383  0.3512 -0.1578 -0.8215
16537TIP3   OH271025   0.260   1.863   4.849  0.0576 -0.2688  0.0736
16537TIP3    H171026   0.208   1.920   4.905  0.6018  0.2337  0.0793
16537TIP3    H271027   0.287   1.918   4.776  1.4205 -0.2049  0.5807
16538TIP3   OH271028   1.742   3.141   6.039 -0.1779  0.0050  0.2562
16538TIP3    H171029   1.827   3.185   6.043 -0.3345  0.3374 -0.0242
16538TIP3    H271030   1.727   3.110   6.128 -0.7417  1.8172  0.8402
16539TIP3   OH271031   4.145   2.825   0.320  0.5513 -0.2530  0.8456
16539TIP3    H171032   4.234   2.802   0.296 -0.6056 -2.6304 -1.6230
16539TIP3    H271033   4.137   2.797   0.411  1.4297 -3.0701  0.1444
16540TIP3   OH271034   6.680   0.214  13.247 -0.2573  0.0183 -0.2028
16540TIP3    H171035   6.606   0.209  13.187 -0.3874 -0.9782  0.0274
16540TIP3    H271036   6.669   0.139  13.306  0.8231 -0.0356 -0.0479
16541TIP3   OH271037   0.932   1.210   3.781  0.3643 -0.3066  0.7121
16541TIP3    H171038   0.983   1.166   3.714 -0.6853  0.1406 -0.4119
16541TIP3    H271039   0.843   1.175   3.770 -0.4045  1.7296  0.0592
16542TIP3   OH271040   4.365   1.898   1.831  0.3248 -0.2716 -0.0601
16542TIP3    H171041   4.286   1.864   1.874  0.9819 -1.0054  0.6170
16542TIP3    H271042   4.403   1.957   1.896  0.1812  0.3099 -0.5013
16543TIP3   OH271043   4.082   0.216   0.429 -0.2042  0.0722  0.2313
16543TIP3    H171044   3.988   0.229   0.424 -0.2300 -0.1791  0.0504
16543TIP3    H271045   4.099   0.193   0.520 -0.3106  0.1491  0.2710
16544TIP3   OH271046   4.363   2.649   5.135  0.1200  0.4163  0.5727
16544TIP3    H171047   4.412   2.573   5.168 -0.0341 -0.4805 -1.1728
16544TIP3    H271048   4.272   2.630   5.158 -0.1297 -0.7192 -1.2086
16545TIP3   OH271049   5.080   1.100   0.581  0.0886  1.1806 -0.3836
16545TIP3    H171050   5.028   1.022   0.560 -0.6368  1.3935  0.5538
16545TIP3    H271051   5.168   1.067   0.597 -0.0449  0.6504 -0.6983
16546TIP3   OH271052   2.065   6.031  14.347  0.1120 -0.2925 -0.3472
16546TIP3    H171053   1.984   6.082  14.333  0.3585 -0.0626 -1.0011
16546TIP3    H271054   2.067   5.969  14.274 -0.8444 -2.1685  1.1299
16547TIP3   OH271055   2.153   5.654   4.188 -0.4848 -0.2003  0.3793
16547TIP3    H171056   2.081   5.717   4.189 -0.3978 -0.1140  1.1561
16547TIP3    H271057   2.201   5.670   4.269  0.1230 -0.5936  0.1021
16548TIP3   OH271058   3.626   5.405   5.085  0.4419  0.0127  0.7162
16548TIP3    H171059   3.600   5.394   5.177  0.8908 -0.9947  0.7403
16548TIP3    H271060   3.604   5.321   5.044 -1.1923  0.9725 -0.4722
16549TIP3   OH271061   2.929   5.747   0.607  0.1803 -0.6180 -0.2753
16549TIP3    H171062   2.984   5.769   0.531  2.9869  0.4992  1.8979
16549TIP3    H271063   2.964   5.664   0.639  1.2131  0.4560  1.5559
16550TIP3   OH271064   0.328   1.754  11.839  0.2111  0.2650 -0.2047
16550TIP3    H171065   0.341   1.833  11.786 -0.4126  0.6583  0.2094
16550TIP3    H271066   0.272   1.698  11.785 -2.4313  1.6445  0.8964
16551TIP3   OH271067   0.504   3.213   5.791  0.4437  0.2463  0.3643
16551TIP3    H171068   0.568   3.283   5.798  0.9467 -0.0723 -0.7805
16551TIP3    H271069   0.456   3.215   5.874  3.2696 -0.8070  2.1840
16552TIP3   OH271070   4.639   3.838  10.845 -0.0896 -0.1272 -0.0267
16552TIP3    H171071   4.705   3.789  10.893  0.2261  0.1331 -0.1888
16552TIP3    H271072   4.665   3.830  10.753 -2.1252 -2.8021 -0.4682
16553TIP3   OH271073   2.820   6.411  16.580 -0.3118  0.0090 -0.8721
16553TIP3    H171074   2.740   6.373  16.616  1.6186 -2.0791  1.6001
16553TIP3    H271075   2.890   6.382  16.639  2.5517  0.3147 -3.7775
16554TIP3   OH271076   0.476   2.081  13.192 -0.0562  0.2973  0.1476
16554TIP3    H171077   0.406   2.018  13.211  0.5242 -0.3026  0.2933
16554TIP3    H271078   0.521   2.093  13.276  0.4045  0.2179 -0.0865
16555TIP3   OH271079   5.646   3.918   4.219  1.0265  0.5529 -0.4132
16555TIP3    H171080   5.704   3.962   4.282  0.3006  0.6564  0.1913
16555TIP3    H271081   5.620   3.837   4.263 -0.8924  1.4429  0.1847
16556TIP3   OH271082   0.318   1.727   5.340  0.7609 -0.1800 -0.3537
16556TIP3    H171083   0.264   1.772   5.276 -0.5831 -2.9972 -1.3886
16556TIP3    H271084   0.266   1.652   5.367  2.0137 -0.0778  2.7883
16557TIP3   OH271085   4.503   2.572   4.863 -0.3492  0.4875  0.3985
16557TIP3    H171086   4.491   2.477   4.858 -1.5437  0.6580 -0.3707
16557TIP3    H271087   4.449   2.607   4.791  0.0897  1.7460  0.6530
16558TIP3   OH271088   3.369   2.238  15.517  0.1592  0.6463  0.7915
16558TIP3    H171089   3.372   2.158  15.463 -2.5779  0.4962  0.6835
16558TIP3    H271090   3.332   2.209  15.600  0.5291  1.5646  1.2862
16559TIP3   OH271091   5.737   2.789  12.681 -0.0919 -0.4384  0.2186
16559TIP3    H171092   5.742   2.869  12.733 -0.8358 -0.8793  0.9906
16559TIP3    H271093   5.714   2.819  12.593 -0.8962  0.1560  0.6244
16560TIP3   OH271094   5.264   2.691  15.097  0.3710 -0.3829 -0.1415
16560TIP3    H171095   5.246   2.695  15.003 -1.2019  0.5517  0.1740
16560TIP3    H271096   5.352   2.728  15.105  0.2059  0.2993 -1.1775
16561TIP3   OH271097   1.082   2.458  12.437  0.1274 -0.0277 -0.3343
16561TIP3    H171098   1.043   2.424  12.518 -0.4255  0.5681 -0.3471
16561TIP3    H271099   1.115   2.380  12.392  1.7684 -0.2570  1.1305
16562TIP3   OH271100   4.597   0.875  13.113  0.3391 -0.2224  0.0320
16562TIP3    H171101   4.541   0.799  13.097 -1.4676  1.1213 -0.2777
16562TIP3    H271102   4.582   0.898  13.204  1.1592 -0.4357  0.2281
16563TIP3   OH271103   0.698   4.016   0.132  0.4924 -0.2198 -0.5068
16563TIP3    H171104   0.764   3.974   0.078  0.7921 -0.8301  0.3018
16563TIP3    H271105   0.680   3.952   0.201 -1.3530 -0.3089 -1.0157
16564TIP3   OH271106   5.938   4.416   6.605  0.3481  0.3152  0.0836
16564TIP3    H171107   5.857   4.442   6.650 -0.1780  0.0209 -0.6725
16564TIP3    H271108   5.910   4.393   6.516  1.1321 -0.6146  0.0575
16565TIP3   OH271109   1.091   3.360   3.365 -0.0656 -0.0416 -0.5967
16565TIP3    H171110   1.046   3.441   3.340 -0.1283  0.0817 -0.0792
16565TIP3    H271111   1.025   3.292   3.351 -0.7713  0.2503  1.1367
16566TIP3   OH271112   6.076   4.723  16.847  0.4060 -0.2797 -0.2086
16566TIP3    H171113   6.088   4.642  16.797  0.9513 -0.3093 -0.0359
16566TIP3    H271114   5.996   4.762  16.812  0.0408 -0.9894 -0.1614
16567TIP3   OH271115   5.012   4.281  12.832 -0.2506 -0.3002 -0.3662
16567TIP3    H171116   5.060   4.260  12.752 -0.4568 -1.1598 -0.2744
16567TIP3    H271117   5.075   4.264  12.903 -0.0097  0.6286 -0.3420
16568TIP3   OH271118   3.911   3.012  13.905 -0.5963 -0.1796 -0.4252
16568TIP3    H171119   3.904   2.938  13.965 -1.9235 -0.5382 -0.9878
16568TIP3    H271120   3.873   2.981  13.823  0.2801  0.6217 -1.1652
16569TIP3   OH271121   1.237   0.039   0.474  0.2992 -0.3500 -0.1994
16569TIP3    H171122   1.300  -0.019   0.517  0.3832  0.7108  1.1557
16569TIP3    H271123   1.180   0.069   0.544 -0.2943  0.5165 -1.0330
16570TIP3   OH271124   5.396   3.629   5.285 -0.6039  0.6846  0.0539
16570TIP3    H171125   5.431   3.650   5.198  0.0635 -1.3674 -0.2126
16570TIP3    H271126   5.470   3.643   5.344 -0.8185  1.2433  0.2026
16571TIP3   OH271127   1.150   1.672  11.626  0.3927  0.7420 -0.2651
16571TIP3    H171128   1.117   1.730  11.558  0.0615  1.3463  0.3896
16571TIP3    H271129   1.167   1.589  11.582 -2.0356  0.3790 -0.6455
16572TIP3   OH271130   3.561   2.608   1.567 -0.1514  0.1477  0.0599
16572TIP3    H171131   3.583   2.661   1.644  1.0197 -1.2620  0.7376
16572TIP3    H271132   3.644   2.569   1.540 -0.8519 -0.7256 -0.8976
16573TIP3   OH271133   2.712   0.307  17.279 -0.3939  0.1614 -0.0512
16573TIP3    H171134   2.637   0.367  17.272 -0.6794 -0.1516  0.2692
16573TIP3    H271135   2.684   0.229  17.230  0.3722  0.6624 -1.3442
16574TIP3   OH271136   2.553   5.415   0.389  0.0266  0.1099  0.3277
16574TIP3    H171137   2.520   5.437   0.476 -0.5728  1.1043 -0.1190
16574TIP3    H271138   2.566   5.320   0.391 -0.3744  0.0603  1.3645
16575TIP3   OH271139   1.960   0.665   3.707 -0.3117  0.4462 -0.2053
16575TIP3    H171140   1.985   0.734   3.769  0.1107 -0.6104  0.8385
16575TIP3    H271141   1.937   0.712   3.627 -0.6103  1.8408  0.6577
16576TIP3   OH271142   5.419   0.115  12.717 -0.0555  0.2847 -0.6342
16576TIP3    H171143   5.501   0.165  12.722 -0.3200  0.6152  2.2644
16576TIP3    H271144   5.431   0.043  12.779 -1.2095 -0.9075 -1.7321
16577TIP3   OH271145   5.909   2.616   1.938 -0.0601 -0.1662  0.2619
16577TIP3    H171146   5.823   2.600   1.977 -0.4021 -0.7591 -0.6908
16577TIP3    H271147   5.972   2.590   2.006 -0.6341 -1.0884  0.4538
16578TIP3   OH271148   4.827   2.265   5.688 -0.1536 -0.4704 -0.6695
16578TIP3    H171149   4.753   2.275   5.748  1.3992 -2.0471  1.7054
16578TIP3    H271150   4.836   2.170   5.676  2.0150 -0.4175 -0.0350
16579TIP3   OH271151   0.077   1.140  14.970  0.1045  0.4398  0.5354
16579TIP3    H171152   0.150   1.091  14.931  0.7114  1.0818  0.8420
16579TIP3    H271153  -0.001   1.096  14.936  0.6247 -0.6514  0.6931
16580TIP3   OH271154   4.470   3.567   6.249  0.2879 -0.1002 -0.8848
16580TIP3    H171155   4.506   3.604   6.330  0.8602 -0.4334 -0.9804
16580TIP3    H271156   4.447   3.477   6.272 -0.8417  0.2071 -0.7296
16581TIP3   OH271157   1.850   3.942  12.913 -0.0729  0.2311  0.2909
16581TIP3    H171158   1.915   3.879  12.881 -2.6011 -2.0380 -0.7069
16581TIP3    H271159   1.903   4.012  12.952  2.9357 -1.7095  0.0496
16582TIP3   OH271160   5.317   5.389  16.232 -0.2442 -0.4317  0.3109
16582TIP3    H171161   5.407   5.412  16.252 -0.3244 -0.6050  0.9102
16582TIP3    H271162   5.265   5.441  16.293 -0.5273 -0.6235  0.2361
16583TIP3   OH271163   0.126   3.311  15.329 -0.6242 -0.4072  0.6911
16583TIP3    H171164   0.103   3.322  15.422  0.7520  1.6614  0.8494
16583TIP3    H271165   0.044   3.323  15.283 -1.0924 -0.1155  1.5720
16584TIP3   OH271166   0.900   2.492   6.173 -0.0139  0.4994 -0.0631
16584TIP3    H171167   0.993   2.479   6.158 -0.2207  1.8511 -3.3075
16584TIP3    H271168   0.870   2.409   6.211  2.1573 -0.7727 -0.9643
16585TIP3   OH271169   2.188   3.403   3.128 -0.1233  0.1118 -0.1420
16585TIP3    H171170   2.194   3.476   3.190  1.0463 -0.5762  0.6025
16585TIP3    H271171   2.176   3.445   3.043  0.1557  1.1655  0.3220
16586TIP3   OH271172   1.120   5.781  11.523  0.1464 -0.1625 -0.1887
16586TIP3    H171173   1.103   5.688  11.536  2.3740 -0.4863  1.0024
16586TIP3    H271174   1.134   5.791  11.429  0.4047 -1.1506 -0.2641
16587TIP3   OH271175   3.301   6.426  14.826 -0.1571 -0.2118 -0.5238
16587TIP3    H171176   3.263   6.513  14.826 -0.0295 -0.1548 -0.6568
16587TIP3    H271177   3.229   6.368  14.799  0.0357 -0.0194 -1.4760
16588TIP3   OH271178   0.115   3.621   4.382  0.5380 -0.4624 -0.0755
16588TIP3    H171179   0.107   3.654   4.292 -1.4088  0.2576  0.3065
16588TIP3    H271180   0.054   3.547   4.385  0.9332 -0.7740  0.5460
16589TIP3   OH271181   2.019   3.810  12.744  0.4730  0.0186 -0.2208
16589TIP3    H171182   2.048   3.719  12.734 -1.0851 -0.5492  0.1894
16589TIP3    H271183   2.028   3.847  12.657 -1.5819 -1.3899 -1.1156
16590TIP3   OH271184   5.465   4.025  12.972 -0.1011 -0.0933  0.2967
16590TIP3    H171185   5.383   4.055  13.013 -0.6747 -0.2007 -0.7306
16590TIP3    H271186   5.533   4.050  13.034 -0.7842  1.2340  0.5580
16591TIP3   OH271187   6.110   1.661   1.323  0.0520  0.0394 -0.3079
16591TIP3    H171188   6.170   1.734   1.312  1.2018 -0.3312  2.5399
16591TIP3    H271189   6.023   1.698   1.306  0.7616  1.5245 -0.8896
16592TIP3   OH271190   2.897   1.423   1.436  0.0391  0.0649 -0.3024
16592TIP3    H171191   2.807   1.434   1.403 -0.1559 -0.6996 -0.0358
16592TIP3    H271192   2.886   1.415   1.531  0.3317 -0.5958 -0.3197
16593TIP3   OH271193   0.261   3.833   2.114 -0.1247  0.1409 -0.7712
16593TIP3    H171194   0.351   3.865   2.121 -0.1237 -0.0506  0.1564
16593TIP3    H271195   0.207   3.902   2.152 -0.0783 -1.1225  1.7453
16594TIP3   OH271196   4.065   5.343  12.514 -0.0811 -0.5710  0.1330
16594TIP3    H171197   3.973   5.359  12.496 -0.3160  1.5391  2.6706
16594TIP3    H271198   4.111   5.372  12.435 -1.4792 -0.7451 -0.7790
16595TIP3   OH271199   3.358   4.583   0.609 -0.5888  0.0799  0.3322
16595TIP3    H171200   3.356   4.529   0.688 -0.6014 -2.4726 -1.3198
16595TIP3    H271201   3.284   4.643   0.620 -1.1907 -0.8820  1.8252
16596TIP3   OH271202   4.184   3.764   3.831  0.7856 -0.3147  0.3486
16596TIP3    H171203   4.208   3.850   3.865 -1.8397  0.6393 -0.0111
16596TIP3    H271204   4.151   3.717   3.907 -1.9846  0.6552 -0.1564
16597TIP3   OH271205   2.693   3.548  14.407 -0.5038  0.7072  0.1617
16597TIP3    H171206   2.717   3.616  14.470  0.6559  0.1711  0.3048
16597TIP3    H271207   2.641   3.485  14.457 -2.8153  2.1311 -0.2643
16598TIP3   OH271208   2.222   3.191  11.600 -0.3900  0.2965  0.0207
16598TIP3    H171209   2.312   3.221  11.611 -0.2170 -0.5312  1.0129
16598TIP3    H271210   2.206   3.196  11.506  0.5537  0.8505 -0.1135
16599TIP3   OH271211   6.201   5.515   1.844  0.7555  0.0172  0.4177
16599TIP3    H171212   6.114   5.552   1.830  0.0272 -0.7060  2.6335
16599TIP3    H271213   6.253   5.587   1.879  0.6246  0.0818  0.4796
16600TIP3   OH271214   1.986   6.275  17.439  0.2905  0.6383 -0.3983
16600TIP3    H171215   2.002   6.342  17.506  2.0590  0.9479 -1.0637
16600TIP3    H271216   2.055   6.290  17.374 -0.3059 -0.7762 -1.4031
16601TIP3   OH271217   6.031   3.949  14.539  0.1362 -0.5525 -0.2536
16601TIP3    H171218   5.948   3.984  14.506 -0.4945 -1.7747 -0.0571
16601TIP3    H271219   6.038   3.983  14.628 -1.1389 -1.9263  0.4199
16602TIP3   OH271220   2.517   2.800  11.812  0.1390  0.0606 -0.3827
16602TIP3    H171221   2.506   2.757  11.896  1.4556 -0.2748 -0.3580
16602TIP3    H271222   2.549   2.731  11.754 -4.1408 -0.7107 -2.2215
16603TIP3   OH271223   3.939   6.346  15.962  0.0779  0.6162 -0.2644
16603TIP3    H171224   4.025   6.308  15.942  0.7656  1.6097  0.7148
16603TIP3    H271225   3.923   6.322  16.053 -0.8972  0.0750 -0.5624
16604TIP3   OH271226   5.855   4.044  17.114 -0.1135  0.1777 -0.4228
16604TIP3    H171227   5.882   4.132  17.086 -0.5126  0.2793 -0.4898
16604TIP3    H271228   5.859   3.992  17.033 -0.8929  0.3822 -0.6026
16605TIP3   OH271229   0.873   3.530   3.845 -0.2684 -0.0106  0.2304
16605TIP3    H171230   0.792   3.480   3.858 -0.0272 -0.2768  0.7320
16605TIP3    H271231   0.847   3.603   3.789 -0.5254 -0.9487 -0.8987
16606TIP3   OH271232   1.778   3.013  10.470  0.2332  0.0257  0.9459
16606TIP3    H171233   1.716   2.943  10.449  1.4080 -0.3276 -1.7606
16606TIP3    H271234   1.849   2.969  10.516  1.3754 -0.8818 -1.4743
16607TIP3   OH271235   6.581   0.385  13.987 -0.1868 -0.2962 -0.0179
16607TIP3    H171236   6.618   0.415  13.904 -0.7755  0.0393 -0.1694
16607TIP3    H271237   6.547   0.298  13.968 -0.4388 -0.1669 -0.1718
16608TIP3   OH271238   2.595   5.019  16.535 -0.0865 -0.5984  0.1282
16608TIP3    H171239   2.607   4.995  16.627 -1.9040 -1.8752  0.0776
16608TIP3    H271240   2.566   5.110  16.538 -0.7693 -0.8260  0.8810
16609TIP3   OH271241   4.206   2.672   6.557 -0.2726 -0.4448  0.6256
16609TIP3    H171242   4.295   2.678   6.592  0.5254 -0.2176 -1.3002
16609TIP3    H271243   4.207   2.591   6.506 -0.1363  1.0795 -1.9618
16610TIP3   OH271244   1.368   0.755  13.222 -0.0664  0.4381 -0.9554
16610TIP3    H171245   1.310   0.696  13.175  0.1455  0.9306 -1.8566
16610TIP3    H271246   1.344   0.744  13.314 -0.4379 -0.5922 -1.1632
16611TIP3   OH271247   5.110   4.124  12.471 -0.7138 -0.0810  0.5755
16611TIP3    H171248   5.030   4.071  12.467  0.2423 -1.5082 -0.2966
16611TIP3    H271249   5.097   4.180  12.548 -2.5570 -0.2397  0.4313
16612TIP3   OH271250   0.648   6.304   3.329 -0.3449 -0.2686 -0.3678
16612TIP3    H171251   0.623   6.366   3.261 -0.5581 -0.9195 -0.8948
16612TIP3    H271252   0.713   6.350   3.382  1.2987 -0.4018 -2.1466
16613TIP3   OH271253   5.633   1.334  14.553  0.3164  0.6651 -0.1961
16613TIP3    H171254   5.660   1.285  14.630  0.1149  2.1984  0.9013
16613TIP3    H271255   5.574   1.275  14.506  2.4101 -1.2556 -0.5728
16614TIP3   OH271256   0.077   4.877  13.362 -0.5940 -0.1244 -0.3753
16614TIP3    H171257   0.109   4.967  13.374 -2.9979  0.6132  1.3507
16614TIP3    H271258   0.024   4.860  13.440  0.4219 -3.4038 -0.2428
16615TIP3   OH271259   5.421   6.195  14.291 -0.7645 -0.3138  0.3523
16615TIP3    H171260   5.359   6.157  14.229 -1.3655  0.8990  0.1580
16615TIP3    H271261   5.430   6.286  14.262  1.5046 -0.5745  0.1014
16616TIP3   OH271262   4.881   1.742  15.245 -0.2596 -0.3927 -0.2446
16616TIP3    H171263   4.924   1.793  15.314  1.8316 -2.2670 -0.0175
16616TIP3    H271264   4.828   1.805  15.197  0.4231  1.5120  1.3729
16617TIP3   OH271265   0.497   3.335   2.462  0.7848 -0.1474 -0.2183
16617TIP3    H171266   0.556   3.296   2.527  0.9378 -0.8756 -0.7756
16617TIP3    H271267   0.425   3.372   2.513  1.8097  0.9330  0.4904
16618TIP3   OH271268   1.445   4.719  14.349 -0.0234 -0.2430  0.3243
16618TIP3    H171269   1.402   4.666  14.282 -0.9940  1.5693 -0.5648
16618TIP3    H271270   1.373   4.756  14.400  0.5125  1.5679 -0.1714
16619TIP3   OH271271   3.294   3.405   1.821 -0.8868  0.0803 -0.1781
16619TIP3    H171272   3.318   3.313   1.828  2.6229  0.9461  0.9809
16619TIP3    H271273   3.285   3.435   1.912 -1.4299  1.0348 -0.5260
16620TIP3   OH271274   0.199   1.831  10.819 -0.0340 -0.4803 -0.1393
16620TIP3    H171275   0.134   1.867  10.758 -0.0466  0.7028  0.5396
16620TIP3    H271276   0.260   1.784  10.764 -1.2714 -1.3209 -0.8350
16621TIP3   OH271277   2.430   1.358  12.488  0.3930 -0.1475  0.5847
16621TIP3    H171278   2.452   1.354  12.395 -0.1267  0.3553  0.4364
16621TIP3    H271279   2.378   1.280  12.503 -0.1975  0.1764  0.2653
16622TIP3   OH271280   4.204   2.081  13.308 -0.2477 -0.3099  0.2333
16622TIP3    H171281   4.193   2.101  13.215 -0.4051  0.8344  0.4829
16622TIP3    H271282   4.281   2.025  13.311  0.0946  0.0933 -0.5440
16623TIP3   OH271283   0.764   3.794   4.578 -0.7455  0.3688 -0.2094
16623TIP3    H171284   0.685   3.810   4.629 -0.7697 -0.5236  0.0527
16623TIP3    H271285   0.822   3.867   4.600 -1.2572  0.7052  0.0594
16624TIP3   OH271286   2.826   0.650   4.013  0.0273  0.6109 -0.0334
16624TIP3    H171287   2.854   0.588   4.080  1.2360 -0.1073 -1.1574
16624TIP3    H271288   2.905   0.698   3.990 -0.5019  1.2630 -0.5396
16625TIP3   OH271289   0.172   2.957   4.242 -0.2401 -0.2676  0.0443
16625TIP3    H171290   0.136   3.045   4.236  2.6368  1.1653  1.5197
16625TIP3    H271291   0.164   2.934   4.335 -0.5394 -1.3688 -0.2445
16626TIP3   OH271292   1.573   1.771  12.786 -0.3473  0.5065  0.3187
16626TIP3    H171293   1.500   1.746  12.730  0.6137 -0.0864 -0.7286
16626TIP3    H271294   1.555   1.862  12.810 -1.2779  0.4535 -0.1339
16627TIP3   OH271295   0.080   4.085  13.666 -0.0029  0.5775 -0.3285
16627TIP3    H171296   0.078   4.181  13.659 -1.6581  0.8139  2.1376
16627TIP3    H271297   0.008   4.064  13.725 -0.1819 -2.3021 -1.4269
16628TIP3   OH271298   2.932   5.852  14.355 -0.3120 -0.2779  0.4580
16628TIP3    H171299   3.024   5.827  14.359  0.1289  1.2550  0.6621
16628TIP3    H271300   2.887   5.774  14.323  1.2883 -0.4911 -1.4338
16629TIP3   OH271301   5.279   5.588  14.410  0.0985 -0.1573  0.1792
16629TIP3    H171302   5.351   5.575  14.472  0.3126 -3.8848 -0.6383
16629TIP3    H271303   5.321   5.611  14.328  0.5202 -2.6785 -0.3882
16630TIP3   OH271304   3.560   0.932   3.105 -0.5472 -0.4897  0.0589
16630TIP3    H171305   3.636   0.972   3.065 -1.0689 -0.8412 -1.3535
16630TIP3    H271306   3.587   0.842   3.125 -0.3284 -0.3551  0.3687
16631TIP3   OH271307   1.812   0.728  15.863  0.1492 -0.1777  0.1880
16631TIP3    H171308   1.884   0.737  15.800  0.9949 -2.5458  0.7017
16631TIP3    H271309   1.733   0.729  15.809  0.5019  2.4701 -0.3885
16632TIP3   OH271310   1.389   4.386  16.920 -0.0880 -0.1900 -0.0325
16632TIP3    H171311   1.461   4.357  16.976  0.1129 -0.7700 -0.5859
16632TIP3    H271312   1.319   4.409  16.982 -0.5488 -2.5837  0.4642
16633TIP3   OH271313   2.918   2.223   1.577 -0.0088 -0.5071 -0.1514
16633TIP3    H171314   2.938   2.138   1.615 -1.8631 -0.1679  1.8166
16633TIP3    H271315   2.845   2.256   1.630  0.5356  2.2379 -0.9299
16634TIP3   OH271316   4.115   5.951  15.899  0.2428  0.1904 -0.4347
16634TIP3    H171317   4.067   5.963  15.817 -1.1225 -0.8415  0.1741
16634TIP3    H271318   4.203   5.925  15.872 -0.4850 -1.2320 -1.5990
16635TIP3   OH271319   0.908   4.134  12.880 -0.1207 -0.4090  0.3539
16635TIP3    H171320   0.837   4.195  12.901 -2.3553 -2.0444 -1.8025
16635TIP3    H271321   0.948   4.171  12.801 -0.7671 -1.0885 -0.3175
16636TIP3   OH271322   3.994   4.732  13.152  0.2147 -0.1883 -0.1132
16636TIP3    H171323   4.046   4.654  13.172 -1.7495 -1.3359  0.9073
16636TIP3    H271324   3.923   4.700  13.096 -0.9450  0.7065  0.7745
16637TIP3   OH271325   6.650   5.674  13.887 -0.0175  0.1792  0.1525
16637TIP3    H171326   6.638   5.584  13.856 -0.0220  0.6091 -1.1774
16637TIP3    H271327   6.571   5.720  13.856 -1.0810  0.2078  2.6712
16638TIP3   OH271328   3.127   3.042   3.131  0.5272 -0.4726  0.8736
16638TIP3    H171329   3.198   3.062   3.192  0.1686  1.3456  0.7388
16638TIP3    H271330   3.052   3.023   3.186  0.0036  1.8974  1.0788
16639TIP3   OH271331   4.159   4.833   1.750 -0.0850  0.4671  0.0220
16639TIP3    H171332   4.100   4.797   1.684  2.0350 -0.1515 -1.6431
16639TIP3    H271333   4.164   4.766   1.818  1.8067 -1.4273 -1.8163
16640TIP3   OH271334   1.339   1.626  16.726 -0.5732  0.0323 -0.3968
16640TIP3    H171335   1.405   1.579  16.675 -1.2989 -0.4503 -0.9152
16640TIP3    H271336   1.386   1.661  16.801  0.0336 -1.3294 -0.1251
16641TIP3   OH271337   2.726   5.481   5.823  0.0346  0.1705 -0.3823
16641TIP3    H171338   2.800   5.442   5.868  0.9593  2.5949  0.3693
16641TIP3    H271339   2.667   5.509   5.894 -1.0719 -0.7125 -0.9284
16642TIP3   OH271340   1.768   0.132  10.440  0.2236 -0.1651 -0.2331
16642TIP3    H171341   1.830   0.200  10.414  0.4937 -0.8498 -1.4699
16642TIP3    H271342   1.725   0.106  10.358 -0.4688 -0.9045  0.3446
16643TIP3   OH271343   2.868   1.717  12.701  0.5289 -0.7141 -0.3996
16643TIP3    H171344   2.923   1.638  12.700  0.3516 -0.8367 -1.1218
16643TIP3    H271345   2.917   1.778  12.756  0.8357 -1.2098 -0.1049
16644TIP3   OH271346   4.703   2.511   0.811 -0.3718 -0.2324  0.4860
16644TIP3    H171347   4.778   2.543   0.761 -0.7801 -0.4058 -0.2428
16644TIP3    H271348   4.638   2.581   0.805 -0.6902 -0.5512  0.1789
16645TIP3   OH271349   0.773   2.995   0.901 -0.3558 -0.1688  0.0181
16645TIP3    H171350   0.831   3.068   0.921  0.6319 -0.7667 -0.5758
16645TIP3    H271351   0.688   3.035   0.886 -0.0486  0.7532  0.6492
16646TIP3   OH271352   0.561   0.289   2.959  0.0136 -0.9453 -0.0750
16646TIP3    H171353   0.638   0.345   2.970 -0.7780 -0.0581  1.1840
16646TIP3    H271354   0.493   0.348   2.925 -1.1232 -0.8268  2.1940
16647TIP3   OH271355   3.387   1.514   0.649 -0.7032  0.0974 -0.0963
16647TIP3    H171356   3.463   1.465   0.619  0.3182  0.0335  2.3436
16647TIP3    H271357   3.347   1.549   0.569  3.0369  1.8761 -1.4246
16648TIP3   OH271358   0.303   3.295  13.517 -0.0257 -0.4007 -0.1908
16648TIP3    H171359   0.302   3.310  13.422  0.3355 -0.6599 -0.2380
16648TIP3    H271360   0.385   3.249  13.533 -0.7978 -1.7787  0.0222
16649TIP3   OH271361   5.530   3.775  10.749  0.0283 -0.2418  0.2313
16649TIP3    H171362   5.435   3.773  10.737 -0.0087 -1.3652  0.6316
16649TIP3    H271363   5.547   3.711  10.818  0.9897  0.6071  0.8040
16650TIP3   OH271364   3.190   6.465  11.495  0.3320  0.0616  0.1387
16650TIP3    H171365   3.139   6.384  11.498  1.6828 -0.7950  0.2969
16650TIP3    H271366   3.221   6.478  11.584 -0.2498  1.0184  0.2171
16651TIP3   OH271367   2.681   3.957   1.601 -0.0919 -0.1507  0.3893
16651TIP3    H171368   2.643   3.869   1.604  0.3673 -0.3836 -0.2935
16651TIP3    H271369   2.776   3.943   1.601 -0.0077  0.3748  0.9442
16652TIP3   OH271370   1.458   6.674  11.720 -0.5208  0.3922  0.3529
16652TIP3    H171371   1.449   6.745  11.656 -1.5743  0.5198  0.6182
16652TIP3    H271372   1.427   6.713  11.802  1.0561  0.3141  1.0189
16653TIP3   OH271373   5.562   0.204  15.027 -0.1831 -0.1704  0.1453
16653TIP3    H171374   5.479   0.237  14.993 -0.8836 -0.2955  1.6738
16653TIP3    H271375   5.603   0.280  15.068 -0.5412 -0.5604  1.2610
16654TIP3   OH271376   1.316   1.608  15.018 -0.0638  0.1904  0.1626
16654TIP3    H171377   1.303   1.605  15.112  0.2432  1.7004  0.2771
16654TIP3    H271378   1.230   1.628  14.981  0.0493  0.8210  0.2266
16655TIP3   OH271379   2.063   3.755  12.004 -0.2134  0.6407  0.0102
16655TIP3    H171380   2.133   3.747  11.938  1.3854 -0.3586  1.7268
16655TIP3    H271381   1.991   3.705  11.967  0.0429  1.3940 -1.6593
16656TIP3   OH271382   2.368   1.789  16.806 -0.5279 -0.3435  0.2439
16656TIP3    H171383   2.283   1.755  16.779 -0.3713 -0.6864  0.1633
16656TIP3    H271384   2.366   1.788  16.901 -0.5101 -0.6241  0.2433
16657TIP3   OH271385   5.966   6.046  15.223 -0.5479  0.3771 -0.4859
16657TIP3    H171386   5.878   6.022  15.194 -0.9450 -1.0973  1.7055
16657TIP3    H271387   5.952   6.092  15.305  0.7245 -0.5420  0.2836
16658TIP3   OH271388   3.478   4.444  16.022 -0.5450 -0.2127 -0.3777
16658TIP3    H171389   3.559   4.405  15.990 -0.8744 -2.3810  1.2241
16658TIP3    H271390   3.410   4.405  15.967 -0.7542 -0.8562  0.3222
16659TIP3   OH271391   4.649   5.198   2.843 -0.1749  0.4850 -0.3483
16659TIP3    H171392   4.589   5.251   2.791  0.1024  2.2006  0.9806
16659TIP3    H271393   4.593   5.151   2.904 -0.6480 -2.6293 -2.9083
16660TIP3   OH271394   1.901   5.842   2.516  0.0840  0.1077 -0.3123
16660TIP3    H171395   1.964   5.911   2.534  0.3717 -0.2326 -0.0212
16660TIP3    H271396   1.953   5.767   2.487 -0.1171 -0.4093  0.6133
16661TIP3   OH271397   3.483   5.924   3.988 -0.2286 -0.2218 -0.3434
16661TIP3    H171398   3.414   5.958   3.932 -1.9107 -1.8308  0.6645
16661TIP3    H271399   3.444   5.918   4.075  1.3866 -0.5707  0.4088
16662TIP3   OH271400   2.296   0.962  15.711  0.2893 -0.3098 -0.0289
16662TIP3    H171401   2.376   0.960  15.659  0.8445  0.7505  0.7289
16662TIP3    H271402   2.272   1.055  15.714 -0.2879 -0.4699  0.7616
16663TIP3   OH271403   5.250   2.020  14.698  0.6786  0.5739  0.0299
16663TIP3    H171404   5.227   1.949  14.638  0.5449  0.7556 -0.1366
16663TIP3    H271405   5.293   2.085  14.643 -0.1202  1.0794 -0.0237
16664TIP3   OH271406   2.313   6.124   3.001  0.2534  0.0746  0.4034
16664TIP3    H171407   2.403   6.095   2.986  0.1184  0.8425 -2.5599
16664TIP3    H271408   2.260   6.064   2.948 -1.0863 -0.5893  2.3710
16665TIP3   OH271409   6.381   6.421   0.636  0.3734 -0.0455 -0.1581
16665TIP3    H171410   6.378   6.515   0.652  2.0320 -0.1069  0.6634
16665TIP3    H271411   6.291   6.392   0.652  0.0173  1.2677  0.4019
16666TIP3   OH271412   5.838   4.709  17.146  0.0774 -0.0891  0.3035
16666TIP3    H171413   5.768   4.722  17.082  0.8478 -0.6170 -0.6838
16666TIP3    H271414   5.828   4.781  17.208 -2.1387 -0.8770  0.9590
16667TIP3   OH271415   5.496   5.003  15.209 -0.1127 -1.2335 -0.1037
16667TIP3    H171416   5.418   5.005  15.265  0.5018 -0.1702  0.7564
16667TIP3    H271417   5.461   5.006  15.120 -1.0719 -1.3865  0.2488
16668TIP3   OH271418   4.347   3.032  13.194 -0.0424  0.1651 -0.1169
16668TIP3    H171419   4.287   3.022  13.120 -2.4266  0.2852  1.6924
16668TIP3    H271420   4.360   3.127  13.201  0.5461  0.1302 -0.6069
16669TIP3   OH271421   5.736   1.708   3.126 -0.0346 -0.3663 -0.5268
16669TIP3    H171422   5.814   1.738   3.080  0.6203 -1.1668  0.0285
16669TIP3    H271423   5.769   1.664   3.205 -0.9277 -2.3984 -1.2095
16670TIP3   OH271424   2.371   4.501  13.453  0.0821 -0.1671  0.1017
16670TIP3    H171425   2.377   4.547  13.369 -0.5265  0.0853  0.1908
16670TIP3    H271426   2.457   4.459  13.464  0.0446 -0.5049 -0.8205
16671TIP3   OH271427   5.941   2.549   2.874 -0.2773 -0.2477 -0.2437
16671TIP3    H171428   5.978   2.544   2.962 -0.0095 -0.7367 -0.3846
16671TIP3    H271429   5.876   2.479   2.871 -0.1536 -0.3500 -0.4991
16672TIP3   OH271430   5.316   0.204  15.724  0.1714  0.4194 -0.4395
16672TIP3    H171431   5.222   0.187  15.731  0.2560  0.4895  1.2702
16672TIP3    H271432   5.357   0.118  15.733  0.2968  0.4185 -0.9518
16673TIP3   OH271433   0.405   4.836  13.254 -0.3856 -0.0474 -0.1654
16673TIP3    H171434   0.372   4.772  13.191 -0.8538 -0.3625  0.3899
16673TIP3    H271435   0.388   4.921  13.214 -1.4429 -0.2200 -0.1038
16674TIP3   OH271436   1.531   3.393   6.113 -0.2986 -0.5644 -0.3849
16674TIP3    H171437   1.583   3.322   6.076 -1.1474 -1.5094  0.1589
16674TIP3    H271438   1.484   3.352   6.186 -0.4633  0.6744  0.2340
16675TIP3   OH271439   5.743   4.402   6.383  0.3342 -0.4258  0.3241
16675TIP3    H171440   5.799   4.465   6.337 -0.6026 -0.6198 -1.1665
16675TIP3    H271441   5.705   4.451   6.456  0.1379  0.5544 -0.4207
16676TIP3   OH271442   5.858   5.886  11.465 -0.3329 -0.1697  0.0220
16676TIP3    H171443   5.828   5.816  11.524 -0.1184 -0.6374 -0.4142
16676TIP3    H271444   5.813   5.965  11.497 -1.1918 -0.6503  0.0422
16677TIP3   OH271445   1.194   0.254   1.552  0.0789  0.2383  0.1854
16677TIP3    H171446   1.179   0.198   1.475 -0.4980  2.1075 -1.1441
16677TIP3    H271447   1.155   0.205   1.625 -0.1828 -1.1901 -0.8670
16678TIP3   OH271448   4.963   2.062  16.220 -0.3445 -0.7517  0.2643
16678TIP3    H171449   4.925   2.116  16.152 -1.0241 -2.4998 -0.8175
16678TIP3    H271450   4.947   1.972  16.191 -0.5885 -1.5664  2.6901
16679TIP3   OH271451   2.186   4.808  12.907  0.5081 -0.1187  0.5551
16679TIP3    H171452   2.182   4.880  12.970  1.2382  0.4664 -0.0548
16679TIP3    H271453   2.206   4.731  12.961 -2.9041 -0.4402  1.6171
16680TIP3   OH271454   1.324   5.283   5.619 -0.9039  0.1014  0.9626
16680TIP3    H171455   1.278   5.266   5.537  1.9189  0.7953 -0.9280
16680TIP3    H271456   1.324   5.199   5.664  0.5367 -1.3588 -1.5227
16681TIP3   OH271457   3.378   2.250   0.556  0.1046  0.3909 -0.0629
16681TIP3    H171458   3.298   2.243   0.609  0.0396  0.0982 -0.1971
16681TIP3    H271459   3.391   2.162   0.520 -1.6465  1.2423 -3.1239
16682TIP3   OH271460   4.263   5.873   4.847  0.7456 -0.0048 -0.4027
16682TIP3    H171461   4.205   5.874   4.771 -1.5926 -0.5947  1.2736
16682TIP3    H271462   4.241   5.953   4.895  0.8465 -0.5607  0.6003
16683TIP3   OH271463   5.177   0.593   0.262  0.2318 -0.1507  0.5341
16683TIP3    H171464   5.229   0.592   0.181 -0.4363  0.2870  0.0858
16683TIP3    H271465   5.156   0.686   0.275 -0.7461 -0.3621  0.5064
16684TIP3   OH271466   0.076   3.062   2.159  0.0447 -0.3542  0.3497
16684TIP3    H171467   0.172   3.065   2.165  0.0858  1.9958 -0.5487
16684TIP3    H271468   0.055   3.111   2.080 -1.8981 -1.7873 -0.1107
16685TIP3   OH271469   1.628   4.067  17.077  0.1699 -0.1512  0.2123
16685TIP3    H171470   1.713   4.072  17.120  0.0476 -0.0112  0.4376
16685TIP3    H271471   1.589   4.154  17.089 -0.5338 -0.5887  1.1932
16686TIP3   OH271472   0.163   1.046  11.799 -0.1312  0.6303  0.1440
16686TIP3    H171473   0.071   1.067  11.817  0.1481  0.9434  1.2728
16686TIP3    H271474   0.211   1.084  11.872  1.1403  2.4024 -1.5252
16687TIP3   OH271475   4.902   6.016   3.375  0.0334  0.0981 -0.0541
16687TIP3    H171476   4.883   6.086   3.312 -0.2226 -0.0422 -0.1315
16687TIP3    H271477   4.888   6.057   3.461  1.3914  0.5998 -0.0461
16688TIP3   OH271478   0.911   5.302   0.394 -0.3673  0.3669  0.0319
16688TIP3    H171479   0.881   5.239   0.459 -0.1766  0.0156 -0.2164
16688TIP3    H271480   0.890   5.388   0.431  2.0575  0.3076  1.7439
16689TIP3   OH271481   2.057   0.127  15.189 -0.1964 -0.2818  0.0759
16689TIP3    H171482   2.006   0.153  15.265  0.2755 -1.3167  0.7610
16689TIP3    H271483   2.101   0.208  15.161 -0.3543  0.0981  0.9029
16690TIP3   OH271484   1.444   4.947   5.391  0.2548  0.3150  0.3576
16690TIP3    H171485   1.400   4.925   5.473 -0.8254  1.0547  0.0008
16690TIP3    H271486   1.527   4.987   5.417 -0.9559  2.4635  1.1870
16691TIP3   OH271487   0.148   2.560  12.034 -0.6556 -0.3532  0.2278
16691TIP3    H171488   0.097   2.479  12.039 -1.3786  0.1357  3.3823
16691TIP3    H271489   0.217   2.548  12.100  0.7749  0.6697 -1.0142
16692TIP3   OH271490   0.803   1.755  12.801  0.1166  0.1702  0.0798
16692TIP3    H171491   0.847   1.725  12.881 -0.3614 -0.7341  0.0217
16692TIP3    H271492   0.752   1.831  12.829 -0.2052 -0.2638  0.6871
16693TIP3   OH271493   1.001   3.351  15.736  0.5552 -0.3026  0.2011
16693TIP3    H171494   0.987   3.416  15.667 -0.9570 -1.2284 -0.4204
16693TIP3    H271495   1.001   3.401  15.817  0.5111  0.5951 -0.3386
16694TIP3   OH271496   4.055   0.374   1.808  0.0105 -0.5190 -0.1727
16694TIP3    H171497   4.026   0.307   1.747 -1.4079  0.3051 -0.4645
16694TIP3    H271498   4.149   0.382   1.793 -0.0315 -1.5060 -1.0511
16695TIP3   OH271499   0.516   3.722   2.232 -0.2250  0.3148 -0.4153
16695TIP3    H171500   0.530   3.735   2.138 -0.9142 -0.3872 -0.6194
16695TIP3    H271501   0.450   3.653   2.238  0.6180 -0.4357  0.6088
16696TIP3   OH271502   0.056   2.508   1.470 -0.2886 -0.4160 -0.1974
16696TIP3    H171503   0.079   2.542   1.556 -2.1531 -3.0876  1.5354
16696TIP3    H271504   0.127   2.448   1.448 -1.2935 -2.1718  1.0982
16697TIP3   OH271505   6.713   1.938  16.971 -0.3513 -0.1942  0.6550
16697TIP3    H171506   6.791   1.992  16.955  0.1332 -1.4410 -1.6806
16697TIP3    H271507   6.678   1.920  16.883 -2.1291 -1.3181  1.5359
16698TIP3   OH271508   4.126   2.477  12.552  0.8447  0.1379  0.2955
16698TIP3    H171509   4.176   2.545  12.598  2.8600 -2.0359  1.5478
16698TIP3    H271510   4.173   2.464  12.470  0.4418  0.2931  0.0411
16699TIP3   OH271511   1.365   0.365  11.192 -0.6607 -0.3014 -0.2783
16699TIP3    H171512   1.288   0.373  11.135  0.0053 -0.0966 -1.1659
16699TIP3    H271513   1.422   0.302  11.148 -1.4501 -2.5487  1.6977
16700TIP3   OH271514   2.780   2.815  16.551 -0.0507  0.6362  0.0787
16700TIP3    H171515   2.857   2.790  16.500  0.2740 -0.8816  1.2347
16700TIP3    H271516   2.815   2.849  16.633 -0.5943  0.1449  0.5225
16701TIP3   OH271517   0.228   2.311   1.046 -0.0467  0.2795 -0.3566
16701TIP3    H171518   0.285   2.235   1.034 -0.7449 -0.2256 -0.5088
16701TIP3    H271519   0.177   2.291   1.124  1.0336  1.4074  0.6898
16702TIP3   OH271520   3.837   3.864  12.196 -0.0398 -0.3012 -0.4736
16702TIP3    H171521   3.922   3.907  12.195 -0.7429  1.1925  0.4778
16702TIP3    H271522   3.850   3.786  12.250  1.0601 -0.8913 -1.5441
16703TIP3   OH271523   2.607   0.414  11.828  1.0616 -0.6999 -0.3790
16703TIP3    H171524   2.570   0.489  11.782 -0.0730 -0.4172  0.9205
16703TIP3    H271525   2.669   0.375  11.766  1.4190  1.1016 -1.2078
16704TIP3   OH271526   3.495   2.024  15.685  0.1645  0.1490  0.6056
16704TIP3    H171527   3.542   2.014  15.768  2.0459 -2.0931 -0.6218
16704TIP3    H271528   3.443   1.944  15.677 -0.4690  0.6189 -0.0956
16705TIP3   OH271529   2.479   6.103  14.117  0.2238 -0.2087 -0.0181
16705TIP3    H171530   2.456   6.186  14.075 -0.2518 -0.0470  0.5485
16705TIP3    H271531   2.500   6.128  14.207  0.9940 -0.5812 -0.0876
16706TIP3   OH271532   3.799   2.298  13.280 -0.8442  0.6764 -0.2530
16706TIP3    H171533   3.708   2.319  13.300 -0.1887  1.6100  2.0194
16706TIP3    H271534   3.818   2.220  13.332 -0.8659 -0.7395 -2.2651
16707TIP3   OH271535   6.545   1.364   5.234  0.1974  0.1051 -0.2461
16707TIP3    H171536   6.566   1.276   5.266  0.9664  0.6273  0.7408
16707TIP3    H271537   6.513   1.410   5.311  1.4701  1.2024 -0.3423
16708TIP3   OH271538   3.066   0.915  14.681  1.1313  0.5545 -0.4311
16708TIP3    H171539   3.080   0.903  14.587  0.0841  2.5581 -0.8971
16708TIP3    H271540   3.119   0.992  14.704 -0.1660  1.3003  0.1647
16709TIP3   OH271541   5.603   4.818  15.546 -0.2997 -0.5088  0.1465
16709TIP3    H171542   5.594   4.754  15.475 -0.6305 -0.4947  0.1753
16709TIP3    H271543   5.665   4.777  15.607 -1.5648 -1.4249  0.8542
16710TIP3   OH271544   4.162   4.945  16.244 -0.4408  0.3250  0.3534
16710TIP3    H171545   4.179   4.867  16.193 -1.1287 -0.6873  1.6234
16710TIP3    H271546   4.085   4.924  16.296 -1.7537  2.5097 -0.5892
16711TIP3   OH271547   5.504   4.854  11.755  0.4180  0.0417  0.3704
16711TIP3    H171548   5.543   4.788  11.812 -0.0338 -0.5471  0.0199
16711TIP3    H271549   5.542   4.838  11.669 -0.0031 -0.0392  0.1932
16712TIP3   OH271550   6.701   2.019  14.865 -0.0533  0.1555  0.5941
16712TIP3    H171551   6.750   2.038  14.785  0.1356 -4.6940 -0.8096
16712TIP3    H271552   6.623   2.074  14.859 -0.2746 -0.3120 -3.3211
16713TIP3   OH271553   2.134   4.243  13.915 -0.3508 -0.1158 -0.4475
16713TIP3    H171554   2.099   4.161  13.880  0.8713 -1.0028  0.3445
16713TIP3    H271555   2.222   4.250  13.877 -0.3375  0.6941 -0.2891
16714TIP3   OH271556   4.566   5.696  13.025 -0.1774  0.1291  0.1791
16714TIP3    H171557   4.482   5.679  12.982 -0.0089  0.0122 -0.1065
16714TIP3    H271558   4.631   5.662  12.964  0.0262 -0.9522  0.9656
16715TIP3   OH271559   0.974   1.982  14.430  0.2884  0.1635  0.6649
16715TIP3    H171560   1.064   1.948  14.429 -0.2166 -1.2279  0.6374
16715TIP3    H271561   0.929   1.933  14.362 -0.7923  0.0100  1.4707
16716TIP3   OH271562   1.417   5.714  11.309 -0.6159  0.0380 -0.2270
16716TIP3    H171563   1.435   5.807  11.299 -0.4498  0.0319 -0.0136
16716TIP3    H271564   1.329   5.701  11.273 -0.1358  0.0418 -1.4318
16717TIP3   OH271565   3.703   5.518   4.808  0.3989 -0.2852  0.2549
16717TIP3    H171566   3.635   5.550   4.867 -0.7906 -2.3246  0.0939
16717TIP3    H271567   3.784   5.555   4.842 -0.6509  1.3807  1.0755
16718TIP3   OH271568   5.209   4.783   2.612  0.4875  0.3653 -0.5431
16718TIP3    H171569   5.251   4.716   2.558  0.2774  0.7790 -1.2329
16718TIP3    H271570   5.263   4.789   2.690  0.4978 -0.6230 -0.4675
16719TIP3   OH271571   1.931   2.778   3.667  0.1547 -0.1291  0.0468
16719TIP3    H171572   1.955   2.837   3.595 -1.6009  0.4688 -0.1134
16719TIP3    H271573   1.868   2.829   3.719 -0.9026 -1.6154  0.2851
16720TIP3   OH271574   3.711   1.655   5.949  0.0964  0.1941 -0.3029
16720TIP3    H171575   3.691   1.615   6.034  2.4813  1.3553  0.9194
16720TIP3    H271576   3.693   1.748   5.961  1.4431  0.5323 -0.6744
16721TIP3   OH271577   5.967   1.979   2.000  0.6247 -0.0646  0.2667
16721TIP3    H171578   5.959   2.019   1.914  0.6927  1.6534  1.0086
16721TIP3    H271579   6.060   1.986   2.021  0.2291  2.1706  1.6088
16722TIP3   OH271580   6.537   4.203  13.124 -0.4219  0.4073 -0.0814
16722TIP3    H171581   6.616   4.150  13.139 -1.9133 -1.7538  0.6622
16722TIP3    H271582   6.518   4.242  13.209 -0.9306 -0.2606  0.1227
16723TIP3   OH271583   2.785   4.758   4.967 -0.5599  0.4903 -0.0432
16723TIP3    H171584   2.802   4.733   4.876 -0.8684 -1.0601  0.2893
16723TIP3    H271585   2.691   4.743   4.978 -0.0968 -2.0036  1.2422
16724TIP3   OH271586   6.080   1.981   0.332  0.6116  0.5039 -0.3624
16724TIP3    H171587   6.015   2.005   0.266  1.5656  1.6750 -0.9218
16724TIP3    H271588   6.152   1.941   0.282  0.8995  0.4479  0.0845
16725TIP3   OH271589   5.957   2.119   6.189  0.5259 -0.2449 -0.3627
16725TIP3    H171590   6.007   2.197   6.163  1.4395 -0.1202  1.5909
16725TIP3    H271591   6.019   2.066   6.238 -0.7566 -0.9797  0.5276
16726TIP3   OH271592   1.882   4.157  13.556 -0.2379 -0.0176  0.4709
16726TIP3    H171593   1.839   4.209  13.623 -0.0824 -1.0974  1.4354
16726TIP3    H271594   1.967   4.199  13.544  0.0395 -0.2613  1.5202
16727TIP3   OH271595   3.387   1.106   3.288 -0.2130  0.0421 -0.3561
16727TIP3    H171596   3.474   1.084   3.253  0.6088  2.0991  0.2250
16727TIP3    H271597   3.359   1.182   3.236 -2.4125 -1.4920 -1.5691
16728TIP3   OH271598   5.555   1.749   5.930 -0.3916 -0.2899 -0.0658
16728TIP3    H171599   5.471   1.704   5.938 -1.5846  1.6638 -0.9549
16728TIP3    H271600   5.547   1.826   5.985  0.4695  0.4240 -0.8963
16729TIP3   OH271601   1.068   1.272   4.001 -0.1901 -0.4703  0.0740
16729TIP3    H171602   1.012   1.255   3.926  1.7061  1.6615 -1.9634
16729TIP3    H271603   1.015   1.329   4.057 -1.1547 -1.0159 -0.2602
16730TIP3   OH271604   3.680   0.276   1.315  0.5198 -0.3273 -0.1081
16730TIP3    H171605   3.732   0.286   1.395 -1.1735  0.0700  0.9981
16730TIP3    H271606   3.606   0.222   1.341  0.9024 -1.8376 -1.9268
16731TIP3   OH271607   4.231   1.424   2.566 -0.3627 -0.1648  0.5996
16731TIP3    H171608   4.194   1.356   2.622 -1.2949 -0.0764  0.1098
16731TIP3    H271609   4.305   1.459   2.616  0.4200 -1.8176  0.6768
16732TIP3   OH271610   3.804   0.843   2.762  0.2095  0.5192  0.8991
16732TIP3    H171611   3.722   0.795   2.775  0.4052  0.6717  3.0837
16732TIP3    H271612   3.826   0.877   2.849  2.3867  0.8141  0.2955
16733TIP3   OH271613   0.243   4.075   1.072  0.1977 -0.1738  0.1193
16733TIP3    H171614   0.242   4.103   0.980 -1.5759 -2.6299 -0.7239
16733TIP3    H271615   0.330   4.097   1.103  0.2756  2.3388 -1.6028
16734TIP3   OH271616   5.298   4.455   4.698  0.8768 -0.6960 -0.2038
16734TIP3    H171617   5.318   4.526   4.637  0.5211 -1.5990 -1.4007
16734TIP3    H271618   5.206   4.434   4.682  0.2301  0.2665  1.9457
16735TIP3   OH271619   4.391   5.918  13.659  0.0092 -0.0142 -0.5428
16735TIP3    H171620   4.396   5.986  13.592  0.0405 -1.1623 -1.7599
16735TIP3    H271621   4.319   5.945  13.717  1.0175  1.8043 -0.0773
16736TIP3   OH271622   0.202   0.597   2.247  0.3530  0.1918 -0.2195
16736TIP3    H171623   0.290   0.570   2.273 -0.1755 -0.1666  1.3321
16736TIP3    H271624   0.216   0.652   2.170  2.1603  2.0597  1.3236
16737TIP3   OH271625   0.221   4.023  17.111  0.2486 -0.0512  0.4148
16737TIP3    H171626   0.233   3.938  17.068  0.0841  0.5793 -0.9022
16737TIP3    H271627   0.158   4.069  17.057 -0.4920  0.5293  1.7207
16738TIP3   OH271628   0.495   4.462  11.502 -0.2398  0.0025 -0.0598
16738TIP3    H171629   0.406   4.451  11.535  0.1892 -1.4112  0.7361
16738TIP3    H271630   0.499   4.408  11.423 -0.2212  0.4671 -0.3826
16739TIP3   OH271631   2.652   5.319  14.025 -0.0546 -0.0281  0.0534
16739TIP3    H171632   2.737   5.283  13.999 -0.6242 -1.4245  0.0086
16739TIP3    H271633   2.629   5.270  14.104 -0.7185  0.4767  0.1792
16740TIP3   OH271634   0.112   1.803  14.665  0.3385  0.7175  0.5646
16740TIP3    H171635   0.155   1.800  14.751 -0.4256 -0.5746  0.9405
16740TIP3    H271636   0.092   1.711  14.646  3.5723  0.4348 -2.6301
16741TIP3   OH271637   3.210   5.984  14.603 -0.0768  0.4048  0.4547
16741TIP3    H171638   3.207   5.920  14.532  1.3702  1.2530 -0.4346
16741TIP3    H271639   3.250   6.062  14.563  0.6961  0.9329  2.1667
16742TIP3   OH271640   4.938   6.340  14.498 -0.1966 -0.1956  0.4252
16742TIP3    H171641   4.931   6.255  14.454 -0.2651 -0.4146  0.8487
16742TIP3    H271642   4.904   6.324  14.586 -3.8145  1.1110 -0.5449
16743TIP3   OH271643   6.175   0.512  11.672 -0.2579  0.2029  0.3032
16743TIP3    H171644   6.252   0.528  11.617  1.7343 -2.1912  2.1854
16743TIP3    H271645   6.134   0.435  11.633  0.3603 -0.6485  1.2996
16744TIP3   OH271646   6.322   5.219  12.607  0.0386 -0.4225 -0.0631
16744TIP3    H171647   6.340   5.141  12.659 -0.4934  0.0352  0.8387
16744TIP3    H271648   6.345   5.292  12.665 -1.8303  0.1269  0.0593
16745TIP3   OH271649   2.480   3.415   4.641 -0.0389 -0.3519  0.2590
16745TIP3    H171650   2.454   3.465   4.563 -1.5893 -3.0109 -1.0899
16745TIP3    H271651   2.450   3.468   4.715 -0.7040  1.1596 -1.0262
16746TIP3   OH271652   6.038   1.312  12.932  0.8174 -0.1655  0.6762
16746TIP3    H171653   5.952   1.354  12.934 -0.0241 -1.7619 -0.1814
16746TIP3    H271654   6.043   1.264  13.015  0.4678 -0.8274  0.3208
16747TIP3   OH271655   1.926   1.054  13.084  0.3656 -0.4556 -0.1232
16747TIP3    H171656   1.844   1.060  13.034 -0.0921  0.3460  0.7039
16747TIP3    H271657   1.913   0.977  13.140  0.9331 -1.4398 -1.2754
16748TIP3   OH271658   2.165   5.410   5.924  0.2692  0.3515 -0.3736
16748TIP3    H171659   2.094   5.450   5.874  0.0022 -0.5515 -0.7283
16748TIP3    H271660   2.236   5.475   5.922  0.3672  0.2306 -2.1356
16749TIP3   OH271661   0.402   6.558   0.939 -0.1536  0.2917  0.2473
16749TIP3    H171662   0.371   6.520   1.022  0.3887  2.6775  1.6456
16749TIP3    H271663   0.322   6.591   0.897 -0.3836 -0.5847 -0.0295
16750TIP3   OH271664   6.475   0.783  15.614 -0.5666  0.1074 -0.6462
16750TIP3    H171665   6.537   0.741  15.554  0.8026  1.5328 -0.2943
16750TIP3    H271666   6.389   0.755  15.583  0.2259 -3.1816 -0.2373
16751TIP3   OH271667   5.418   4.731   0.652  0.1158  0.0868  0.5377
16751TIP3    H171668   5.424   4.689   0.738  0.2251 -0.6319  0.1843
16751TIP3    H271669   5.475   4.808   0.659 -0.3878  0.4074  1.3171
16752TIP3   OH271670   3.456   2.017  15.364 -1.1582 -0.1739  0.2876
16752TIP3    H171671   3.505   1.967  15.299  0.6571 -0.1643  1.5716
16752TIP3    H271672   3.387   1.957  15.394 -0.5592 -1.0190  0.0152
16753TIP3   OH271673   4.480   0.782   2.340 -0.1012 -0.0862 -0.0019
16753TIP3    H171674   4.536   0.748   2.410 -0.2233 -1.2820 -0.4660
16753TIP3    H271675   4.393   0.790   2.381  0.2679  1.1999  0.5505
16754TIP3   OH271676   1.388   6.555  15.755 -0.1000 -0.5194  0.4165
16754TIP3    H171677   1.363   6.593  15.671 -0.7255 -1.0319  0.3568
16754TIP3    H271678   1.376   6.625  15.818 -0.3098 -0.3386  0.1772
16755TIP3   OH271679   4.873   5.976  13.862 -0.2738 -0.3256  0.0779
16755TIP3    H171680   4.857   5.892  13.904  1.0833 -0.9382 -0.5331
16755TIP3    H271681   4.913   5.953  13.777 -3.3873  0.8154 -1.8664
16756TIP3   OH271682   6.160   5.330   4.743 -0.0118  0.4706 -0.3640
16756TIP3    H171683   6.202   5.384   4.676  0.6915  0.1746 -0.1751
16756TIP3    H271684   6.153   5.243   4.703  2.1691 -0.2168  0.5662
16757TIP3   OH271685   3.494   5.315  15.611 -0.4897 -0.6594 -0.3820
16757TIP3    H171686   3.508   5.224  15.637 -0.7000 -0.7562 -0.6018
16757TIP3    H271687   3.422   5.311  15.547  0.8566 -0.6003 -1.9826
16758TIP3   OH271688   4.973   3.987  16.956 -0.4798  0.2166 -0.4115
16758TIP3    H171689   5.023   3.979  17.037 -0.8827 -0.1150 -0.1920
16758TIP3    H271690   4.903   4.050  16.977 -0.0972  0.7568 -0.7466
16759TIP3   OH271691   0.798   6.241  14.037 -0.0444  0.4412  0.3370
16759TIP3    H171692   0.868   6.197  13.988  0.3005  0.1066  1.1239
16759TIP3    H271693   0.718   6.213  13.993  0.3402  2.2022 -1.7108
16760TIP3   OH271694   3.607   6.404   3.294 -0.4718 -0.2778 -0.1528
16760TIP3    H171695   3.581   6.313   3.302 -0.1504 -0.5650 -1.8771
16760TIP3    H271696   3.669   6.405   3.221 -1.3842  1.4685 -0.9859
16761TIP3   OH271697   1.378   1.668  13.069  0.1216  0.6283 -0.6600
16761TIP3    H171698   1.352   1.699  12.982 -0.6295  1.8044 -0.0382
16761TIP3    H271699   1.299   1.630  13.106  0.8091 -1.3286 -1.0524
16762TIP3   OH271700   0.884   0.574  15.659  0.3206  0.3642  0.0960
16762TIP3    H171701   0.916   0.578  15.749 -0.7078 -2.0153  0.6617
16762TIP3    H271702   0.962   0.583  15.605  1.4717 -1.5339  1.3369
16763TIP3   OH271703   1.074   3.012   3.182  0.3063  0.3712  0.1929
16763TIP3    H171704   1.047   2.920   3.188  1.9262 -0.0732  1.6536
16763TIP3    H271705   1.093   3.025   3.089 -1.8314 -0.1572 -0.3567
16764TIP3   OH271706   1.184   2.207  12.283  0.3838 -0.0113  0.0831
16764TIP3    H171707   1.274   2.211  12.250  2.2114 -1.9960  4.1137
16764TIP3    H271708   1.164   2.113  12.287 -0.7961  0.2664  1.7128
16765TIP3   OH271709   3.196   2.134   1.058  0.6949  0.0433 -0.7591
16765TIP3    H171710   3.241   2.081   0.993  1.1066 -0.0728 -0.3882
16765TIP3    H271711   3.153   2.071   1.116 -0.2851  0.1603 -1.3350
16766TIP3   OH271712   3.294   4.416   6.575  0.0637  0.6508  0.1307
16766TIP3    H171713   3.257   4.365   6.503  3.1107  0.3580 -1.3848
16766TIP3    H271714   3.294   4.506   6.543 -0.1690  0.7808  0.4963
16767TIP3   OH271715   3.025   3.255   3.400  0.3354 -0.4775  0.8148
16767TIP3    H171716   3.108   3.210   3.412  0.5159  0.0401  1.5884
16767TIP3    H271717   3.049   3.346   3.380 -0.0301 -0.5958 -0.2157
16768TIP3   OH271718   1.022   4.915   4.162 -0.0936 -0.2643  0.2204
16768TIP3    H171719   1.080   4.875   4.098  0.6321 -2.7889  2.2502
16768TIP3    H271720   1.056   5.004   4.173 -1.3717  0.9793 -4.0403
16769TIP3   OH271721   6.542   0.688  14.813 -0.8414  0.6005  0.6423
16769TIP3    H171722   6.480   0.630  14.857 -0.7180  1.3984  1.9234
16769TIP3    H271723   6.624   0.638  14.811 -0.7413  0.6918  1.7193
16770TIP3   OH271724   3.444   0.173  12.423  0.4067  0.3846  0.5128
16770TIP3    H171725   3.463   0.256  12.467  1.2850 -0.7014  2.3213
16770TIP3    H271726   3.524   0.153  12.375  0.0470  0.7619 -0.2593
16771TIP3   OH271727   1.620   4.685  15.713  0.0217  0.4509 -0.2873
16771TIP3    H171728   1.654   4.755  15.769 -0.5888  0.3640  0.2064
16771TIP3    H271729   1.602   4.613  15.773 -3.1471  1.2323 -0.0979
16772TIP3   OH271730   5.282   4.102   4.637 -0.4574  0.2734  0.7068
16772TIP3    H171731   5.296   4.172   4.574  1.8806 -0.5157  0.2385
16772TIP3    H271732   5.364   4.096   4.686 -1.6512 -0.1745  2.8174
16773TIP3   OH271733   4.639   5.941  13.147  0.0975  0.8054  0.3700
16773TIP3    H171734   4.681   5.939  13.233 -1.1245  1.1389  1.0060
16773TIP3    H271735   4.618   5.850  13.127  2.5344  0.4126 -0.7234
16774TIP3   OH271736   0.018   2.111   0.535 -0.1752 -0.4540 -0.3454
16774TIP3    H171737   0.092   2.149   0.488 -0.2577  1.5846  1.0350
16774TIP3    H271738  -0.029   2.060   0.469  0.2529  1.4506 -2.2283
16775TIP3   OH271739   3.201   4.955  15.316 -0.4025  0.2157  0.1366
16775TIP3    H171740   3.164   4.957  15.404 -0.0378  3.0092  0.3151
16775TIP3    H271741   3.294   4.934  15.330 -0.7671 -1.4965  0.1721
16776TIP3   OH271742   5.001   0.582  16.895 -0.1764  0.2734 -0.5380
16776TIP3    H171743   4.978   0.672  16.915 -0.8522  0.1470 -0.7214
16776TIP3    H271744   4.957   0.564  16.811 -0.1519 -0.2618 -0.4421
16777TIP3   OH271745   4.591   0.705  14.584 -0.0419 -0.1900  0.6257
16777TIP3    H171746   4.683   0.708  14.557 -0.6328 -0.3266 -1.6189
16777TIP3    H271747   4.588   0.634  14.648  1.4149 -0.1320  0.8130
16778TIP3   OH271748   1.235   3.297  13.731 -0.8056  0.5320 -0.4195
16778TIP3    H171749   1.313   3.349  13.711 -1.1463  1.2851  0.1568
16778TIP3    H271750   1.218   3.247  13.651  0.3705  0.2157 -0.4812
16779TIP3   OH271751   2.651   4.804  10.705 -0.2911 -0.5490 -0.2703
16779TIP3    H171752   2.560   4.826  10.726 -0.9796 -3.8907  0.9861
16779TIP3    H271753   2.647   4.773  10.614 -0.3306 -0.3596 -0.3344
16780TIP3   OH271754   3.077   4.930   4.323  0.1487 -0.1791  0.2344
16780TIP3    H171755   3.021   4.854   4.304  0.5398 -0.5923  0.6972
16780TIP3    H271756   3.166   4.898   4.307  0.2222  1.2940 -3.4325
16781TIP3   OH271757   3.770   6.676  12.269  0.4356  0.2182 -0.7308
16781TIP3    H171758   3.762   6.766  12.237 -0.3135  0.5731  0.3995
16781TIP3    H271759   3.693   6.631  12.235  0.5807  0.1130 -0.9255
16782TIP3   OH271760   3.649   2.307   5.685 -0.0348 -0.6400 -0.0553
16782TIP3    H171761   3.596   2.233   5.715  0.2770 -1.6021 -1.7642
16782TIP3    H271762   3.585   2.374   5.660 -0.3612 -0.8386  0.2418
16783TIP3   OH271763   6.556   3.996  16.523  0.6830  0.5937 -0.1123
16783TIP3    H171764   6.575   4.063  16.589  1.0120 -0.5274  0.9654
16783TIP3    H271765   6.612   3.922  16.546  0.0303 -0.2221 -1.0287
16784TIP3   OH271766   6.368   6.330  17.543 -0.3630  0.0809  0.1216
16784TIP3    H171767   6.368   6.329  17.639  0.1324 -1.7814  0.1564
16784TIP3    H271768   6.368   6.237  17.519  0.8273  0.5007 -1.6711
16785TIP3   OH271769   2.454   3.661  12.344  0.0761 -0.9669 -0.1712
16785TIP3    H171770   2.401   3.610  12.283 -0.3278 -1.4908  0.5944
16785TIP3    H271771   2.543   3.656  12.309 -0.0463 -1.7512 -0.4013
16786TIP3   OH271772   4.292   6.169  11.940  0.5830 -0.3511 -0.3669
16786TIP3    H171773   4.336   6.182  12.024 -0.6962 -0.5792  0.3622
16786TIP3    H271774   4.198   6.174  11.960  0.1253 -3.3309 -1.2244
16787TIP3   OH271775   0.194   1.493  17.393 -0.0080 -0.1943 -0.3584
16787TIP3    H171776   0.215   1.445  17.313 -2.9251  1.8746 -2.5763
16787TIP3    H271777   0.273   1.544  17.412  0.1158  0.8509 -3.2191
16788TIP3   OH271778   5.219   5.828  17.366  0.2370  0.2261  0.2764
16788TIP3    H171779   5.132   5.808  17.401  0.2696 -0.6619 -0.1230
16788TIP3    H271780   5.260   5.881  17.435  0.0342 -0.8799  1.2964
16789TIP3   OH271781   6.133   3.255  17.590  0.3800  0.1975 -0.1212
16789TIP3    H171782   6.039   3.237  17.601  0.5298 -0.4102  0.2167
16789TIP3    H271783   6.136   3.344  17.555 -0.3589 -0.1082 -1.0112
16790TIP3   OH271784   3.929   5.639   2.121 -0.5098 -0.4942 -0.5524
16790TIP3    H171785   3.977   5.650   2.203  0.5950 -2.8224 -0.8184
16790TIP3    H271786   3.904   5.728   2.097  0.3755  0.4065  1.5596
16791TIP3   OH271787   2.850   1.433  15.622  0.2512  0.0900 -0.5783
16791TIP3    H171788   2.887   1.439  15.534  0.1484 -0.4603 -0.6575
16791TIP3    H271789   2.829   1.524  15.644  0.5452  0.2663 -1.0049
16792TIP3   OH271790   3.958   5.213  15.307  0.3322  0.4831 -0.9599
16792TIP3    H171791   3.897   5.266  15.359  2.4332  0.8493  1.3587
16792TIP3    H271792   3.948   5.124  15.341  0.0056  0.2251 -1.6997
16793TIP3   OH271793   3.529   1.571  15.800  0.3745  0.1601 -0.4975
16793TIP3    H171794   3.504   1.523  15.721 -0.2647  0.6149 -0.5732
16793TIP3    H271795   3.600   1.518  15.838 -0.7929 -1.2589 -0.1853
16794TIP3   OH271796   1.143   4.468  13.592 -0.0206  0.0717  0.1885
16794TIP3    H171797   1.150   4.393  13.533  1.5808 -1.5892  2.3370
16794TIP3    H271798   1.057   4.458  13.634 -0.2056 -0.0153 -0.2109
16795TIP3   OH271799   5.013   2.728   2.701 -0.4013 -0.0085 -0.2410
16795TIP3    H171800   5.108   2.736   2.704 -0.5155  1.2273  2.1182
16795TIP3    H271801   4.993   2.656   2.759 -0.9228 -0.2830 -0.7516
16796TIP3   OH271802   6.521   6.414   5.653  0.2246 -0.5945 -0.1855
16796TIP3    H171803   6.590   6.349   5.639 -0.8157 -1.7483 -0.1117
16796TIP3    H271804   6.458   6.398   5.583  0.3510  0.9114 -0.6769
16797TIP3   OH271805   5.223   5.270  12.536  0.3284  0.1444 -0.2999
16797TIP3    H171806   5.144   5.324  12.537 -0.0970 -0.4384 -1.1573
16797TIP3    H271807   5.191   5.181  12.544  0.8670 -0.1255 -1.0468
16798TIP3   OH271808   3.903   5.609  13.412  0.5380  0.0728  0.6790
16798TIP3    H171809   3.895   5.696  13.452  1.0579  0.4388  0.0167
16798TIP3    H271810   3.814   5.576  13.406  0.3499  0.5081  1.0666
16799TIP3   OH271811   3.064   2.013   0.080  0.1815  0.0627  0.4060
16799TIP3    H171812   3.018   2.097   0.078  3.0265  1.7519 -0.5232
16799TIP3    H271813   3.059   1.980  -0.010  1.0687  0.4767  0.1902
16800TIP3   OH271814   5.858   6.351  11.531  0.5641 -0.1006  0.1285
16800TIP3    H171815   5.913   6.360  11.608  0.0295 -0.4662  0.5635
16800TIP3    H271816   5.904   6.286  11.477  2.7720  2.6320 -1.5526
16801TIP3   OH271817   3.735   0.724   3.336 -0.4214 -0.3055 -0.1551
16801TIP3    H171818   3.655   0.760   3.375 -0.7413  1.1975 -2.0705
16801TIP3    H271819   3.703   0.665   3.268  0.1116 -0.2238 -0.4750
16802TIP3   OH271820   5.523   0.070  11.990 -0.1789  0.0814  0.1887
16802TIP3    H171821   5.614   0.047  11.972 -0.1494  1.1182 -1.0528
16802TIP3    H271822   5.525   0.100  12.081  0.9523  1.1880 -0.1668
16803TIP3   OH271823   4.564   5.902   2.720 -0.3157  0.8180 -0.0345
16803TIP3    H171824   4.568   5.954   2.640 -0.2668 -0.9695 -1.2627
16803TIP3    H271825   4.497   5.836   2.703  0.4827 -0.3052  0.9341
16804TIP3   OH271826   3.440   5.511  14.145  0.1572  0.1043  0.1825
16804TIP3    H171827   3.474   5.445  14.086 -0.0839  1.0176 -1.0238
16804TIP3    H271828   3.518   5.555  14.180  0.3003  0.4022 -0.4771
16805TIP3   OH271829   0.086   2.986   1.731  0.2983  0.1935 -0.1906
16805TIP3    H171830   0.155   3.023   1.786  0.5255  2.6716 -1.9467
16805TIP3    H271831   0.120   2.994   1.642 -0.7650 -2.0252 -0.8712
16806TIP3   OH271832   5.838   5.769   4.178 -0.0517 -0.7063  0.1742
16806TIP3    H171833   5.901   5.837   4.201 -2.4268  1.0493  1.9674
16806TIP3    H271834   5.805   5.795   4.092  1.1991 -1.3424 -0.5303
16807TIP3   OH271835   3.531   5.575  15.476  0.4854 -0.1046 -0.0511
16807TIP3    H171836   3.445   5.592  15.438  1.3175  1.6161 -1.2964
16807TIP3    H271837   3.516   5.503  15.538 -1.7627 -0.0681 -0.4657
16808TIP3   OH271838   2.052   5.692  13.987 -0.3378 -0.6327 -0.0702
16808TIP3    H171839   1.996   5.719  13.914 -1.5260  1.0922  1.3871
16808TIP3    H271840   1.993   5.647  14.047 -0.2530  1.1511  1.4603
16809TIP3   OH271841   1.236   1.754  12.851 -0.1157  0.8430 -0.2489
16809TIP3    H171842   1.161   1.790  12.899 -0.8888  0.5786 -1.2149
16809TIP3    H271843   1.198   1.686  12.795  0.8294  0.8200 -0.8869
16810TIP3   OH271844   4.071   5.836  13.774  0.4468 -0.3926  0.6977
16810TIP3    H171845   4.036   5.869  13.691  1.6826 -0.3451  0.1683
16810TIP3    H271846   4.007   5.771  13.803 -0.7465  0.6269  0.4727
16811TIP3   OH271847   2.349   5.598   0.084  0.3919 -0.1259  0.5268
16811TIP3    H171848   2.296   5.600   0.165 -1.0311 -1.7509 -0.3019
16811TIP3    H271849   2.312   5.526   0.033  2.2624 -0.1208 -0.9328
16812TIP3   OH271850   2.418   5.456  17.187  0.2012  0.3715  0.2198
16812TIP3    H171851   2.353   5.444  17.257  0.8294 -0.9362  0.6243
16812TIP3    H271852   2.366   5.467  17.107 -0.5165  0.3774  0.6766
16813TIP3   OH271853   2.689   2.306  16.232  0.2274 -0.0884 -0.1584
16813TIP3    H171854   2.691   2.332  16.140 -0.7502 -1.1295 -0.5031
16813TIP3    H271855   2.766   2.348  16.270  1.0853 -0.2419 -1.6171
16814TIP3   OH271856   0.884   4.347  12.032  0.0492 -0.0035  0.8371
16814TIP3    H171857   0.965   4.357  11.981  0.3316 -0.8563  1.1075
16814TIP3    H271858   0.818   4.325  11.966  0.6271 -2.1832  0.9135
16815TIP3   OH271859   6.575   1.166   3.510 -0.4661 -0.3947  0.1078
16815TIP3    H171860   6.628   1.230   3.463  1.4529 -2.0422 -0.1248
16815TIP3    H271861   6.536   1.112   3.442 -0.3712 -0.7461  0.3281
16816TIP3   OH271862   0.633   5.296  16.054  0.0259  0.0475  0.0631
16816TIP3    H171863   0.638   5.388  16.077 -0.3763  0.1275 -0.1620
16816TIP3    H271864   0.721   5.261  16.073 -0.0680  0.2796  0.9592
16817TIP3   OH271865   2.399   3.292  16.685 -0.4624  0.2948  0.1777
16817TIP3    H171866   2.413   3.268  16.593 -0.9239  0.7015 -0.0034
16817TIP3    H271867   2.414   3.387  16.687 -0.3883  0.2754  0.5357
16818TIP3   OH271868   2.105   6.019  11.763  0.2708  0.2601  0.5791
16818TIP3    H171869   2.122   6.020  11.857  1.8552 -1.0797  0.3642
16818TIP3    H271870   2.053   5.941  11.749 -1.6584  1.5000  0.5435
16819TIP3   OH271871   0.632   3.053   3.911 -0.6304  0.1610  0.5648
16819TIP3    H171872   0.723   3.050   3.884 -0.5923 -0.6297  0.7433
16819TIP3    H271873   0.610   2.962   3.932 -1.9421  0.0510 -1.0604
16820TIP3   OH271874   0.362   3.093   2.170 -0.0697  0.2729  0.0706
16820TIP3    H171875   0.453   3.066   2.184 -0.4252 -0.8989  0.2536
16820TIP3    H271876   0.367   3.163   2.105  0.8817 -0.5608 -0.7916
16821TIP3   OH271877   4.292   4.059   4.664  0.4867 -0.0909  0.4636
16821TIP3    H171878   4.242   4.115   4.723 -0.0436  1.1059 -1.0744
16821TIP3    H271879   4.365   4.115   4.634 -0.0937 -0.1468 -1.1542
16822TIP3   OH271880   5.524   3.058   4.527 -0.5226 -0.3899  0.1519
16822TIP3    H171881   5.462   3.003   4.478 -2.0684  0.3567  1.1928
16822TIP3    H271882   5.607   3.011   4.521 -1.5335 -2.2747  0.0577
16823TIP3   OH271883   0.788   0.808  10.660 -0.3344  0.6930  0.0019
16823TIP3    H171884   0.788   0.816  10.564  0.2940  0.3806 -0.0294
16823TIP3    H271885   0.874   0.839  10.687  1.3944 -3.4340  0.0490
16824TIP3   OH271886   5.649   6.098   1.644  0.1673 -0.6692  0.0954
16824TIP3    H171887   5.581   6.142   1.695 -1.2417 -1.8204 -0.7146
16824TIP3    H271888   5.706   6.058   1.710  0.0900  0.2974  0.7819
16825TIP3   OH271889   3.542   3.247   5.097 -0.6885  0.0305 -0.3966
16825TIP3    H171890   3.551   3.332   5.141 -0.3954 -0.4845  0.5840
16825TIP3    H271891   3.556   3.183   5.167 -0.9286 -0.8266 -1.1180
16826TIP3   OH271892   5.026   0.980  13.050 -0.3130  0.6701  0.4018
16826TIP3    H171893   5.005   1.012  13.138 -1.4296  0.4385  0.2365
16826TIP3    H271894   4.943   0.986  13.002  0.5949  2.1514 -1.0795
16827TIP3   OH271895   3.181   0.812   6.354  1.2343  0.2657  0.1758
16827TIP3    H171896   3.146   0.876   6.292  0.4322 -1.2804 -1.0546
16827TIP3    H271897   3.148   0.840   6.440  2.2540  2.3725 -0.0845
16828TIP3   OH271898   5.330   4.019   1.426  0.5302  0.8073 -0.4590
16828TIP3    H171899   5.280   3.944   1.394  1.2590  0.5838 -1.1070
16828TIP3    H271900   5.264   4.085   1.448 -0.1950 -0.3554  1.0644
16829TIP3   OH271901   4.424   5.740  12.641  0.7488 -0.0167 -0.3588
16829TIP3    H171902   4.446   5.815  12.585  1.5915 -0.8390 -1.1719
16829TIP3    H271903   4.328   5.740  12.644  0.7320  1.9751  0.9111
16830TIP3   OH271904   5.752   1.465  14.236  0.2512  0.3966 -0.0335
16830TIP3    H171905   5.808   1.468  14.158 -0.3616  1.6840 -0.4637
16830TIP3    H271906   5.753   1.374  14.263  2.6408  0.3854  0.0481
16831TIP3   OH271907   2.190   5.222  15.021 -0.8335  0.3494  0.3711
16831TIP3    H171908   2.228   5.305  15.047 -0.5743 -0.3416  2.3434
16831TIP3    H271909   2.180   5.229  14.926  2.6108  1.2401 -0.0575
16832TIP3   OH271910   4.656   5.765   1.055  0.1832 -0.4688 -0.0306
16832TIP3    H171911   4.711   5.832   1.013  0.3608 -1.2082 -1.0125
16832TIP3    H271912   4.577   5.812   1.080  0.7185  0.3298  0.2104
16833TIP3   OH271913   0.057   6.385   5.092 -1.2011 -0.0892 -0.1384
16833TIP3    H171914  -0.012   6.327   5.061 -0.1717 -1.5058  0.1365
16833TIP3    H271915   0.132   6.328   5.108  0.4515  1.5160 -1.5435
16834TIP3   OH271916   2.253   2.658  16.407 -0.3871  0.1232 -0.3129
16834TIP3    H171917   2.178   2.686  16.356  0.2008 -0.0986 -1.3269
16834TIP3    H271918   2.294   2.589  16.355  0.7533  0.5188  0.0120
16835TIP3   OH271919   4.408   5.901  15.875  0.2331  0.6582 -1.0060
16835TIP3    H171920   4.474   5.844  15.914 -1.0185 -0.3667 -0.2793
16835TIP3    H271921   4.407   5.877  15.783  0.1992 -0.0368 -0.8330
16836TIP3   OH271922   6.199   4.869   4.205  0.4675 -0.1711 -0.0626
16836TIP3    H171923   6.292   4.888   4.220  0.2667 -0.3349  1.5577
16836TIP3    H271924   6.178   4.915   4.124  1.9738 -0.1899 -0.4990
16837TIP3   OH271925   6.698   5.766  15.484  0.3385  0.6891  0.8613
16837TIP3    H171926   6.733   5.678  15.500 -0.6120 -0.2965 -1.7972
16837TIP3    H271927   6.608   5.750  15.454  0.4195  2.4986 -0.5111
16838TIP3   OH271928   0.213   1.784  13.071 -0.0211  0.2936  0.0238
16838TIP3    H171929   0.202   1.854  13.135 -1.1950 -0.0527  0.2213
16838TIP3    H271930   0.124   1.766  13.039  0.5686  0.7187 -1.9877
16839TIP3   OH271931   4.773   2.372  14.665 -0.2544  0.1936  0.9787
16839TIP3    H171932   4.690   2.419  14.671  0.9635  2.3634  1.9006
16839TIP3    H271933   4.763   2.297  14.723 -1.3431  0.8214  1.6212
16840TIP3   OH271934   3.369   1.618   6.317  1.1438  0.6570 -0.5314
16840TIP3    H171935   3.318   1.545   6.353  0.5240  2.1771  1.9109
16840TIP3    H271936   3.313   1.655   6.249  0.1783  0.5740  0.1935
16841TIP3   OH271937   2.403   5.684  16.996  0.7344  0.1475  1.1266
16841TIP3    H171938   2.316   5.718  16.978  1.2628  0.2675 -1.7160
16841TIP3    H271939   2.424   5.715  17.084 -2.3169 -0.4666  2.1674
16842TIP3   OH271940   1.451   0.153   1.551 -0.0475 -0.4934 -0.1501
16842TIP3    H171941   1.520   0.195   1.601  0.3596 -0.4762 -0.7140
16842TIP3    H271942   1.374   0.209   1.563  0.9501  1.5290 -2.4007
16843TIP3   OH271943   4.231   5.514   4.324  0.1475 -0.2475 -0.1305
16843TIP3    H171944   4.136   5.513   4.333  0.2214 -2.4876  1.1128
16843TIP3    H271945   4.247   5.474   4.239  0.0019  0.2283 -0.3886
16844TIP3   OH271946   3.340   4.019  15.801 -0.2785  0.0947  0.1374
16844TIP3    H171947   3.368   4.100  15.759  1.3384  0.4867  1.8093
16844TIP3    H271948   3.262   3.992  15.753  0.4220  1.4463 -1.8748
16845TIP3   OH271949   5.500   2.191   4.405  0.0340 -0.2968 -0.3475
16845TIP3    H171950   5.498   2.284   4.383 -2.1139  0.1057  1.2028
16845TIP3    H271951   5.487   2.188   4.500 -1.3885 -2.1940 -0.5276
16846TIP3   OH271952   5.773   4.005   0.539  0.3794 -0.2349  0.3321
16846TIP3    H171953   5.679   4.000   0.519  0.2928 -1.7870  0.9405
16846TIP3    H271954   5.793   3.920   0.578  2.3633 -0.5101 -1.1208
16847TIP3   OH271955   2.488   0.085   2.011  0.2291  0.1675 -0.0988
16847TIP3    H171956   2.517   0.100   1.921  1.2737  3.1947  0.6134
16847TIP3    H271957   2.565   0.049   2.056  0.3230  0.4927  0.0026
16848TIP3   OH271958   5.413   3.548  15.494 -0.1756 -0.2185  0.2845
16848TIP3    H171959   5.464   3.594  15.561  0.1087  1.3878 -0.9827
16848TIP3    H271960   5.375   3.473  15.540  1.8637 -0.4628  1.7002
16849TIP3   OH271961   3.193   5.570   1.419  0.0451 -0.4714  0.0724
16849TIP3    H171962   3.205   5.509   1.492  0.7759  1.5491  1.7259
16849TIP3    H271963   3.115   5.538   1.374  0.4598 -2.6669  0.7807
16850TIP3   OH271964   2.732   3.642  11.154 -0.1714 -0.1119  0.0646
16850TIP3    H171965   2.653   3.588  11.148 -1.6469  1.9337 -0.1116
16850TIP3    H271966   2.717   3.698  11.229  0.8606  0.7202 -0.3257
16851TIP3   OH271967   1.292   6.657  16.185  0.4963  0.1940 -0.3959
16851TIP3    H171968   1.308   6.563  16.194 -1.4259 -0.0884  0.5970
16851TIP3    H271969   1.379   6.696  16.186  1.4669 -1.6669 -2.5546
16852TIP3   OH271970   4.307   5.239  14.798 -0.6019 -0.1092 -0.0324
16852TIP3    H171971   4.251   5.205  14.867 -0.6165  0.1527  0.0863
16852TIP3    H271972   4.394   5.243  14.837 -0.7529  0.7816  0.2286
16853TIP3   OH271973   5.445   0.492  12.919 -0.2736 -0.2205 -0.0527
16853TIP3    H171974   5.399   0.449  12.991  1.8013 -2.1177  0.2314
16853TIP3    H271975   5.483   0.570  12.958  0.0945 -0.7659  0.7008
16854TIP3   OH271976   1.217   4.739  17.460 -0.0384  0.6126  0.2377
16854TIP3    H171977   1.243   4.782  17.541  0.0007 -1.3812  1.3408
16854TIP3    H271978   1.124   4.721  17.472 -0.4950  1.9366 -0.9804
16855TIP3   OH271979   2.528   2.773   2.585  0.2527 -0.0175  0.4063
16855TIP3    H171980   2.512   2.681   2.605  1.2610 -0.6659 -1.4717
16855TIP3    H271981   2.441   2.809   2.566 -0.1342 -0.6125  1.0076
16856TIP3   OH271982   3.107   0.682   6.009  0.3532 -0.3818 -0.1656
16856TIP3    H171983   3.138   0.592   6.001 -0.1307 -0.4745 -1.1296
16856TIP3    H271984   3.021   0.674   6.050 -0.8217 -0.5971 -2.5401
16857TIP3   OH271985   4.948   3.627  15.125  0.0640  0.0197  0.0853
16857TIP3    H171986   5.010   3.685  15.082  0.0949  0.3507  0.5662
16857TIP3    H271987   4.982   3.539  15.110 -0.7099 -0.0070 -1.8461
16858TIP3   OH271988   2.632   5.203   6.397 -0.2950 -0.2440  0.0242
16858TIP3    H171989   2.659   5.252   6.474 -2.0581 -0.8561  1.1156
16858TIP3    H271990   2.713   5.182   6.352  0.8889 -0.4719  2.1074
16859TIP3   OH271991   3.377   0.063  13.026 -1.0314  0.1801  0.3675
16859TIP3    H171992   3.468   0.035  13.019 -1.0918 -1.3030  3.6209
16859TIP3    H271993   3.379   0.156  13.002  1.2061  0.0581 -0.1954
16860TIP3   OH271994   2.016   2.528  15.044 -0.4572  0.0586  0.8836
16860TIP3    H171995   1.958   2.570  15.108 -0.3184 -0.1129  1.1183
16860TIP3    H271996   2.104   2.550  15.072 -0.4080  0.8540  0.1688
16861TIP3   OH271997   1.277   1.813  14.122  0.8080  0.2980 -0.3913
16861TIP3    H171998   1.332   1.750  14.076  0.6787 -0.1585  0.0778
16861TIP3    H271999   1.255   1.879  14.055  0.8899 -0.1834 -0.8964
16862TIP3   OH272000   0.061   5.584   3.722  0.1091 -0.4952  0.0527
16862TIP3    H172001   0.006   5.598   3.645  0.5213 -0.7591 -0.2855
16862TIP3    H272002   0.135   5.643   3.710 -0.2240  0.0535  0.6374
16863TIP3   OH272003   5.198   4.760   1.322 -0.7855  0.4218  0.3779
16863TIP3    H172004   5.196   4.809   1.240  0.7303  0.2630  0.2096
16863TIP3    H272005   5.240   4.820   1.384  0.4982 -0.4039  0.3353
16864TIP3   OH272006   4.619   0.131  16.050  0.2718 -0.1702 -0.8006
16864TIP3    H172007   4.618   0.037  16.065  1.2552  0.0722  1.1753
16864TIP3    H272008   4.529   0.159  16.064  0.1343 -0.7145 -0.5859
16865TIP3   OH272009   2.911   4.471   5.367 -0.2344 -0.4163  0.3053
16865TIP3    H172010   2.946   4.383   5.375 -0.6167 -0.4467  2.2441
16865TIP3    H272011   2.940   4.502   5.282  1.2555 -1.8236  0.2737
16866TIP3   OH272012   5.021   2.759   5.775 -0.4197 -0.4157  0.0892
16866TIP3    H172013   5.108   2.764   5.816  1.4557 -0.3599 -3.4876
16866TIP3    H272014   5.008   2.666   5.758 -0.2673 -0.2610 -0.8945
16867TIP3   OH272015   5.238   3.565   1.652 -0.6968 -0.0135  0.2802
16867TIP3    H172016   5.155   3.593   1.691 -1.0189 -2.1983  1.3144
16867TIP3    H272017   5.223   3.475   1.623  1.1234 -0.2598 -0.0640
16868TIP3   OH272018   1.847   5.397  12.231 -0.2911 -0.2584 -0.1926
16868TIP3    H172019   1.937   5.405  12.262  0.0018  1.6595 -1.3493
16868TIP3    H272020   1.800   5.352  12.301  1.4558 -0.8729  0.6235
16869TIP3   OH272021   5.412   0.316   4.892 -0.2866  0.4073 -0.1068
16869TIP3    H172022   5.387   0.403   4.923  0.4282  0.6049 -0.0661
16869TIP3    H272023   5.504   0.308   4.916 -0.5496 -0.6944  0.6419
16870TIP3   OH272024   2.941   1.300   1.693  0.4046 -0.3542  0.2102
16870TIP3    H172025   3.027   1.312   1.653  0.1059  2.1524  0.1633
16870TIP3    H272026   2.955   1.230   1.757  2.1971 -0.7651 -0.5572
16871TIP3   OH272027   2.526   2.545  11.435 -0.4106 -0.7209 -0.1274
16871TIP3    H172028   2.532   2.454  11.466 -1.0135 -1.1017 -1.0645
16871TIP3    H272029   2.573   2.596  11.500  0.6067 -1.8033  0.0244
16872TIP3   OH272030   1.058   5.819  15.877  0.1318  0.4548  0.3063
16872TIP3    H172031   0.988   5.847  15.818 -0.3518 -2.2828 -0.5694
16872TIP3    H272032   1.138   5.824  15.825  0.9802  4.6973  1.6445
16873TIP3   OH272033   0.832   4.175  13.822  0.0777  0.1898 -0.1737
16873TIP3    H172034   0.749   4.130  13.838  0.7323 -1.7138 -1.7111
16873TIP3    H272035   0.899   4.110  13.844  1.1787  1.4674  0.4112
16874TIP3   OH272036   1.998   0.352   5.174 -0.8369 -0.4765  0.3283
16874TIP3    H172037   2.089   0.341   5.147  0.6568  3.2746  3.0143
16874TIP3    H272038   1.979   0.272   5.224  0.7032 -1.6065 -0.7647
16875TIP3   OH272039   2.662   2.847   0.982  0.6066 -0.0205  0.5478
16875TIP3    H172040   2.572   2.820   0.964  0.4164 -0.4170  1.9934
16875TIP3    H272041   2.705   2.767   1.012  1.1424  0.4114  0.9429
16876TIP3   OH272042   6.608   0.791   2.081  0.4219  0.4575 -0.0209
16876TIP3    H172043   6.683   0.850   2.074 -0.5415  2.0474  1.9074
16876TIP3    H272044   6.536   0.848   2.108 -0.9345 -1.3947  0.4600
16877TIP3   OH272045   6.635   0.508  13.738  0.0248 -0.5914 -0.8665
16877TIP3    H172046   6.557   0.477  13.691 -1.1280  1.0550 -0.1348
16877TIP3    H272047   6.652   0.595  13.702 -0.0516  0.1291  0.7608
16878TIP3   OH272048   6.110   2.067   5.507  0.4643 -0.1183  0.3094
16878TIP3    H172049   6.062   2.119   5.443 -0.0621 -1.0732 -0.1028
16878TIP3    H272050   6.158   2.003   5.455  0.1151 -0.8381  0.8482
16879TIP3   OH272051   2.503   0.947   0.375 -0.0907  0.4884 -0.2806
16879TIP3    H172052   2.534   1.031   0.409  1.3691 -0.2732  0.3451
16879TIP3    H272053   2.505   0.957   0.280 -1.3997  1.6533 -0.2243
16880TIP3   OH272054   1.374   3.188  11.484  0.1370 -0.3948  0.2191
16880TIP3    H172055   1.468   3.169  11.485  0.1980 -0.1496 -0.4572
16880TIP3    H272056   1.357   3.227  11.570  0.7012 -0.2186  0.2550
16881TIP3   OH272057   6.229   1.841  15.362 -0.4839  0.0380  0.3339
16881TIP3    H172058   6.157   1.782  15.384 -0.8883 -0.2230 -1.5545
16881TIP3    H272059   6.250   1.821  15.271  1.9441  0.1768  0.7986
16882TIP3   OH272060   1.186   3.456  14.653 -0.7920 -0.2855  0.4808
16882TIP3    H172061   1.240   3.446  14.574 -1.2044  1.2094 -0.0357
16882TIP3    H272062   1.141   3.540  14.640 -1.5927 -0.4730  1.8840
16883TIP3   OH272063   0.327   6.481   5.314 -0.1111  0.2261  0.0035
16883TIP3    H172064   0.408   6.516   5.350  0.5395 -0.0175 -1.1621
16883TIP3    H272065   0.258   6.528   5.359  0.7021  1.5062 -0.0482
16884TIP3   OH272066   5.172   2.548   1.365  0.0718  0.2393  0.4334
16884TIP3    H172067   5.231   2.472   1.360 -1.3431 -0.8914  0.3007
16884TIP3    H272068   5.085   2.512   1.349 -0.3580  2.3671 -2.8373
16885TIP3   OH272069   3.511   5.386   2.330 -0.0723 -0.3043  0.2502
16885TIP3    H172070   3.592   5.436   2.340 -0.4651  0.3185  0.4114
16885TIP3    H272071   3.523   5.309   2.384  0.3796 -0.1744  0.3380
16886TIP3   OH272072   5.555   5.652  15.497 -0.2440 -0.3309 -0.6721
16886TIP3    H172073   5.484   5.684  15.442 -1.5185 -1.1545  0.4363
16886TIP3    H272074   5.559   5.715  15.570  0.2618 -0.2174 -0.7911
16887TIP3   OH272075   4.866   4.073   5.901  0.1969  0.2608 -0.0740
16887TIP3    H172076   4.842   3.988   5.939  1.6444  0.0500  0.4478
16887TIP3    H272077   4.894   4.125   5.977  0.8666  0.6468 -0.5800
16888TIP3   OH272078   1.192   6.465   3.711  0.2932 -0.0333 -0.0013
16888TIP3    H172079   1.151   6.512   3.783  0.8337 -0.2429  0.4559
16888TIP3    H272080   1.120   6.424   3.664 -0.2806  1.9011 -0.9101
16889TIP3   OH272081   2.093   6.391   1.140 -0.2317  0.3066 -0.2685
16889TIP3    H172082   2.078   6.356   1.228  1.1463  0.6783  0.1403
16889TIP3    H272083   2.184   6.371   1.122 -0.5607  0.0449 -1.7199
16890TIP3   OH272084   0.511   3.206  11.445  0.2325 -0.0008  0.0186
16890TIP3    H172085   0.472   3.190  11.531 -0.8074  0.4572 -0.3519
16890TIP3    H272086   0.591   3.254  11.463  0.5479 -0.7802  0.7838
16891TIP3   OH272087   3.764   4.385   4.873 -0.2265  0.0389 -0.0066
16891TIP3    H172088   3.692   4.323   4.882  0.4486 -0.9509 -1.0985
16891TIP3    H272089   3.725   4.462   4.832 -0.4239 -1.0598 -2.0071
16892TIP3   OH272090   0.432   1.299  12.484  0.5969 -0.1780 -0.0223
16892TIP3    H172091   0.432   1.204  12.472  0.9080  0.0210 -2.0862
16892TIP3    H272092   0.525   1.323  12.481  0.5263  0.1777  0.6170
16893TIP3   OH272093   5.804   0.535  14.786  0.2375  0.2238 -0.6344
16893TIP3    H172094   5.785   0.505  14.697  0.1967  0.2580 -0.6373
16893TIP3    H272095   5.723   0.577  14.815 -0.3504 -1.3211  0.0653
16894TIP3   OH272096   0.574   2.787  12.838 -0.1736 -0.1909  0.7973
16894TIP3    H172097   0.508   2.723  12.809 -0.6438  0.8254 -0.5075
16894TIP3    H272098   0.645   2.734  12.874  0.3482 -1.6272 -2.0659
16895TIP3   OH272099   6.709   2.920  15.939  0.4704  0.0059  0.0926
16895TIP3    H172100   6.768   2.994  15.944 -0.1667  0.5541 -0.3045
16895TIP3    H272101   6.766   2.844  15.928  1.1198  0.4485  0.3590
16896TIP3   OH272102   1.257   5.392  14.968 -0.5924 -0.6508  0.0810
16896TIP3    H172103   1.166   5.388  14.996 -0.6578  1.1910  0.2798
16896TIP3    H272104   1.272   5.484  14.946  0.9024 -1.1080 -1.0767
16897TIP3   OH272105   6.384   5.281  16.180  0.0090  0.1260 -0.0542
16897TIP3    H172106   6.469   5.307  16.216 -1.6899  2.7904  2.5442
16897TIP3    H272107   6.362   5.353  16.120 -0.8964  0.0597  0.1959
16898TIP3   OH272108   1.430   3.873   2.871 -0.5762 -0.3937 -0.3252
16898TIP3    H172109   1.418   3.921   2.788  1.1822 -1.5827 -1.3343
16898TIP3    H272110   1.370   3.800   2.865 -1.1271  0.0362 -0.1182
16899TIP3   OH272111   2.610   5.972  12.790  0.0249  0.5430 -0.1794
16899TIP3    H172112   2.668   5.926  12.851  0.3536 -0.4735 -1.2186
16899TIP3    H272113   2.534   5.996  12.843 -0.2052 -1.2851  0.4089
16900TIP3   OH272114   0.551   5.720  14.455  0.1903  0.2011  0.2342
16900TIP3    H172115   0.544   5.625  14.452 -1.1829  0.2984 -0.8176
16900TIP3    H272116   0.601   5.738  14.534  1.8456 -1.4427 -0.3703
16901TIP3   OH272117   0.778   0.104  13.414 -0.4171 -0.1373 -0.3951
16901TIP3    H172118   0.692   0.145  13.404 -0.3477 -0.1559 -1.1228
16901TIP3    H272119   0.817   0.109  13.327  0.0506 -0.7326 -0.2248
16902TIP3   OH272120   6.132   3.039  13.710 -0.5883  0.1203  0.3886
16902TIP3    H172121   6.064   3.025  13.775 -1.0759  1.5955  0.2358
16902TIP3    H272122   6.112   3.125  13.673  2.5003  1.6370  1.8172
16903TIP3   OH272123   4.626   4.456   4.963 -0.3850  0.5571 -0.3052
16903TIP3    H172124   4.686   4.470   4.889  0.8390 -1.2535  0.2604
16903TIP3    H272125   4.580   4.374   4.941 -0.9381  0.6845  0.3479
16904TIP3   OH272126   3.084   5.017   5.922  0.5548 -1.0877 -0.4524
16904TIP3    H172127   2.994   5.023   5.952  1.3351  1.4754  1.7587
16904TIP3    H272128   3.100   5.100   5.878  2.5385 -0.2423  1.6414
16905TIP3   OH272129   3.839   5.404   1.246 -0.1600 -0.1367 -0.3347
16905TIP3    H172130   3.909   5.340   1.231  0.3508  0.7968 -2.2703
16905TIP3    H272131   3.759   5.352   1.248  0.3484 -0.9510 -0.7544
16906TIP3   OH272132   4.248   6.042   2.880 -0.1258 -0.2452  0.0499
16906TIP3    H172133   4.248   5.968   2.942 -0.1745 -1.4871 -1.3669
16906TIP3    H272134   4.309   6.105   2.918  0.8313 -1.5378  0.7401
16907TIP3   OH272135   4.640   5.723  17.507 -0.0506 -0.3138 -0.1014
16907TIP3    H172136   4.567   5.676  17.466  1.8475 -2.9298 -0.6965
16907TIP3    H272137   4.620   5.720  17.600 -0.2835 -1.8292 -0.1732
16908TIP3   OH272138   3.094   4.693   0.584  0.3876  0.1435  0.4536
16908TIP3    H172139   3.028   4.763   0.576 -0.4121 -0.6439  0.0626
16908TIP3    H272140   3.044   4.614   0.603  1.1054 -0.7225 -1.1035
16909TIP3   OH272141   1.413   3.480  10.702  0.5684 -0.5543  0.7352
16909TIP3    H172142   1.384   3.483  10.611  1.1816 -0.5972  0.5377
16909TIP3    H272143   1.484   3.543  10.707  0.8758 -0.9204  1.0630
16910TIP3   OH272144   6.695   0.626  15.498  0.2315 -0.3192 -0.3623
16910TIP3    H172145   6.737   0.617  15.412  0.6258 -0.7017 -0.1330
16910TIP3    H272146   6.648   0.544  15.511  0.8011 -0.5786  0.1174
16911TIP3   OH272147   2.188   1.889  14.202  0.0459  0.4175 -0.0303
16911TIP3    H172148   2.107   1.896  14.151 -0.0327  1.2397  0.1785
16911TIP3    H272149   2.158   1.893  14.293  0.2347 -0.3833  0.0690
16912TIP3   OH272150   0.284   5.152   0.902  0.2148  0.4903 -0.3533
16912TIP3    H172151   0.215   5.113   0.955 -0.0858  1.7867  0.2446
16912TIP3    H272152   0.247   5.156   0.814 -0.4011  1.0011 -0.0735
16913TIP3   OH272153   3.844   6.394   0.656 -0.1216  0.2906  0.2729
16913TIP3    H172154   3.790   6.417   0.581 -2.9237  0.0850  2.0633
16913TIP3    H272155   3.783   6.350   0.716  2.4751 -1.5266  1.7412
16914TIP3   OH272156   1.085   6.441   1.146  0.2495 -0.0450 -0.3961
16914TIP3    H172157   1.140   6.408   1.075  2.6081  1.2448  0.7292
16914TIP3    H272158   1.046   6.521   1.111  1.8826  0.9186 -0.1273
16915TIP3   OH272159   6.199   2.291  13.531 -0.3100 -0.4276  0.2139
16915TIP3    H172160   6.223   2.264  13.619 -0.4000 -0.7590  0.1378
16915TIP3    H272161   6.276   2.340  13.500 -0.8480  0.9756  1.0082
16916TIP3   OH272162   1.920   3.862  11.624 -0.6773  0.0951 -0.4244
16916TIP3    H172163   1.947   3.893  11.711 -1.1385 -1.2632  0.2461
16916TIP3    H272164   1.909   3.941  11.572 -2.4525  1.1150  1.3666
16917TIP3   OH272165   2.538   6.158   4.420  0.1723  0.3687  0.1966
16917TIP3    H172166   2.623   6.117   4.435 -0.2135 -1.0176 -1.1888
16917TIP3    H272167   2.486   6.133   4.497  0.5516 -0.0648  0.3199
16918TIP3   OH272168   0.884   4.195   3.659  0.2083 -0.2323 -0.3102
16918TIP3    H172169   0.962   4.230   3.702  1.8150 -1.6560 -1.8755
16918TIP3    H272170   0.909   4.106   3.633 -1.1517  0.0139 -2.7773
16919TIP3   OH272171   3.782   3.450   2.460 -0.0776  0.5931  0.4261
16919TIP3    H172172   3.720   3.523   2.460  1.2126  1.7562 -0.8691
16919TIP3    H272173   3.847   3.473   2.527  1.2371  1.5456 -1.0723
16920TIP3   OH272174   1.876   3.543  16.827 -0.0297  0.7873 -0.5105
16920TIP3    H172175   1.930   3.537  16.748  0.4095  2.6203 -0.3815
16920TIP3    H272176   1.794   3.582  16.797 -0.3502  0.3251 -0.2590
16921TIP3   OH272177   4.716   2.804   1.590 -0.1334 -0.3352 -0.5034
16921TIP3    H172178   4.681   2.838   1.673  1.5115 -1.8121  0.8731
16921TIP3    H272179   4.777   2.872   1.561 -0.0058 -0.2219  0.0165
16922TIP3   OH272180   2.788   5.829  12.213  0.2684  0.2905  0.2573
16922TIP3    H172181   2.716   5.893  12.214  1.4548  1.6851 -0.0909
16922TIP3    H272182   2.802   5.810  12.120 -0.5265 -1.0424  0.3872
16923TIP3   OH272183   1.876   3.530   0.410  0.0461  0.0384  0.9761
16923TIP3    H172184   1.950   3.470   0.421  1.1315  1.5562  2.5050
16923TIP3    H272185   1.844   3.545   0.498 -1.7303 -0.0790  0.3965
16924TIP3   OH272186   2.553   5.209   1.327  0.7033 -0.4247 -0.7859
16924TIP3    H172187   2.561   5.183   1.418 -0.7809  0.8748 -0.2425
16924TIP3    H272188   2.587   5.298   1.324 -0.6650  0.1239 -1.1385
16925TIP3   OH272189   0.601   5.311  14.764 -0.0887 -0.1600 -0.1685
16925TIP3    H172190   0.669   5.305  14.696 -0.2059 -1.6419 -0.1845
16925TIP3    H272191   0.553   5.391  14.742  0.8423  0.2187 -0.9128
16926TIP3   OH272192   4.756   3.377  15.687  0.4482 -0.1302 -0.4081
16926TIP3    H172193   4.730   3.469  15.673 -0.2254 -0.4366 -1.3404
16926TIP3    H272194   4.848   3.382  15.713  1.0998  0.7335 -2.5662
16927TIP3   OH272195   3.480   2.901  17.542  0.3018  0.5057 -0.1396
16927TIP3    H172196   3.509   2.811  17.523 -0.5964  0.3403 -0.7926
16927TIP3    H272197   3.552   2.939  17.591  0.6165 -0.6476  0.3382
16928TIP3   OH272198   6.324   2.133  15.802  0.3473  0.1509 -0.2862
16928TIP3    H172199   6.283   2.079  15.734 -2.2857 -0.0005  1.2970
16928TIP3    H272200   6.314   2.223  15.770 -1.5792  0.1414  0.1686
16929TIP3   OH272201   3.849   3.765  15.439  0.0047 -0.0846 -0.0024
16929TIP3    H172202   3.781   3.813  15.392  0.4942 -1.2899 -2.0429
16929TIP3    H272203   3.807   3.684  15.468  0.4606 -0.7177 -1.0486
16930TIP3   OH272204   3.315   2.267  13.448  0.4039  0.2283 -0.2196
16930TIP3    H172205   3.229   2.264  13.407 -0.3868 -0.4232  1.4002
16930TIP3    H272206   3.358   2.186  13.419  0.0253 -0.0110 -0.1211
16931TIP3   OH272207   1.582   0.049  15.601  0.4563 -0.0021 -0.1292
16931TIP3    H172208   1.637  -0.006  15.658 -0.0818  0.5272  0.9327
16931TIP3    H272209   1.608   0.139  15.623 -1.8082  0.3474  1.5085
16932TIP3   OH272210   6.463   4.461   4.647  0.4334  0.2869  0.3080
16932TIP3    H172211   6.426   4.530   4.702  1.4402  1.0242  0.0947
16932TIP3    H272212   6.395   4.393   4.643 -0.5943  1.2823  0.4904
16933TIP3   OH272213   6.231   6.252  14.689 -0.6414 -0.3050 -0.1735
16933TIP3    H172214   6.141   6.286  14.684 -1.0288 -1.1244  0.8434
16933TIP3    H272215   6.267   6.267  14.602 -1.5261  0.6974 -0.3863
16934TIP3   OH272216   5.170   5.725   0.908  0.1330 -0.3870 -0.2439
16934TIP3    H172217   5.096   5.678   0.871  0.3973  0.0874 -1.4071
16934TIP3    H272218   5.212   5.768   0.833  0.7683  0.4804  0.5768
16935TIP3   OH272219   6.633   3.035  14.284 -0.2262 -0.5014 -0.3251
16935TIP3    H172220   6.568   2.988  14.232 -0.7159 -2.5860  1.9841
16935TIP3    H272221   6.583   3.101  14.331  0.3231  1.9140 -2.8150
16936TIP3   OH272222   0.384   1.872  15.103  0.0269 -0.1887 -0.4262
16936TIP3    H172223   0.427   1.958  15.108  1.2386 -0.8196  0.3038
16936TIP3    H272224   0.334   1.866  15.184  2.2112 -1.3189  0.9059
16937TIP3   OH272225   5.900   0.566   5.407  0.3127 -0.2168  0.1658
16937TIP3    H172226   5.969   0.608   5.355 -1.2167 -0.8446 -2.6113
16937TIP3    H272227   5.841   0.638   5.431  1.2181  0.1329  1.4326
16938TIP3   OH272228   5.680   6.516  12.674  0.2023  0.2177 -0.0452
16938TIP3    H172229   5.617   6.572  12.720 -0.4281  0.1167 -0.7687
16938TIP3    H272230   5.626   6.450  12.631  0.6451  1.0190 -1.9431
16939TIP3   OH272231   5.141   6.444   0.303 -0.4840 -0.1946  0.0970
16939TIP3    H172232   5.182   6.362   0.331 -1.6820 -2.3088 -3.6479
16939TIP3    H272233   5.210   6.489   0.253  0.3684  1.5426  2.6531
16940TIP3   OH272234   3.937   3.862  16.491  0.2392  0.3240 -0.1828
16940TIP3    H172235   4.017   3.817  16.519 -0.9903 -1.0504  1.3197
16940TIP3    H272236   3.954   3.887  16.400  2.5926  0.6448  0.2887
16941TIP3   OH272237   3.644   0.745  13.454  0.0501  0.2432 -0.0962
16941TIP3    H172238   3.661   0.838  13.472  2.0250 -0.3583  1.4224
16941TIP3    H272239   3.615   0.709  13.538 -0.5585 -0.5683 -0.6353
16942TIP3   OH272240   2.108   3.694   4.449  0.0493  0.1994  0.1163
16942TIP3    H172241   2.037   3.643   4.487 -0.8426  1.1587 -0.2044
16942TIP3    H272242   2.069   3.779   4.429  1.5009  1.0641  0.7174
16943TIP3   OH272243   4.045   3.140   1.547  0.7338 -0.7566 -0.1875
16943TIP3    H172244   3.956   3.108   1.563  0.3094  1.3145  2.1454
16943TIP3    H272245   4.095   3.115   1.624  1.5574  0.1338 -0.4095
16944TIP3   OH272246   2.848   6.499   3.410 -0.6648  0.5903  0.0194
16944TIP3    H172247   2.881   6.503   3.320 -4.0446  0.5693 -1.3369
16944TIP3    H272248   2.821   6.409   3.422 -1.4390  0.8885  0.6014
16945TIP3   OH272249   2.688   4.859   3.829  0.6446  0.1014 -0.0387
16945TIP3    H172250   2.707   4.918   3.902  0.5250 -0.1995  0.2367
16945TIP3    H272251   2.764   4.868   3.771  0.0751  1.4523 -0.6161
16946TIP3   OH272252   5.675   5.249  15.955  0.8582  0.6721 -0.6340
16946TIP3    H172253   5.586   5.249  15.992  0.7755  1.7835 -0.7918
16946TIP3    H272254   5.712   5.166  15.983 -0.1420  0.3052 -0.3341
16947TIP3   OH272255   2.635   0.333   6.035 -0.1975 -0.3431  0.0836
16947TIP3    H172256   2.553   0.287   6.052 -0.9470  0.1317 -2.0016
16947TIP3    H272257   2.615   0.425   6.050  0.2801 -0.3196  0.6279
16948TIP3   OH272258   5.524   4.212  13.369 -0.5695 -0.7809 -0.3229
16948TIP3    H172259   5.588   4.142  13.354 -0.1328 -0.1636 -1.4761
16948TIP3    H272260   5.484   4.191  13.453  0.8222 -1.4336  0.1998
16949TIP3   OH272261   2.971   5.033   0.418 -0.1705  0.2789 -0.3371
16949TIP3    H172262   2.882   5.017   0.388 -0.5186  1.5508 -0.0445
16949TIP3    H272263   3.025   4.969   0.371 -1.1914 -0.2965 -0.7427
16950TIP3   OH272264   3.391   3.025   4.720  0.0058 -0.0438 -0.0189
16950TIP3    H172265   3.473   2.979   4.703 -0.1216  0.0783 -1.0506
16950TIP3    H272266   3.324   2.957   4.716 -0.0149 -0.0322  0.1283
16951TIP3   OH272267   3.779   2.224  11.664  0.4517 -0.1124  0.0122
16951TIP3    H172268   3.818   2.290  11.722  0.0084  0.5248 -0.4017
16951TIP3    H272269   3.852   2.168  11.639  0.6540 -0.4127  1.1901
16952TIP3   OH272270   1.150   0.606  15.401 -0.2071  0.0648 -0.0645
16952TIP3    H172271   1.151   0.699  15.378  0.2775 -0.0412 -0.4889
16952TIP3    H272272   1.169   0.604  15.495  0.0546  0.3785 -0.1075
16953TIP3   OH272273   4.142   5.643  17.508 -0.2868  0.5835  0.0063
16953TIP3    H172274   4.141   5.547  17.502  1.0183  0.5705 -0.1732
16953TIP3    H272275   4.212   5.662  17.570 -0.7161  1.4243  0.2448
16954TIP3   OH272276   0.738   3.790   0.405 -0.1581  0.3053  0.2069
16954TIP3    H172277   0.819   3.757   0.365 -1.3723 -1.8948 -0.5417
16954TIP3    H272278   0.738   3.754   0.493 -0.6152 -0.1975  0.0020
16955TIP3   OH272279   5.349   2.283  15.005  0.3154 -0.5595 -0.1366
16955TIP3    H172280   5.305   2.297  15.089 -0.6166 -2.8813 -0.1493
16955TIP3    H272281   5.433   2.242  15.029  0.2183 -0.8581 -0.2973
16956TIP3   OH272282   1.199   0.908   1.463  0.4612 -0.1483  0.5950
16956TIP3    H172283   1.166   0.977   1.520  1.3795  1.0302 -0.2437
16956TIP3    H272284   1.222   0.836   1.523 -1.1845 -0.0373  1.4090
16957TIP3   OH272285   3.555   2.982  11.040  0.4087  0.2226  0.3807
16957TIP3    H172286   3.550   2.904  10.986  0.8089  0.3381  0.1727
16957TIP3    H272287   3.548   2.950  11.130 -1.1193  0.1099  0.2447
16958TIP3   OH272288   6.149   3.268  13.962 -0.5567 -0.3167  0.8075
16958TIP3    H172289   6.062   3.283  13.998 -1.2091  0.3964 -0.9060
16958TIP3    H272290   6.150   3.321  13.882  1.6052  0.0213  1.0065
16959TIP3   OH272291   0.264   1.707   2.734 -0.6254 -0.1712  0.3410
16959TIP3    H172292   0.312   1.767   2.790 -1.3742 -1.2044  2.1617
16959TIP3    H272293   0.200   1.762   2.689 -0.4385  0.5766  0.9740
16960TIP3   OH272294   4.885   5.436   0.969  1.0178  0.2136 -0.0352
16960TIP3    H172295   4.824   5.364   0.954  1.2678 -0.6542  2.6295
16960TIP3    H272296   4.871   5.495   0.895 -1.2366 -1.1737 -0.8112
16961TIP3   OH272297   0.263   2.779   5.074 -0.5897  0.2459 -0.3860
16961TIP3    H172298   0.348   2.750   5.042  0.0612  1.3112  0.3089
16961TIP3    H272299   0.204   2.706   5.056  0.6511 -0.8699 -0.0705
16962TIP3   OH272300   5.934   5.306   5.061 -0.6708  0.2700  0.7582
16962TIP3    H172301   5.904   5.309   5.152 -0.9537 -0.5251  0.7015
16962TIP3    H272302   5.862   5.262   5.014 -0.5668  0.7558  0.1360
16963TIP3   OH272303   5.960   2.470   5.488  0.0905  0.1924  0.3520
16963TIP3    H172304   6.055   2.468   5.477  0.2112  1.1153  1.1013
16963TIP3    H272305   5.946   2.433   5.575 -0.1219  1.2772  0.7896
16964TIP3   OH272306   6.107   4.876  11.689  0.3749 -0.6905 -0.1522
16964TIP3    H172307   6.078   4.802  11.741  1.2467  0.1308  1.6023
16964TIP3    H272308   6.201   4.882  11.706  0.2897  0.9400 -0.0732
16965TIP3   OH272309   1.645   4.781  11.174 -0.4490 -0.0936  0.2649
16965TIP3    H172310   1.559   4.752  11.203 -0.3380  0.6906  1.4323
16965TIP3    H272311   1.667   4.854  11.232  0.7227  0.1326 -0.4311
16966TIP3   OH272312   2.846   3.883  12.682 -0.2708  0.0725  0.0012
16966TIP3    H172313   2.795   3.896  12.602 -0.3991  0.8450  0.1998
16966TIP3    H272314   2.923   3.939  12.670 -1.0141  1.3651  1.0465
16967TIP3   OH272315   6.696   3.380  10.883  0.0140 -0.5281 -0.8662
16967TIP3    H172316   6.624   3.347  10.829 -0.5075 -1.1855  0.2023
16967TIP3    H272317   6.653   3.431  10.951  0.4864 -1.4457  0.1532
16968TIP3   OH272318   1.519   5.654  11.568  0.0453  0.3142 -0.4064
16968TIP3    H172319   1.476   5.683  11.487 -0.1229 -0.4432 -0.5982
16968TIP3    H272320   1.600   5.613  11.538  0.1086  0.2686 -0.1731
16969TIP3   OH272321   6.333   4.765   1.868 -0.7030  0.1025 -0.6905
16969TIP3    H172322   6.276   4.783   1.943 -1.2673 -0.9702 -0.8527
16969TIP3    H272323   6.275   4.728   1.802 -0.3031  1.4333 -1.8428
16970TIP3   OH272324   6.348   5.093   0.973  0.0264  0.1897  0.3522
16970TIP3    H172325   6.353   5.152   1.048  0.4612  0.5235  0.0711
16970TIP3    H272326   6.256   5.067   0.968 -0.2540  1.1403  0.2624
16971TIP3   OH272327   2.747   5.230  13.352 -0.1427  0.1646  0.3755
16971TIP3    H172328   2.740   5.182  13.434 -0.1871 -0.5320 -0.0292
16971TIP3    H272329   2.685   5.187  13.293  1.5088 -0.8102 -0.7218
16972TIP3   OH272330   3.227   6.055   2.818  0.7056 -0.1783 -0.3624
16972TIP3    H172331   3.277   6.095   2.890  1.4520  0.5096 -1.2428
16972TIP3    H272332   3.137   6.052   2.851  1.0026  0.2873  0.5398
16973TIP3   OH272333   2.184   0.849  13.717 -0.2017  0.0971  0.5985
16973TIP3    H172334   2.216   0.934  13.747 -0.2986  0.2745  0.2086
16973TIP3    H272335   2.261   0.792  13.719  0.3832  0.7559 -1.2149
16974TIP3   OH272336   6.526   1.600  13.463 -0.4191 -0.5445 -0.2509
16974TIP3    H172337   6.507   1.656  13.538 -0.8055 -0.4153 -0.4441
16974TIP3    H272338   6.441   1.569  13.433 -0.4833  1.0072 -1.8617
16975TIP3   OH272339   0.279   0.040  16.353 -0.0757  0.0172  0.2095
16975TIP3    H172340   0.325   0.098  16.414  0.6795  1.0365 -1.2543
16975TIP3    H272341   0.217   0.098  16.308 -1.1938 -0.8841  0.5381
16976TIP3   OH272342   1.621   0.678   3.557 -0.1834 -0.0231 -0.1434
16976TIP3    H172343   1.707   0.718   3.544 -0.4251  0.2661 -0.9287
16976TIP3    H272344   1.600   0.639   3.473  0.3649 -2.5130  0.8025
16977TIP3   OH272345   3.354   0.327  11.931 -0.6149  0.5476 -0.5425
16977TIP3    H172346   3.436   0.277  11.928 -0.0249  1.3948  0.8215
16977TIP3    H272347   3.352   0.374  11.848  0.1749  0.3565 -0.6768
16978TIP3   OH272348   2.482   1.267   3.163  0.0878  0.4979 -0.3604
16978TIP3    H172349   2.400   1.298   3.200 -0.5545 -0.4801 -0.9222
16978TIP3    H272350   2.547   1.285   3.231 -1.3437 -3.1184  2.2855
16979TIP3   OH272351   6.393   2.691   2.562  0.0872  0.1726  0.4697
16979TIP3    H172352   6.469   2.744   2.585  0.2074  0.1497  0.1343
16979TIP3    H272353   6.429   2.604   2.544 -0.0939  0.0042  0.9037
16980TIP3   OH272354   2.496   2.255   2.890 -0.3196 -0.0555 -0.2673
16980TIP3    H172355   2.404   2.277   2.871  0.0418  0.9356 -0.9917
16980TIP3    H272356   2.534   2.338   2.919  0.1724 -0.6324  0.7923
16981TIP3   OH272357   5.250   0.903   6.345 -0.2223 -0.4107  0.7383
16981TIP3    H172358   5.262   0.813   6.316  1.0220  0.0735 -0.4134
16981TIP3    H272359   5.252   0.899   6.440 -0.2673 -1.5976  0.7004
16982TIP3   OH272360   1.926   1.570  15.212  0.5367 -0.1851  0.9751
16982TIP3    H172361   1.936   1.664  15.228 -0.1934  0.7102 -2.7573
16982TIP3    H272362   1.834   1.553  15.231  0.6578 -0.1539  1.6110
16983TIP3   OH272363   0.140   1.840   5.161 -0.3890  0.0516  0.3655
16983TIP3    H172364   0.070   1.780   5.136  0.9808 -1.6526  0.3994
16983TIP3    H272365   0.123   1.919   5.112 -1.1982 -1.0590 -1.2227
16984TIP3   OH272366   1.691   1.725  14.382  0.2460  0.3141  0.1874
16984TIP3    H172367   1.779   1.699  14.357  1.1665  2.2502  1.2165
16984TIP3    H272368   1.650   1.644  14.413  1.8516 -0.5069  0.2527
16985TIP3   OH272369   2.786   2.323  15.912  0.1311 -0.3013  0.4249
16985TIP3    H172370   2.802   2.229  15.919  0.7186 -0.1391  1.4917
16985TIP3    H272371   2.872   2.363  15.928 -0.2519  0.4321  0.6837
16986TIP3   OH272372   6.305   1.916   6.045  0.0807 -0.3966  0.0488
16986TIP3    H172373   6.373   1.854   6.017  0.2007 -0.1584 -0.1947
16986TIP3    H272374   6.246   1.864   6.099  0.8851 -0.4345  0.9223
16987TIP3   OH272375   6.658   3.907  14.875  0.0767  0.0444 -0.1579
16987TIP3    H172376   6.607   3.830  14.898  1.1982 -1.0932 -1.2869
16987TIP3    H272377   6.685   3.943  14.959 -0.9235 -0.4650  0.4022
16988TIP3   OH272378   5.502   0.171   4.242 -0.0090 -0.0121  0.4618
16988TIP3    H172379   5.444   0.183   4.317 -0.3582 -1.9478  0.5392
16988TIP3    H272380   5.578   0.126   4.278  0.5643  0.5256 -0.0580
16989TIP3   OH272381   5.870   4.076   2.388 -0.0557 -0.3768 -0.0108
16989TIP3    H172382   5.804   4.007   2.396  1.3757 -1.7606  0.3196
16989TIP3    H272383   5.904   4.067   2.299 -1.9958  1.9762 -1.0927
16990TIP3   OH272384   2.141   4.350   4.564  0.4163  0.1733  0.1090
16990TIP3    H172385   2.187   4.282   4.613  1.0051  1.1111  0.8728
16990TIP3    H272386   2.199   4.370   4.491 -0.0463 -0.5699 -0.4846
16991TIP3   OH272387   2.707   1.718  17.534 -0.2864 -0.4281 -0.0382
16991TIP3    H172388   2.658   1.795  17.505  0.1378  0.2586  0.9852
16991TIP3    H272389   2.794   1.729  17.497  0.2587  0.4547  1.4263
16992TIP3   OH272390   3.891   0.818  12.443 -0.0468 -0.6220 -0.2424
16992TIP3    H172391   3.928   0.775  12.366  0.6942  0.4583 -0.5165
16992TIP3    H272392   3.835   0.887  12.408  1.4573  0.8677  0.1197
16993TIP3   OH272393   5.008   3.779   0.175  0.5599 -0.0401  0.0722
16993TIP3    H172394   4.967   3.830   0.105  0.7547 -1.6488 -1.3039
16993TIP3    H272395   4.944   3.781   0.246 -0.8857 -0.5250 -1.1509
16994TIP3   OH272396   1.047   4.998  16.613  0.4331 -0.0886  0.1186
16994TIP3    H172397   1.100   4.919  16.609 -1.2480 -1.4295  2.1948
16994TIP3    H272398   0.958   4.968  16.596 -0.2552  1.3195  1.0585
16995TIP3   OH272399   4.566   6.605  16.969 -0.1800  0.1331 -0.3867
16995TIP3    H172400   4.599   6.570  16.886  2.2118 -0.8506  0.8701
16995TIP3    H272401   4.609   6.690  16.978  0.5868 -0.3164  0.3817
16996TIP3   OH272402   1.610   5.767   2.351  0.9544 -0.0867 -0.0512
16996TIP3    H172403   1.608   5.701   2.281 -0.7570 -0.6283  0.4807
16996TIP3    H272404   1.696   5.756   2.391  1.5258 -0.5327 -1.3409
16997TIP3   OH272405   2.214   5.491  17.383  0.3628  0.0974 -0.0635
16997TIP3    H172406   2.196   5.410  17.431  0.1793 -1.2665 -2.2805
16997TIP3    H272407   2.128   5.522  17.355  0.5038  0.5234 -0.0221
16998TIP3   OH272408   6.229   2.875   1.549 -0.2809 -0.3358  0.4886
16998TIP3    H172409   6.314   2.862   1.508  1.2958  3.3050  2.2266
16998TIP3    H272410   6.169   2.891   1.476  0.8951 -0.9696 -0.6561
16999TIP3   OH272411   1.369   1.364  17.451 -0.6440  0.5839 -0.1071
16999TIP3    H172412   1.330   1.292  17.500 -0.0270  0.0091 -0.4525
16999TIP3    H272413   1.312   1.374  17.374 -1.8266  1.7281  0.8567
17000TIP3   OH272414   1.041   2.105  11.432  0.6475 -0.3568  0.1554
17000TIP3    H172415   1.046   2.111  11.527 -0.2036 -1.6418  0.3050
17000TIP3    H272416   1.092   2.180  11.401  3.9087 -1.7895  1.5819
17001TIP3   OH272417   1.468   4.355   4.045  0.4354 -0.2464  0.0348
17001TIP3    H172418   1.509   4.358   4.132 -0.2904  1.4052  0.3632
17001TIP3    H272419   1.378   4.383   4.060  0.3955  0.4365 -1.2943
17002TIP3   OH272420   1.251   5.871   5.144 -0.0559  0.2788  0.3922
17002TIP3    H172421   1.254   5.849   5.237 -0.0167  1.9123  0.7906
17002TIP3    H272422   1.339   5.850   5.111  0.0585  0.1055  0.8020
17003TIP3   OH272423   2.312   0.677  15.258  0.1171 -0.1178  0.1462
17003TIP3    H172424   2.289   0.619  15.185 -1.7317  0.6863  0.0226
17003TIP3    H272425   2.387   0.727  15.226 -0.2964 -0.1868 -0.9842
17004TIP3   OH272426   6.377   5.046   5.578  0.0845  0.0573  0.0530
17004TIP3    H172427   6.452   5.092   5.616 -0.8951  2.0192 -0.2864
17004TIP3    H272428   6.378   5.070   5.485 -0.4565 -0.6042 -0.1337
17005TIP3   OH272429   2.594   5.229  12.671  0.0638  0.0198 -0.0903
17005TIP3    H172430   2.514   5.196  12.713 -1.3403  1.9796 -1.0458
17005TIP3    H272431   2.629   5.153  12.623 -1.0010 -0.9853  0.6552
17006TIP3   OH272432   5.672   2.775  17.584 -0.2229 -0.4198  0.3001
17006TIP3    H172433   5.715   2.809  17.663 -0.7219 -1.0893  0.8788
17006TIP3    H272434   5.669   2.849  17.524 -0.8032  0.4129  1.3313
17007TIP3   OH272435   6.051   2.780  12.037  0.5322  0.1618 -0.0595
17007TIP3    H172436   6.001   2.848  11.992 -1.5119 -0.4988  1.0771
17007TIP3    H272437   6.108   2.744  11.969  0.4989  1.8952 -1.0717
17008TIP3   OH272438   0.151   3.297   0.945 -0.2644  0.3162  0.1094
17008TIP3    H172439   0.117   3.376   0.903 -1.4249  0.7803  1.8094
17008TIP3    H272440   0.218   3.328   1.006  0.3594 -0.1882 -0.3046
17009TIP3   OH272441   1.143   3.411   2.338 -0.5518  0.0282 -0.5012
17009TIP3    H172442   1.087   3.487   2.325 -1.7630 -0.7859 -0.2960
17009TIP3    H272443   1.202   3.411   2.262 -0.5425  1.1458 -0.5073
17010TIP3   OH272444   5.047   6.596   0.069  0.0707  0.1188  0.0936
17010TIP3    H172445   5.003   6.552   0.141  0.9895  1.2733  1.4262
17010TIP3    H272446   5.106   6.658   0.112  2.6360 -0.9847 -1.5797
17011TIP3   OH272447   2.896   0.471   4.191  0.4517 -0.7746 -0.0960
17011TIP3    H172448   2.975   0.433   4.229  0.3977 -0.2951  0.5126
17011TIP3    H272449   2.825   0.412   4.219  0.2750  0.0814  1.4104
17012TIP3   OH272450   5.080   5.242  14.419 -0.4555 -0.2239  0.4010
17012TIP3    H172451   5.052   5.163  14.465 -0.4624 -1.1178 -1.0848
17012TIP3    H272452   5.167   5.261  14.454 -0.8674 -0.2916  1.4927
17013TIP3   OH272453   0.383   5.373   3.332 -0.1852 -0.5740  0.3174
17013TIP3    H172454   0.382   5.309   3.261 -1.2581  1.9260 -2.0729
17013TIP3    H272455   0.301   5.357   3.379 -1.9181  0.7546 -2.0396
17014TIP3   OH272456   1.685   4.392  16.050 -0.2812  0.2180 -0.0135
17014TIP3    H172457   1.763   4.447  16.041  0.6550 -0.9652  0.4735
17014TIP3    H272458   1.639   4.401  15.967  1.4184 -0.5829 -1.0922
17015TIP3   OH272459   0.954   3.730   1.846  0.4042  0.0948 -0.0315
17015TIP3    H172460   0.993   3.654   1.803 -0.9431 -0.8761  0.3989
17015TIP3    H272461   0.880   3.753   1.791 -1.4055 -1.2161  1.6957
17016TIP3   OH272462   3.163   6.018  14.222 -0.1727 -0.0054 -0.4216
17016TIP3    H172463   3.104   6.088  14.251 -0.5642  0.2850 -1.8294
17016TIP3    H272464   3.230   6.063  14.170  0.8556 -0.4343  0.4997
17017TIP3   OH272465   4.617   1.865   1.193 -0.5238 -0.3963  0.5193
17017TIP3    H172466   4.710   1.881   1.210  0.1571 -3.1040 -0.1365
17017TIP3    H272467   4.577   1.951   1.193  1.7041  0.7279  2.4356
17018TIP3   OH272468   0.827   0.770  11.385  0.5812 -0.1521 -0.2758
17018TIP3    H172469   0.746   0.717  11.382  1.7436 -1.9709 -2.2215
17018TIP3    H272470   0.869   0.743  11.467  0.6321 -1.4650 -0.7128
17019TIP3   OH272471   4.606   3.999  12.424 -0.4591  0.4588 -0.0607
17019TIP3    H172472   4.605   3.921  12.480 -0.9482  0.4629 -0.0591
17019TIP3    H272473   4.527   3.991  12.371  0.9701 -0.5278 -2.1424
17020TIP3   OH272474   0.337   3.326   3.507  0.0351 -0.4798 -0.0265
17020TIP3    H172475   0.270   3.258   3.510  0.8485 -1.3468 -0.6691
17020TIP3    H272476   0.290   3.405   3.480 -1.0340 -0.6210  1.3233
17021TIP3   OH272477   4.448   3.802   4.332  0.5302  0.6484 -0.1308
17021TIP3    H172478   4.404   3.887   4.337 -0.7093 -0.0178  0.8311
17021TIP3    H272479   4.540   3.822   4.353  0.2446  1.7433  0.1553
17022TIP3   OH272480   1.973   0.937   5.501 -0.0956  0.0287 -0.4494
17022TIP3    H172481   1.920   0.867   5.539 -0.6007  1.7168  2.2111
17022TIP3    H272482   2.063   0.904   5.505 -0.3786 -0.6796  0.3515
17023TIP3   OH272483   6.022   1.645  16.612  0.1939 -0.3429 -0.3184
17023TIP3    H172484   6.112   1.641  16.580 -0.5526 -1.7812 -2.4863
17023TIP3    H272485   6.000   1.738  16.609  0.8710 -0.1998 -2.1171
17024TIP3   OH272486   4.405   6.491  17.583 -0.3970  0.0996  0.9503
17024TIP3    H172487   4.495   6.460  17.589  0.4010  1.7935 -0.9560
17024TIP3    H272488   4.405   6.548  17.506 -2.8674  0.9432  1.4937
17025TIP3   OH272489   3.409   2.137   5.552  0.1312  0.0543  0.3101
17025TIP3    H172490   3.395   2.222   5.593 -0.3244  0.0594  0.1586
17025TIP3    H272491   3.391   2.153   5.459 -1.8667 -0.6095  0.5358
17026TIP3   OH272492   1.930   5.738   5.178 -0.5926 -0.6307 -0.1381
17026TIP3    H172493   1.987   5.786   5.238 -0.6691  0.2627 -0.7708
17026TIP3    H272494   1.957   5.765   5.091 -1.5141 -0.7260 -0.4685
17027TIP3   OH272495   3.978   3.356   4.835 -0.2184 -0.4614 -0.3812
17027TIP3    H172496   4.056   3.350   4.891  0.8756 -0.4754 -1.8359
17027TIP3    H272497   3.909   3.388   4.893  1.4658  2.0647  0.4021
17028TIP3   OH272498   1.412   2.778  15.571 -0.1421  0.5256 -0.4378
17028TIP3    H172499   1.368   2.764  15.655  1.9606 -1.3223  0.4596
17028TIP3    H272500   1.427   2.873  15.567  0.2138  0.5905  1.5714
17029TIP3   OH272501   1.343   3.474  15.079  0.5100  0.9550  0.2602
17029TIP3    H172502   1.411   3.428  15.129 -0.9042  0.2250  1.6226
17029TIP3    H272503   1.271   3.411  15.073 -0.8117  2.3741  0.6392
17030TIP3   OH272504   0.709   1.997  14.235  0.3600  0.2860  0.2939
17030TIP3    H172505   0.709   1.924  14.296  0.1267 -0.9227 -1.0989
17030TIP3    H272506   0.618   2.027  14.233 -0.0109 -0.8249 -0.7442
17031TIP3   OH272507   2.967   4.631  16.623 -0.7528 -0.2711 -0.3620
17031TIP3    H172508   2.899   4.568  16.600 -0.7306 -0.8418  1.0065
17031TIP3    H272509   2.935   4.714  16.590 -2.6931 -0.3224  1.1995
17032TIP3   OH272510   4.642   0.393   5.614 -0.0336 -0.2717  0.5106
17032TIP3    H172511   4.593   0.439   5.682 -0.7167  0.1375 -0.2256
17032TIP3    H272512   4.688   0.323   5.659  0.3681  0.6309  1.5393
17033TIP3   OH272513   1.004   2.917  11.839  0.3412  0.1016  0.4099
17033TIP3    H172514   0.912   2.897  11.822  0.1471  0.8936  0.4809
17033TIP3    H272515   1.005   3.012  11.853  1.1886  0.1174  0.2745
17034TIP3   OH272516   2.146   0.854   4.698  0.5326  0.2961 -0.2455
17034TIP3    H172517   2.151   0.868   4.792  1.1771  0.6175 -0.3249
17034TIP3    H272518   2.059   0.815   4.684  0.3017  0.5537  0.4368
17035TIP3   OH272519   4.947   0.212   4.776  0.1150  0.1445  0.1111
17035TIP3    H172520   4.952   0.266   4.697  1.9719  0.9557  0.7244
17035TIP3    H272521   4.934   0.123   4.744 -1.6383  0.7579 -0.9798
17036TIP3   OH272522   2.278   1.350  17.261  0.3820  0.2567 -0.0950
17036TIP3    H172523   2.318   1.409  17.198  1.2415  0.0053  0.2088
17036TIP3    H272524   2.341   1.279  17.273 -0.8295 -1.0091 -0.8219
17037TIP3   OH272525   2.437   2.976  12.605  0.1963 -0.3139 -0.1347
17037TIP3    H172526   2.439   3.070  12.587  2.9817 -0.1214  0.7705
17037TIP3    H272527   2.368   2.942  12.548 -1.0459  2.2839 -0.3283
17038TIP3   OH272528   4.090   4.715   3.627 -0.3468  0.2070 -0.2239
17038TIP3    H172529   3.997   4.694   3.638 -0.4677  0.3739 -0.9015
17038TIP3    H272530   4.133   4.631   3.610 -0.4111  0.1671 -0.1893
17039TIP3   OH272531   0.407   6.121  12.232  0.0039 -0.1592 -0.4798
17039TIP3    H172532   0.384   6.119  12.139  0.2606  0.7738 -0.5837
17039TIP3    H272533   0.389   6.212  12.258  0.5267 -0.2509  0.2162
17040TIP3   OH272534   6.691   4.849  14.331  0.6540 -0.3906  0.4392
17040TIP3    H172535   6.707   4.933  14.373 -3.1553  1.0365 -0.5707
17040TIP3    H272536   6.771   4.798  14.347  2.4458  2.7742  2.5175
17041TIP3   OH272537   4.386   5.945   1.593  0.0193  0.2260  0.3174
17041TIP3    H172538   4.432   5.879   1.540 -0.1208 -0.6992  1.3144
17041TIP3    H272539   4.420   6.029   1.562  0.7027 -0.3447 -0.5175
17042TIP3   OH272540   5.292   6.580  16.385  0.1594  0.2727 -0.0277
17042TIP3    H172541   5.273   6.506  16.442 -0.1896 -0.6306 -1.2632
17042TIP3    H272542   5.214   6.587  16.329  1.5897 -0.7132 -2.2791
17043TIP3   OH272543   4.990   2.308  15.246 -0.2742 -0.0051 -0.0589
17043TIP3    H172544   4.907   2.331  15.288 -0.7658 -0.0277 -0.9813
17043TIP3    H272545   5.043   2.387  15.252 -0.5026  0.1321  0.2064
17044TIP3   OH272546   1.696   4.733   4.258 -0.0786  0.3039  0.3968
17044TIP3    H172547   1.706   4.823   4.289  1.2681  0.2244  0.2549
17044TIP3    H272548   1.752   4.681   4.315  0.2968 -0.2265 -0.4229
17045TIP3   OH272549   4.870   6.218  13.744  0.2575 -0.0321 -0.1556
17045TIP3    H172550   4.890   6.130  13.778 -0.3141 -0.4055 -0.7733
17045TIP3    H272551   4.800   6.204  13.682 -0.3418  0.9701  0.2768
17046TIP3   OH272552   1.750   3.715  16.160  0.0306  0.5433  0.3358
17046TIP3    H172553   1.700   3.654  16.215  0.3506  0.4034  0.4750
17046TIP3    H272554   1.683   3.763  16.111 -0.2176 -0.1389 -0.0122
17047TIP3   OH272555   3.848   4.329   3.686 -0.2016  0.3618  0.4124
17047TIP3    H172556   3.939   4.355   3.696 -0.5862  1.4928  1.2267
17047TIP3    H272557   3.848   4.270   3.611  1.0418  1.1781 -0.2756
17048TIP3   OH272558   2.696   0.361   5.599 -0.2081 -0.4677 -0.2843
17048TIP3    H172559   2.671   0.437   5.651 -1.2047  0.0987 -1.5224
17048TIP3    H272560   2.773   0.326   5.643 -0.9112  0.0553  1.4595
17049TIP3   OH272561   2.863   4.110  15.653  0.5457  0.0951 -0.4708
17049TIP3    H172562   2.800   4.109  15.581 -0.3512  0.0358  0.3028
17049TIP3    H272563   2.814   4.079  15.729  1.5044  0.0587  0.1541
17050TIP3   OH272564   3.189   1.222   4.395  0.1900 -0.1329 -0.2811
17050TIP3    H172565   3.280   1.193   4.384 -0.1166 -0.6190 -1.6181
17050TIP3    H272566   3.190   1.313   4.365  0.3464  0.0691  0.3058
17051TIP3   OH272567   3.769   3.154  13.093 -0.0042 -0.0599 -0.1952
17051TIP3    H172568   3.828   3.080  13.077  0.8231  0.7655 -1.1049
17051TIP3    H272569   3.826   3.224  13.124 -0.4230  0.8451 -1.3581
17052TIP3   OH272570   4.458   2.272  15.859  0.1317 -0.0233 -0.4872
17052TIP3    H172571   4.478   2.184  15.891 -0.0650 -0.6552 -2.0380
17052TIP3    H272572   4.532   2.325  15.887  1.2205 -1.1086 -1.2214
17053TIP3   OH272573   1.697   0.012  12.169  0.5991 -0.5602  0.2654
17053TIP3    H172574   1.785   0.036  12.138  0.0727  0.0932 -0.8085
17053TIP3    H272575   1.688  -0.081  12.148  1.0140 -0.6190  0.3426
17054TIP3   OH272576   2.534   2.008  13.383  0.0918 -0.0193  0.0027
17054TIP3    H172577   2.488   2.076  13.334  1.7965 -0.2284 -2.0418
17054TIP3    H272578   2.465   1.947  13.410 -1.1573  1.1758 -0.3709
17055TIP3   OH272579   2.404   1.799  16.444 -0.6003  0.3623 -0.2729
17055TIP3    H172580   2.389   1.783  16.537 -1.8965 -0.5136 -0.6011
17055TIP3    H272581   2.335   1.749  16.400 -0.2186  1.0356 -1.6903
17056TIP3   OH272582   5.104   2.516   0.462  0.0102 -1.0763  0.4169
17056TIP3    H172583   5.177   2.561   0.505  0.4630 -1.2609 -0.1474
17056TIP3    H272584   5.033   2.517   0.527 -0.3576  1.3735  0.0529
17057TIP3   OH272585   5.087   2.161  17.474 -0.5384 -0.3440 -0.0350
17057TIP3    H172586   5.168   2.212  17.477 -0.3930 -0.5929  1.9272
17057TIP3    H272587   5.020   2.224  17.449 -0.0396  0.3467  0.3139
17058TIP3   OH272588   3.792   2.931  13.676  0.1657 -0.1132  0.0903
17058TIP3    H172589   3.789   2.902  13.585  0.2422  0.7003 -0.1823
17058TIP3    H272590   3.709   2.976  13.689  0.2768  0.0234  0.3306
17059TIP3   OH272591   5.444   1.530   1.298  0.1779  0.2080 -0.9149
17059TIP3    H172592   5.442   1.574   1.213  1.0413 -0.8973 -1.5318
17059TIP3    H272593   5.534   1.501   1.308 -0.0065 -0.0174  0.2033
17060TIP3   OH272594   6.669   1.554   4.142  0.1119 -0.3870  0.0207
17060TIP3    H172595   6.671   1.483   4.206 -1.6925  1.1700  1.9461
17060TIP3    H272596   6.757   1.592   4.147  0.1293 -0.5243  1.3815
17061TIP3   OH272597   6.458   2.684   4.706 -0.2095  0.3592  0.3635
17061TIP3    H172598   6.512   2.732   4.643  3.6191 -2.2461  1.3115
17061TIP3    H272599   6.398   2.632   4.653 -0.0129  1.3913 -0.8968
17062TIP3   OH272600   0.379   6.376  12.620 -0.3326  0.3434  0.5326
17062TIP3    H172601   0.403   6.411  12.706 -1.0127  1.5532  0.2605
17062TIP3    H272602   0.424   6.292  12.614  0.0952  0.4591  1.8794
17063TIP3   OH272603   6.383   2.393   0.773  0.8655  0.4961  0.5963
17063TIP3    H172604   6.427   2.308   0.768  0.4841  0.2241  1.6358
17063TIP3    H272605   6.319   2.391   0.702  0.1730 -0.4924  1.2315
17064TIP3   OH272606   4.917   5.226  12.666  0.1501  0.2890  0.2426
17064TIP3    H172607   4.857   5.280  12.615  1.1632  1.4314  0.2179
17064TIP3    H272608   4.930   5.148  12.613 -2.2981 -0.5894  0.8299
17065TIP3   OH272609   5.030   3.514   5.878  0.3275  0.0746 -0.3017
17065TIP3    H172610   5.108   3.568   5.872 -0.7203  1.9335  1.5064
17065TIP3    H272611   4.963   3.573   5.912 -1.5148 -1.7939 -0.5224
17066TIP3   OH272612   2.136   2.977  16.350  0.3697  0.5649  0.2509
17066TIP3    H172613   2.198   2.978  16.422 -3.8448  3.7596  4.4814
17066TIP3    H272614   2.138   3.066  16.315 -0.2693  0.0937 -1.0533
17067TIP3   OH272615   5.351   2.288   1.521  0.5634 -0.2696 -0.2742
17067TIP3    H172616   5.259   2.277   1.542  0.9458 -1.8111  0.6938
17067TIP3    H272617   5.375   2.372   1.561  0.1981 -1.0710  1.7177
17068TIP3   OH272618   1.912   3.716   2.051  0.4197 -0.2346  0.1095
17068TIP3    H172619   1.857   3.684   2.122 -0.4228 -1.4831 -1.0723
17068TIP3    H272620   1.957   3.638   2.017  0.0950  0.1707 -1.3251
17069TIP3   OH272621   0.273   3.788   0.984  0.3937 -0.3548  0.0157
17069TIP3    H172622   0.235   3.870   1.014 -0.3303 -1.2773  1.7639
17069TIP3    H272623   0.262   3.790   0.888 -1.1710  0.8227  0.1808
17070TIP3   OH272624   5.484   1.337   5.869 -0.2199 -0.2457  0.1509
17070TIP3    H172625   5.555   1.396   5.896  0.2918 -0.9758  0.4348
17070TIP3    H272626   5.511   1.251   5.901 -1.5047 -0.4419  0.7726
17071TIP3   OH272627   6.025   6.029  12.008 -0.4854  0.7250 -0.5843
17071TIP3    H172628   6.036   6.123  12.023  0.7415  0.6764 -1.0411
17071TIP3    H272629   6.057   6.015  11.919  0.0790 -0.2419 -0.2454
17072TIP3   OH272630   6.642   0.095   5.872  0.3335  0.3406 -0.6251
17072TIP3    H172631   6.557   0.109   5.914 -0.2840  2.1150 -2.3047
17072TIP3    H272632   6.690   0.177   5.888  2.8079 -1.4304  2.3585
17073TIP3   OH272633   2.888   0.579   3.082 -0.2485 -0.0581  0.4917
17073TIP3    H172634   2.936   0.496   3.073 -1.3969 -0.6537 -0.4616
17073TIP3    H272635   2.835   0.584   3.003 -0.7700  1.2284  0.9050
17074TIP3   OH272636   6.009   3.254  12.009  0.0632 -0.1899 -0.2113
17074TIP3    H172637   6.062   3.285  12.082  1.8750 -2.8772 -0.2483
17074TIP3    H272638   6.046   3.297  11.932  1.2431 -0.9156 -0.0594
17075TIP3   OH272639   3.763   3.986   1.836 -0.2013 -0.3028  0.3700
17075TIP3    H172640   3.852   4.010   1.811 -0.4079 -0.1736 -0.2871
17075TIP3    H272641   3.725   4.065   1.873 -0.5437  0.1210 -0.8242
17076TIP3   OH272642   1.521   4.157  10.739 -0.1545 -0.2947 -0.5441
17076TIP3    H172643   1.496   4.187  10.826  0.8241  0.3724 -0.4716
17076TIP3    H272644   1.583   4.086  10.755  0.8437  0.5294 -0.6699
17077TIP3   OH272645   4.248   0.212  12.808  0.2605  0.5968 -0.8828
17077TIP3    H172646   4.219   0.182  12.722  0.3058 -5.1746  0.7203
17077TIP3    H272647   4.344   0.213  12.802  0.2413  1.1598 -1.1326
17078TIP3   OH272648   3.146   1.998  11.366  0.0437  0.1024  0.0573
17078TIP3    H172649   3.092   1.970  11.292  0.0996  0.1109  0.0125
17078TIP3    H272650   3.092   2.062  11.412  0.8390  1.8210 -1.2576
17079TIP3   OH272651   6.702   0.990   0.606 -0.1089 -0.6710  0.4745
17079TIP3    H172652   6.738   0.963   0.521  0.4575  0.0988  0.4669
17079TIP3    H272653   6.680   0.907   0.649 -0.5908 -1.0697 -0.4963
17080TIP3   OH272654   2.202   2.785  15.317  0.0822  0.5235  0.0802
17080TIP3    H172655   2.147   2.758  15.391  1.4469  0.4980  1.1260
17080TIP3    H272656   2.184   2.878  15.306 -1.4128  0.1693 -0.7127
17081TIP3   OH272657   4.523   1.764  11.042 -0.3141 -0.3950  0.2866
17081TIP3    H172658   4.565   1.690  10.998 -0.4753  0.1287 -0.7643
17081TIP3    H272659   4.466   1.803  10.976 -3.7336 -1.9683  1.9946
17082TIP3   OH272660   2.161   4.434  12.229  0.5577 -0.3174 -0.2834
17082TIP3    H172661   2.142   4.514  12.278 -0.1722  0.1789 -1.3240
17082TIP3    H272662   2.082   4.419  12.177  0.5321 -1.9311  0.1566
17083TIP3   OH272663   0.179   0.530  17.215 -0.6635 -0.5153  0.4578
17083TIP3    H172664   0.133   0.446  17.224  0.0394 -0.7398  2.3487
17083TIP3    H272665   0.270   0.505  17.202 -0.4451 -0.0350  1.0819
17084TIP3   OH272666   2.324   3.647  13.121 -0.1867 -0.2088 -0.5028
17084TIP3    H172667   2.358   3.563  13.088 -0.4377  0.0500 -1.4283
17084TIP3    H272668   2.394   3.710  13.103  0.5851 -0.4251  1.4118
17085TIP3   OH272669   4.183   0.655  11.242  0.0222  0.3129  0.1048
17085TIP3    H172670   4.141   0.736  11.270  0.1191  0.1924  0.6252
17085TIP3    H272671   4.274   0.680  11.226  0.0096  0.3439  0.0827
17086TIP3   OH272672   1.594   6.356  10.638  0.1965 -0.4503  0.2312
17086TIP3    H172673   1.679   6.326  10.605  0.6813 -0.0318  1.0623
17086TIP3    H272674   1.531   6.290  10.607  1.2062 -2.3668  2.0026
17087TIP3   OH272675   0.207   6.540  12.159  0.3412  0.2258  0.2393
17087TIP3    H172676   0.237   6.622  12.119  0.9815 -0.2693 -0.3248
17087TIP3    H272677   0.259   6.472  12.115  0.2058 -0.4356  1.0868
17088TIP3   OH272678   4.616   6.451  12.934  0.1376  0.1159  0.0641
17088TIP3    H172679   4.571   6.373  12.964 -2.4312  1.7697  0.8113
17088TIP3    H272680   4.603   6.451  12.839  0.5700 -0.5715 -0.0051
17089TIP3   OH272681   5.363   4.562  15.363 -0.3340  0.0035  0.3595
17089TIP3    H172682   5.359   4.614  15.283 -0.6608  1.0730  1.0544
17089TIP3    H272683   5.318   4.480  15.341 -0.7146  0.4217 -0.4538
17090TIP3   OH272684   1.091   3.588   5.472 -0.1171  0.3742 -0.0743
17090TIP3    H172685   1.142   3.557   5.547  0.0384 -0.7589 -0.6334
17090TIP3    H272686   1.088   3.514   5.412 -1.9978  0.5826 -0.2999
17091TIP3   OH272687   5.741   6.231   1.421  0.7181 -0.2372 -0.2447
17091TIP3    H172688   5.735   6.207   1.514  0.5600 -0.6538 -0.3603
17091TIP3    H272689   5.824   6.278   1.414  0.5838  0.0709  0.1666
17092TIP3   OH272690   3.890   1.345   5.707  0.4644 -0.0492 -0.4528
17092TIP3    H172691   3.872   1.439   5.709  1.1318  0.0736 -0.0107
17092TIP3    H272692   3.805   1.304   5.725  0.4211  0.5080  0.6928
17093TIP3   OH272693   2.327   3.422   1.328  0.2919  0.1399 -0.3365
17093TIP3    H172694   2.234   3.419   1.309 -0.2968 -1.6741  2.2932
17093TIP3    H272695   2.339   3.505   1.376  0.9119  2.3358 -3.9047
17094TIP3   OH272696   5.863   2.906   5.250  0.5973  0.3793  0.3676
17094TIP3    H172697   5.827   2.899   5.162 -0.7814 -0.0898  0.9544
17094TIP3    H272698   5.795   2.871   5.307  2.1567 -0.9747  1.4773
17095TIP3   OH272699   0.008   0.248   1.772  0.4773  0.5691 -0.4001
17095TIP3    H172700   0.021   0.243   1.866  0.8491  1.5571 -0.3816
17095TIP3    H272701  -0.033   0.165   1.748 -2.1128  1.3137  1.0355
17096TIP3   OH272702   5.858   0.050   3.845  0.1714  0.2787 -0.5344
17096TIP3    H172703   5.927   0.110   3.817  1.0614 -0.7116 -0.4965
17096TIP3    H272704   5.815   0.024   3.764  0.1932  0.4584 -0.6056
17097TIP3   OH272705   2.785   0.937  13.820  0.1840 -0.2268 -0.4074
17097TIP3    H172706   2.880   0.948  13.833 -0.0258  0.2969  0.8731
17097TIP3    H272707   2.748   0.950  13.907 -1.0296 -1.0123 -0.7836
17098TIP3   OH272708   3.518   1.966  11.619  0.1945  0.2102 -0.2451
17098TIP3    H172709   3.579   1.973  11.692  0.0585  3.8530 -0.3052
17098TIP3    H272710   3.572   1.935  11.546  1.7549  2.0119  0.0565
17099TIP3   OH272711   0.170   5.361  13.375  0.0636  0.2101 -0.3830
17099TIP3    H172712   0.102   5.398  13.318 -1.2194  0.6330  1.3121
17099TIP3    H272713   0.210   5.438  13.416  1.3333 -0.0614 -1.0766
17100TIP3   OH272714   0.069   6.250  16.051 -0.1301 -0.5195 -0.1003
17100TIP3    H172715   0.100   6.273  15.963 -0.4083 -1.9044 -0.5936
17100TIP3    H272716   0.103   6.161  16.066  0.0092 -0.2565  1.2458
17101TIP3   OH272717   6.577   6.387   2.932  0.5654  0.1142 -0.1947
17101TIP3    H172718   6.651   6.370   2.990  0.3291 -1.9172 -0.4000
17101TIP3    H272719   6.534   6.302   2.923 -0.4974  0.7703 -1.8466
17102TIP3   OH272720   3.133   2.129   5.307 -0.3106 -0.9903  0.7860
17102TIP3    H172721   3.093   2.212   5.333  0.4508 -1.1522  2.5999
17102TIP3    H272722   3.064   2.064   5.321 -1.2612 -0.6378 -1.6004
17103TIP3   OH272723   0.172   5.886  15.645 -0.2456 -0.2458 -0.2718
17103TIP3    H172724   0.129   5.859  15.563  0.0126 -0.0542 -0.4718
17103TIP3    H272725   0.160   5.812  15.704 -0.4770 -0.3660 -0.4682
17104TIP3   OH272726   0.396   2.402   2.300 -1.1081  0.2711 -0.2512
17104TIP3    H172727   0.387   2.453   2.219  0.2954  2.0390  0.6153
17104TIP3    H272728   0.321   2.429   2.354 -0.6314  1.1357  0.0146
17105TIP3   OH272729   5.330   1.061  10.666 -0.6586 -0.4305  0.2404
17105TIP3    H172730   5.322   1.099  10.754 -1.7167 -1.2718  0.5244
17105TIP3    H272731   5.371   1.130  10.614  1.5496 -0.4663  1.7595
17106TIP3   OH272732   6.441   5.769  14.359 -0.2473  0.0104 -0.4382
17106TIP3    H172733   6.527   5.790  14.393 -0.9680  0.9832  0.8908
17106TIP3    H272734   6.403   5.853  14.334 -2.0534  0.1322  2.2100
17107TIP3   OH272735   2.899   6.381   5.954 -0.0941 -0.1650 -0.1259
17107TIP3    H172736   2.959   6.381   5.879 -0.1455 -1.2492 -0.1847
17107TIP3    H272737   2.869   6.472   5.961 -0.1516 -0.0551 -1.4785
17108TIP3   OH272738   2.609   1.246  13.338 -0.4509  0.0667  0.2407
17108TIP3    H172739   2.603   1.291  13.254  0.4326 -1.1818 -0.5225
17108TIP3    H272740   2.610   1.153  13.315  0.4749 -0.2810  1.5775
17109TIP3   OH272741   3.080   5.594  15.006 -0.5711  0.2940 -1.0505
17109TIP3    H172742   3.038   5.653  15.068 -1.1483 -0.9201 -0.2618
17109TIP3    H272743   3.135   5.537  15.060 -1.5390 -1.1726 -1.5525
17110TIP3   OH272744   3.978   5.570   4.664 -0.3077 -0.3304  0.0351
17110TIP3    H172745   4.054   5.627   4.665 -0.5733  0.0271  0.4288
17110TIP3    H272746   3.944   5.576   4.575  0.5271 -1.0524 -0.3499
17111TIP3   OH272747   2.488   0.291  13.014  0.2508  0.7081  0.8818
17111TIP3    H172748   2.570   0.325  12.977 -1.7320  2.7141 -2.0857
17111TIP3    H272749   2.464   0.355  13.081  1.3751 -0.2908  2.3147
17112TIP3   OH272750   1.825   5.164   5.253  0.6453 -0.2141  0.3385
17112TIP3    H172751   1.862   5.252   5.248  1.4777 -0.4791  1.3503
17112TIP3    H272752   1.889   5.108   5.208  1.4306 -0.6428  1.9069
17113TIP3   OH272753   0.020   4.546   5.587 -0.0121  0.3512 -0.5701
17113TIP3    H172754   0.001   4.638   5.606 -0.8015  0.0892 -0.0077
17113TIP3    H272755  -0.045   4.522   5.521  0.9443  0.5023 -1.5875
17114TIP3   OH272756   5.427   1.520  13.350 -0.1918  0.1543  0.3659
17114TIP3    H172757   5.472   1.601  13.375  1.4826 -0.1940 -1.3154
17114TIP3    H272758   5.335   1.546  13.343  0.3079  1.9518 -0.2203
17115TIP3   OH272759   6.485   1.498  14.431 -0.1098  0.8712 -0.1764
17115TIP3    H172760   6.534   1.418  14.412  0.0494  0.8602  0.2651
17115TIP3    H272761   6.401   1.486  14.385 -0.1462  0.3830  0.0104
17116TIP3   OH272762   1.469   6.528   5.789  0.5947 -0.5274 -0.0400
17116TIP3    H172763   1.520   6.607   5.809  0.2056  0.0234 -1.1391
17116TIP3    H272764   1.447   6.491   5.874 -1.6594  2.1355  0.6846
17117TIP3   OH272765   4.765   4.452  15.884  0.0054  0.1601 -0.1334
17117TIP3    H172766   4.801   4.540  15.873  0.2146  0.2044  0.7844
17117TIP3    H272767   4.798   4.424  15.969 -1.3909 -0.1600  0.3293
17118TIP3   OH272768   4.867   4.886   3.408  0.3552 -0.1214  0.0211
17118TIP3    H172769   4.921   4.868   3.485  1.2418  1.5652 -0.1520
17118TIP3    H272770   4.930   4.900   3.337 -0.3360  0.8761 -0.4154
17119TIP3   OH272771   4.440   4.948  13.435  1.0776  0.0720 -0.4032
17119TIP3    H172772   4.478   4.865  13.405  1.1105 -0.3426  0.7232
17119TIP3    H272773   4.428   4.936  13.529 -1.9074  0.1636 -0.6771
17120TIP3   OH272774   2.959   4.895  13.737 -0.3101 -0.2083  0.0655
17120TIP3    H172775   3.042   4.924  13.699 -0.3893  0.3388  0.2918
17120TIP3    H272776   2.923   4.833  13.674 -1.2219  1.8574 -1.5802
17121TIP3   OH272777   4.473   2.035   6.124  0.1554 -0.2303 -0.1386
17121TIP3    H172778   4.455   2.125   6.097  0.4129  0.1796  0.9926
17121TIP3    H272779   4.560   2.039   6.164 -0.2920 -0.7475  0.9254
17122TIP3   OH272780   1.200   4.376  17.499  0.2842  0.2846  0.0556
17122TIP3    H172781   1.294   4.369  17.484  1.0256  0.7078  3.4878
17122TIP3    H272782   1.174   4.456  17.453  1.1624 -0.7312 -2.3537
17123TIP3   OH272783   0.709   0.901  11.114 -0.0114 -0.0604 -0.3262
17123TIP3    H172784   0.771   0.850  11.063 -0.6175 -0.2472 -0.8898
17123TIP3    H272785   0.756   0.982  11.135  0.3971 -0.1716 -0.7942
17124TIP3   OH272786   5.642   1.585  11.861 -0.0526  0.4360 -0.7724
17124TIP3    H172787   5.548   1.597  11.876  0.5795  1.6545  3.9417
17124TIP3    H272788   5.656   1.491  11.874 -0.5566  0.3611 -0.7579
17125TIP3   OH272789   3.285   2.391   5.059  0.5408 -0.2548  0.4507
17125TIP3    H172790   3.298   2.328   4.988 -0.2501  0.3159 -0.2039
17125TIP3    H272791   3.327   2.471   5.028 -0.5057  0.2346  0.2809
17126TIP3   OH272792   0.997   5.382   6.286 -0.7057 -0.4626  0.0162
17126TIP3    H172793   0.953   5.344   6.361 -0.2015  2.3995  1.9296
17126TIP3    H272794   1.089   5.356   6.296 -0.7666 -0.6845 -0.0106
17127TIP3   OH272795   3.354   4.608  12.275 -0.3843  0.1161 -0.0818
17127TIP3    H172796   3.264   4.575  12.275  0.0459 -1.1170 -0.3206
17127TIP3    H272797   3.345   4.703  12.284 -1.6912 -0.0255  0.3306
17128TIP3   OH272798   4.891   5.972  16.196 -0.0535 -0.0362 -0.3103
17128TIP3    H172799   4.867   5.951  16.106  3.1082 -0.0166 -1.2999
17128TIP3    H272800   4.863   6.063  16.208 -1.4502 -0.3717 -0.8574
17129TIP3   OH272801   5.019   5.423  16.466 -0.0196  1.0091  0.7812
17129TIP3    H172802   4.952   5.362  16.496 -0.3203  1.2921  0.6797
17129TIP3    H272803   5.094   5.406  16.523  0.4977 -0.6332 -0.3081
17130TIP3   OH272804   3.236   4.945  14.769  0.9094  0.4331 -0.1051
17130TIP3    H172805   3.259   5.031  14.803 -1.5785  0.9035  0.6054
17130TIP3    H272806   3.238   4.887  14.845  0.5211  0.3311 -0.1707
17131TIP3   OH272807   1.332   2.800   2.379 -0.0728 -0.2719 -0.2915
17131TIP3    H172808   1.367   2.842   2.458 -0.1228  0.0177 -0.4202
17131TIP3    H272809   1.406   2.800   2.318 -0.0555 -0.4281 -0.2703
17132TIP3   OH272810   3.500   3.319   3.366  0.5848  0.4884 -0.7061
17132TIP3    H172811   3.523   3.316   3.459 -0.2705  0.1085 -0.4968
17132TIP3    H272812   3.420   3.371   3.363  0.2196 -0.0814 -1.1400
17133TIP3   OH272813   3.569   3.031  12.597  0.1604  0.4021 -0.0991
17133TIP3    H172814   3.624   2.955  12.583 -1.1808 -0.4267 -1.1019
17133TIP3    H272815   3.588   3.059  12.687 -0.2204 -1.8880  0.7509
17134TIP3   OH272816   3.243   6.622   5.574 -0.3663 -0.8227 -0.2689
17134TIP3    H172817   3.238   6.676   5.495 -0.1942 -0.0004  0.2672
17134TIP3    H272818   3.250   6.533   5.542  1.8816 -0.3745 -1.2434
17135TIP3   OH272819   6.116   2.862  16.291  0.3095  0.2924  0.4979
17135TIP3    H172820   6.042   2.806  16.313  1.4150 -1.5637 -0.3061
17135TIP3    H272821   6.075   2.944  16.262 -1.3800 -0.2858  1.0903
17136TIP3   OH272822   1.975   3.778  14.282  0.3710 -0.0263 -0.3153
17136TIP3    H172823   1.964   3.869  14.307  1.4647 -0.2090  0.9547
17136TIP3    H272824   1.898   3.758  14.228 -0.7295  1.1777  0.7395
17137TIP3   OH272825   4.852   5.236  13.810 -0.5888  0.2840 -0.7077
17137TIP3    H172826   4.942   5.217  13.785 -0.3147 -1.2516  1.2389
17137TIP3    H272827   4.812   5.271  13.730  0.8084 -2.1867 -2.6218
17138TIP3   OH272828   2.991   4.313  13.974 -0.1379 -0.4645 -0.5455
17138TIP3    H172829   2.966   4.246  14.037  0.4621 -0.1291  0.0605
17138TIP3    H272830   3.083   4.331  13.992 -0.5407  1.2831  0.0302
17139TIP3   OH272831   3.588   6.150   2.671 -0.0456 -0.1342 -0.6018
17139TIP3    H172832   3.633   6.161   2.587 -0.0003 -0.9935 -0.7022
17139TIP3    H272833   3.535   6.072   2.659  1.4684 -1.4627  0.8014
17140TIP3   OH272834   4.912   4.257   3.862 -0.5556  0.0674  0.3425
17140TIP3    H172835   4.851   4.231   3.931 -0.8170  1.8573  0.8547
17140TIP3    H272836   4.983   4.193   3.866 -1.0815 -0.4582  1.5903
17141TIP3   OH272837   2.419   3.404  13.018 -0.2002 -0.2929 -0.2220
17141TIP3    H172838   2.336   3.390  12.972 -1.0016  2.0582  0.4045
17141TIP3    H272839   2.483   3.421  12.948 -0.7589  0.2248 -0.6177
17142TIP3   OH272840   5.074   6.350  13.062 -0.2997 -0.0890 -0.6089
17142TIP3    H172841   5.058   6.437  13.099 -1.2439 -0.4939 -0.0199
17142TIP3    H272842   5.152   6.318  13.109 -2.6102 -1.4207  2.7132
17143TIP3   OH272843   1.093   1.517  16.643 -0.3743  0.1384 -0.7534
17143TIP3    H172844   1.180   1.543  16.674 -0.8109 -0.6998  1.3284
17143TIP3    H272845   1.109   1.439  16.590  0.1416  0.0753 -0.5162
17144TIP3   OH272846   2.230   2.620  15.934  0.2448 -0.2693  0.2766
17144TIP3    H172847   2.139   2.647  15.943  0.4003  0.5669 -0.5105
17144TIP3    H272848   2.241   2.550  15.999 -0.9998 -0.5130  0.2481
17145TIP3   OH272849   0.818   4.368   5.404 -0.2816 -0.2634 -0.0596
17145TIP3    H172850   0.726   4.372   5.427 -0.5395  0.8053 -1.1910
17145TIP3    H272851   0.860   4.435   5.459 -0.3064 -0.1773 -0.1469
17146TIP3   OH272852   3.657   5.322  11.931 -0.0828 -0.4909  0.2349
17146TIP3    H172853   3.651   5.299  12.024  2.1773 -0.8561  0.3637
17146TIP3    H272854   3.653   5.238  11.885 -0.8838 -0.3376  0.0188
17147TIP3   OH272855   0.525   1.295  11.994  0.0879 -0.2821  0.2683
17147TIP3    H172856   0.600   1.340  12.032  0.5889 -0.4888 -0.4447
17147TIP3    H272857   0.490   1.357  11.931 -0.5252 -0.0740  0.8086
17148TIP3   OH272858   1.776   6.661   3.297 -0.7201  0.2854  0.1964
17148TIP3    H172859   1.770   6.589   3.234 -1.1593  0.6100 -0.1403
17148TIP3    H272860   1.701   6.717   3.277 -0.3952  0.8272  0.4657
17149TIP3   OH272861   4.847   0.689   4.439 -0.5169  0.8182  0.3766
17149TIP3    H172862   4.794   0.717   4.364 -0.1872 -1.3042 -0.7103
17149TIP3    H272863   4.785   0.643   4.495  0.2353 -3.2741 -1.7422
17150TIP3   OH272864   2.626   1.183   4.964 -0.2670  0.0340 -0.1451
17150TIP3    H172865   2.691   1.168   4.895 -0.0463 -1.5927  0.3581
17150TIP3    H272866   2.654   1.125   5.035 -3.5436 -2.6149 -0.7909
17151TIP3   OH272867   3.038   5.348   1.651 -0.0308 -0.2111 -0.4913
17151TIP3    H172868   3.062   5.337   1.743  0.5841 -1.4431 -0.7724
17151TIP3    H272869   3.107   5.304   1.603 -0.6305 -0.0526 -1.5269
17152TIP3   OH272870   6.175   2.739   2.452  0.2041  0.1763 -0.1392
17152TIP3    H172871   6.176   2.826   2.411  2.2654 -0.9041 -2.6222
17152TIP3    H272872   6.261   2.730   2.492  0.2350 -0.9197 -0.4222
17153TIP3   OH272873   1.971   3.229   1.109  0.0986  0.4915 -0.5764
17153TIP3    H172874   2.034   3.174   1.156  0.8013  2.1223  0.5013
17153TIP3    H272875   1.888   3.217   1.156 -0.3983 -1.4873 -1.8628
17154TIP3   OH272876   5.557   6.414   6.170 -0.0874 -0.2780  0.4891
17154TIP3    H172877   5.495   6.450   6.233 -0.6580 -0.3426 -0.0202
17154TIP3    H272878   5.517   6.331   6.142  0.3847 -0.4754  0.3915
17155TIP3   OH272879   1.620   2.042  13.961 -0.8414 -0.4187 -0.0655
17155TIP3    H172880   1.526   2.060  13.957 -0.9902 -0.9345  0.8854
17155TIP3    H272881   1.626   1.949  13.937 -0.6371 -0.5534  0.5135
17156TIP3   OH272882   5.811   0.315   5.349 -0.5774 -1.1163  0.1551
17156TIP3    H172883   5.891   0.265   5.330 -0.3535 -0.3073 -1.1751
17156TIP3    H272884   5.843   0.399   5.382 -0.8346 -0.4888 -1.1451
17157TIP3   OH272885   6.311   2.269  16.486  0.2714  0.1712 -0.3578
17157TIP3    H172886   6.403   2.257  16.461  0.1091 -0.9086 -0.4480
17157TIP3    H272887   6.279   2.181  16.503 -0.8763  0.4966 -0.7597
17158TIP3   OH272888   0.647   2.198  16.107 -0.6849 -0.1191 -0.0905
17158TIP3    H172889   0.589   2.230  16.038 -1.0059  1.3206  0.8108
17158TIP3    H272890   0.720   2.260  16.108 -0.0053 -0.9016 -0.0302
17159TIP3   OH272891   5.097   3.721   3.966 -0.5001  0.1388  0.4605
17159TIP3    H172892   5.182   3.764   3.963 -0.2417 -0.3995 -0.4543
17159TIP3    H272893   5.089   3.688   4.055  1.1177 -1.4864  0.0595
17160TIP3   OH272894   5.977   5.677   2.768 -0.0346 -0.4109  0.2860
17160TIP3    H172895   5.919   5.670   2.692 -1.5734  1.7321  1.1785
17160TIP3    H272896   6.055   5.721   2.735 -1.3984  2.1170  0.1847
17161TIP3   OH272897   0.361   1.246   0.769 -0.2595 -0.5035 -0.6586
17161TIP3    H172898   0.368   1.151   0.778 -0.0386 -0.3130  1.6846
17161TIP3    H272899   0.317   1.275   0.848  0.5724  1.4526 -0.8429
17162TIP3   OH272900   0.114   4.413  13.009 -0.0642 -0.2679  0.1884
17162TIP3    H172901   0.143   4.482  12.949  2.1126 -1.4537 -0.1969
17162TIP3    H272902   0.040   4.372  12.964 -1.6688  1.9405  0.5815
17163TIP3   OH272903   0.481   1.006  12.442 -0.2728 -0.2188 -0.4292
17163TIP3    H172904   0.537   0.928  12.442  0.5374  0.3406 -1.5327
17163TIP3    H272905   0.506   1.054  12.363 -1.4299  0.6891 -0.2669
17164TIP3   OH272906   0.859   4.727  12.740 -0.7905 -1.0797 -0.4564
17164TIP3    H172907   0.899   4.774  12.814  1.1505 -2.0306 -0.8273
17164TIP3    H272908   0.840   4.640  12.776 -0.7707 -1.2232 -0.7976
17165TIP3   OH272909   1.710   1.550  14.092  0.1365 -0.0303  0.1683
17165TIP3    H172910   1.748   1.542  14.180  2.3893  0.8681 -0.6653
17165TIP3    H272911   1.777   1.516  14.033  0.2207  2.7169 -1.4817
17166TIP3   OH272912   0.341   4.135  14.807 -0.0838 -0.3964 -0.1040
17166TIP3    H172913   0.431   4.143  14.838  1.2642  0.7170 -3.6876
17166TIP3    H272914   0.322   4.041  14.810  1.4254 -0.7128  0.2110
17167TIP3   OH272915   6.251   4.644  14.137  0.5300  0.1070 -0.1407
17167TIP3    H172916   6.268   4.569  14.194  2.2942  0.5984  0.0272
17167TIP3    H272917   6.228   4.714  14.197 -0.4644 -0.1146 -0.2522
17168TIP3   OH272918   6.443   0.150   4.562 -0.4654  0.1130 -0.2223
17168TIP3    H172919   6.484   0.121   4.643  1.1362  2.8978  0.0988
17168TIP3    H272920   6.350   0.162   4.585 -0.8398 -2.7069  0.0658
17169TIP3   OH272921   1.317   1.079   5.286  0.2321  0.3599  0.3852
17169TIP3    H172922   1.223   1.058   5.284  0.0482  1.0286  1.2494
17169TIP3    H272923   1.358   1.009   5.236 -1.0006  1.6376 -2.6939
17170TIP3   OH272924   4.315   4.203  17.267  0.0289  0.3537  0.2943
17170TIP3    H172925   4.285   4.141  17.200  2.5598  0.2324 -0.8402
17170TIP3    H272926   4.387   4.158  17.311  0.1668  1.4870  1.2681
17171TIP3   OH272927   5.373   2.666   1.978  0.0512 -0.0993 -0.8779
17171TIP3    H172928   5.339   2.676   2.067  0.8040 -1.5157 -0.3943
17171TIP3    H272929   5.378   2.571   1.965 -1.3914  0.0322 -2.9861
17172TIP3   OH272930   0.407   1.412  10.545 -0.3536  0.1084  0.0684
17172TIP3    H172931   0.394   1.476  10.476  0.5371  1.2792  0.9664
17172TIP3    H272932   0.323   1.412  10.593 -1.1970 -1.1523 -1.3159
17173TIP3   OH272933   5.572   3.855  14.145  0.2214 -0.6917 -0.4013
17173TIP3    H172934   5.614   3.780  14.102 -0.5246 -1.2753 -0.1326
17173TIP3    H272935   5.499   3.817  14.194  0.5343  0.0616  0.6893
17174TIP3   OH272936   4.805   6.192  11.493  0.0043  1.2257  0.3923
17174TIP3    H172937   4.834   6.269  11.444  0.3068  1.6296  1.1906
17174TIP3    H272938   4.784   6.127  11.426  0.9888  1.5575 -0.2538
17175TIP3   OH272939   4.068   3.977  12.897 -0.3854  0.0153 -0.2794
17175TIP3    H172940   4.051   4.068  12.923 -0.9871 -0.1304 -0.1663
17175TIP3    H272941   4.033   3.924  12.968  0.7883 -0.2900  0.1015
17176TIP3   OH272942   4.140   3.190  12.722  0.2497 -0.3711  0.0704
17176TIP3    H172943   4.058   3.145  12.701 -0.2214  0.4365  0.1159
17176TIP3    H272944   4.118   3.245  12.797  0.7127  0.2051 -0.2121
17177TIP3   OH272945   5.080   2.782  15.444 -0.2408  0.1403 -0.5423
17177TIP3    H172946   5.078   2.838  15.367 -0.9023 -0.7414 -1.1956
17177TIP3    H272947   5.001   2.805  15.492  1.1251  2.0369  0.9023
17178TIP3   OH272948   2.642   1.045   3.942  0.0092 -0.4657 -0.3401
17178TIP3    H172949   2.574   0.982   3.967 -0.1054 -0.5049 -0.7481
17178TIP3    H272950   2.687   1.065   4.024 -1.2084  0.4077  0.1512
17179TIP3   OH272951   0.292   2.021  13.822  0.0818  0.3628  0.3307
17179TIP3    H172952   0.219   1.959  13.826  0.5704 -0.1848  1.0169
17179TIP3    H272953   0.361   1.974  13.775  0.9465 -0.1547  2.0586
17180TIP3   OH272954   0.774   0.682  10.911  0.1071  0.4509  0.0671
17180TIP3    H172955   0.803   0.593  10.890  0.0196  0.4356  0.0110
17180TIP3    H272956   0.761   0.723  10.826  0.2810  0.5605  0.0945
17181TIP3   OH272957   2.194   5.216  17.152  0.2050  0.0763 -0.2243
17181TIP3    H172958   2.202   5.290  17.092 -0.0335 -0.6623 -1.2010
17181TIP3    H272959   2.280   5.174  17.151 -0.1127 -0.6017 -0.9765
17182TIP3   OH272960   4.341   5.132  12.988 -0.1657  0.6841  0.8991
17182TIP3    H172961   4.374   5.074  13.057 -1.8994  1.5661  2.5885
17182TIP3    H272962   4.359   5.085  12.907  1.7946 -0.4998  1.9196
17183TIP3   OH272963   5.351   6.463  11.667  0.3810  0.3410 -0.0800
17183TIP3    H172964   5.437   6.446  11.629 -1.5125 -2.8992 -3.5506
17183TIP3    H272965   5.351   6.417  11.751  2.4136  1.7724  0.7932
17184TIP3   OH272966   1.917   2.738   2.827  0.0641 -0.0591 -0.2377
17184TIP3    H172967   1.927   2.806   2.894  2.8412 -1.2886  0.7091
17184TIP3    H272968   1.825   2.711   2.835 -0.4373  1.8109  1.0648
17185TIP3   OH272969   4.115   2.741  16.967  0.0870 -0.6680 -0.2120
17185TIP3    H172970   4.129   2.669  17.027  0.6141  0.3872  0.9853
17185TIP3    H272971   4.156   2.713  16.885  0.2268 -1.7385  0.2189
17186TIP3   OH272972   3.111   0.255  15.740 -0.6644 -0.1567  0.1450
17186TIP3    H172973   3.137   0.300  15.659  2.2021 -0.0124  1.0023
17186TIP3    H272974   3.054   0.184  15.712 -0.0538  0.1250 -1.9614
17187TIP3   OH272975   4.557   1.305  17.567 -0.1777  0.1006  0.3571
17187TIP3    H172976   4.549   1.217  17.604 -0.0006  0.1227  0.4494
17187TIP3    H272977   4.467   1.336  17.559 -0.1773  0.7594  2.3612
17188TIP3   OH272978   4.024   3.793   6.470  0.5231 -0.0911  0.0911
17188TIP3    H172979   4.054   3.749   6.391  0.3099  0.2214 -0.1687
17188TIP3    H272980   4.079   3.872   6.475  0.4855 -0.0736  0.2116
17189TIP3   OH272981   1.981   0.816  12.281 -0.1574 -0.7215 -0.1968
17189TIP3    H172982   1.982   0.749  12.213  1.6437  0.2519 -1.1959
17189TIP3    H272983   2.030   0.889  12.244 -0.8914  0.6432  1.3808
17190TIP3   OH272984   2.316   5.134  11.088 -0.2640 -0.3551  0.2820
17190TIP3    H172985   2.336   5.210  11.143 -1.6689  0.4360 -0.2697
17190TIP3    H272986   2.308   5.169  11.000 -0.3005 -1.2541 -0.0849
17191TIP3   OH272987   5.592   4.886   5.403 -0.6782 -0.1681  0.5999
17191TIP3    H172988   5.602   4.791   5.413  0.5162  0.0082  1.2390
17191TIP3    H272989   5.570   4.898   5.311  1.1262 -0.9475  0.0169
17192TIP3   OH272990   4.250   0.773   2.491 -0.9061 -0.6977  0.2041
17192TIP3    H172991   4.206   0.858   2.487 -0.7816 -0.4499  2.6606
17192TIP3    H272992   4.250   0.750   2.584  2.2878 -1.7018  0.0674
17193TIP3   OH272993   2.742   3.720  15.531 -0.1654 -0.1310 -0.1845
17193TIP3    H172994   2.667   3.686  15.580  1.8291 -3.1555  1.0420
17193TIP3    H272995   2.777   3.644  15.485  2.1956  1.1414 -0.6261
17194TIP3   OH272996   1.449   6.633   4.864 -1.0144 -0.1443  0.9400
17194TIP3    H172997   1.448   6.726   4.890  0.0543  0.1847 -0.1223
17194TIP3    H272998   1.521   6.595   4.913 -0.5345 -0.0681  0.3114
17195TIP3   OH272999   3.520   3.717  11.445 -0.1987  0.0883  0.4933
17195TIP3    H173000   3.570   3.778  11.391  1.7631 -2.1791 -0.4015
17195TIP3    H273001   3.451   3.685  11.387 -0.9474  1.0321  0.8259
17196TIP3   OH273002   2.893   3.786  14.412  0.7513 -0.2137 -0.6948
17196TIP3    H173003   2.974   3.816  14.371  1.7815 -1.2194  0.5054
17196TIP3    H273004   2.901   3.690  14.412 -1.1772 -0.4091 -1.9697
17197TIP3   OH273005   1.142   1.646   0.664 -0.5821 -0.4214  1.0084
17197TIP3    H173006   1.151   1.674   0.755 -0.0710 -0.1532  0.8772
17197TIP3    H273007   1.212   1.582   0.652  3.2079  3.5551 -0.7711
17198TIP3   OH273008   2.399   5.954  16.718 -0.4201 -0.2949  0.2260
17198TIP3    H173009   2.490   5.932  16.698  0.0813  2.3349 -0.8594
17198TIP3    H273010   2.349   5.921  16.644  0.1766  1.2375 -0.9099
17199TIP3   OH273011   6.547   2.508  14.285  0.0153 -0.1075  0.3313
17199TIP3    H173012   6.484   2.579  14.288  0.3570  0.2113  0.1109
17199TIP3    H273013   6.505   2.436  14.332  1.1287  1.4138  4.0538
17200TIP3   OH273014   5.598   6.684   4.917 -0.0638  0.2980 -0.0579
17200TIP3    H173015   5.536   6.704   4.847 -0.1973 -1.6141 -0.5458
17200TIP3    H273016   5.543   6.647   4.987  0.4172 -0.7622 -0.2234
17201TIP3   OH273017   0.147   1.228  10.970  0.1489 -0.2892  0.6830
17201TIP3    H173018   0.130   1.222  10.876 -0.1860 -0.8533  0.7736
17201TIP3    H273019   0.165   1.138  10.996 -0.8105 -0.3021  1.3527
17202TIP3   OH273020   4.086   0.598   2.955 -0.0634 -0.2783  0.1014
17202TIP3    H173021   4.001   0.640   2.971 -0.3039 -0.7643  0.1263
17202TIP3    H273022   4.082   0.517   3.006  1.3162  0.7516  1.9781
17203TIP3   OH273023   2.718   4.180   5.560 -0.1963  0.1883 -0.3234
17203TIP3    H173024   2.660   4.106   5.577 -0.3188 -0.4812 -3.2584
17203TIP3    H273025   2.803   4.153   5.596 -1.2012  0.4956  2.5022
17204TIP3   OH273026   1.605   6.541  14.234 -0.3606  0.0869  0.8445
17204TIP3    H173027   1.690   6.555  14.190 -0.2567 -0.0409  1.0056
17204TIP3    H273028   1.628   6.528  14.326 -0.3964 -1.8220  0.6107
17205TIP3   OH273029   4.686   3.552  14.340  0.3487 -0.8473 -0.1716
17205TIP3    H173030   4.694   3.489  14.269 -0.3300 -2.0001  0.7253
17205TIP3    H273031   4.730   3.510  14.414 -2.6970 -1.7656  1.3133
17206TIP3   OH273032   0.051   4.079   3.367 -0.3512  0.7647 -0.1651
17206TIP3    H173033   0.052   3.987   3.396 -0.6814  0.9800  0.5398
17206TIP3    H273034  -0.031   4.088   3.319 -0.7914  0.9423  0.6088
17207TIP3   OH273035   6.447   5.562  15.398  0.7064 -0.3344  0.5176
17207TIP3    H173036   6.434   5.579  15.304  1.8670  0.7146  0.5197
17207TIP3    H273037   6.359   5.568  15.436  0.2896 -0.2772 -0.4282
17208TIP3   OH273038   0.652   5.940   5.296 -0.0425  0.2739  0.3015
17208TIP3    H173039   0.710   5.975   5.363  1.2222 -1.1281 -0.0271
17208TIP3    H273040   0.708   5.925   5.220 -0.6410 -1.7512  0.1960
17209TIP3   OH273041   4.207   3.035   2.511 -0.3921 -0.7198  0.0082
17209TIP3    H173042   4.180   3.082   2.433 -0.9019 -0.0689  0.5625
17209TIP3    H273043   4.169   3.084   2.583  0.2845 -1.1581  0.6856
17210TIP3   OH273044   6.085   4.572  17.091 -0.4043  0.4982  0.4402
17210TIP3    H173045   6.089   4.621  17.009  0.8744 -0.6256 -0.2148
17210TIP3    H273046   6.004   4.602  17.133 -1.9241  0.0040 -1.9343
17211TIP3   OH273047   3.314   1.098  12.237  0.4296 -0.4688 -0.1112
17211TIP3    H173048   3.239   1.060  12.284 -0.8476 -2.3173 -3.3247
17211TIP3    H273049   3.346   1.167  12.295 -0.1807 -3.2578  3.9458
17212TIP3   OH273050   1.212   2.650  11.487  0.1775  0.0922 -0.0864
17212TIP3    H173051   1.289   2.606  11.452  1.6843  0.8357  2.0526
17212TIP3    H273052   1.168   2.584  11.540 -0.3373 -0.1493 -0.7931
17213TIP3   OH273053   3.918   4.497  17.153 -0.1563  0.0325  0.0467
17213TIP3    H173054   3.946   4.562  17.219 -1.1088  1.9018 -1.2944
17213TIP3    H273055   3.996   4.484  17.099 -0.1952  0.7625 -0.2013
17214TIP3   OH273056   4.108   2.572  12.160  0.3711  0.1900 -0.2688
17214TIP3    H173057   4.051   2.604  12.090 -0.1577 -0.6270 -0.2329
17214TIP3    H273058   4.136   2.650  12.207 -0.5538  0.6196 -0.4224
17215TIP3   OH273059   3.547   2.337  17.221  0.2552 -0.2163  0.9108
17215TIP3    H173060   3.572   2.405  17.158  0.3713 -0.0547  1.1313
17215TIP3    H273061   3.463   2.367  17.257  0.0187 -0.4771  0.5892
17216TIP3   OH273062   5.598   4.738  13.979 -0.4898  0.4176  0.2312
17216TIP3    H173063   5.507   4.731  14.010 -0.3024  0.6198  0.8450
17216TIP3    H273064   5.637   4.653  14.001 -0.2144  0.7468  1.0286
17217TIP3   OH273065   1.692   2.850   0.139 -0.5851  0.2255  0.1012
17217TIP3    H173066   1.636   2.830   0.064 -2.2046 -0.8080  1.5299
17217TIP3    H273067   1.758   2.910   0.104 -1.3916 -0.0898 -2.0975
17218TIP3   OH273068   0.718   0.086  14.816 -0.0546 -0.3140  0.2348
17218TIP3    H173069   0.662   0.142  14.870 -1.0462 -0.7426 -0.3297
17218TIP3    H273070   0.660   0.053  14.747  0.9189 -0.6807 -0.4306
17219TIP3   OH273071   5.810   5.546  13.623 -0.2543 -0.6598 -0.0458
17219TIP3    H173072   5.837   5.618  13.680 -0.3408 -0.5901 -0.0927
17219TIP3    H273073   5.843   5.467  13.666 -0.1265 -0.5884 -0.0152
17220TIP3   OH273074   1.707   2.201   3.355  0.3670 -0.0073  0.2163
17220TIP3    H173075   1.756   2.181   3.434  0.1766 -0.9070  0.1100
17220TIP3    H273076   1.755   2.158   3.285 -0.3893 -0.6305  0.0698
17221TIP3   OH273077   5.987   1.430  15.504 -0.4525  0.2873 -0.0735
17221TIP3    H173078   5.946   1.394  15.582  0.8571  1.9101  1.4355
17221TIP3    H273079   6.079   1.443  15.528  0.2459 -0.1473 -2.2462
17222TIP3   OH273080   1.260   1.603  15.295 -0.0519  0.2402 -0.3485
17222TIP3    H173081   1.190   1.609  15.359  0.6447  0.1265  0.4438
17222TIP3    H273082   1.340   1.612  15.347  0.5286  4.6484 -1.6002
17223TIP3   OH273083   3.672   2.842   3.031 -0.0829 -0.5163  0.9419
17223TIP3    H173084   3.618   2.861   2.955 -0.5448 -2.0123  0.8738
17223TIP3    H273085   3.612   2.849   3.106  0.2384  0.3780  1.1283
17224TIP3   OH273086   3.921   3.546  13.798 -0.2097 -0.1823 -0.4936
17224TIP3    H173087   3.996   3.605  13.789 -1.1789  1.1507 -0.0872
17224TIP3    H273088   3.929   3.510  13.886  0.6080 -1.0106 -0.8867
17225TIP3   OH273089   2.337   3.023  17.253 -0.7958  0.4513 -0.7815
17225TIP3    H173090   2.302   3.109  17.230 -0.6457  0.4925 -0.8587
17225TIP3    H273091   2.367   2.986  17.170 -2.2481 -0.3189 -0.9841
17226TIP3   OH273092   6.172   0.585  13.919 -0.0848 -0.1394  0.4376
17226TIP3    H173093   6.124   0.608  13.998 -0.1106 -0.5217  0.5327
17226TIP3    H273094   6.143   0.649  13.854 -1.2110 -0.7584  0.3123
17227TIP3   OH273095   5.115   5.531  14.946 -0.3198  0.1422  0.2864
17227TIP3    H173096   5.099   5.527  15.041  0.4047  1.4631  0.4871
17227TIP3    H273097   5.037   5.492  14.907 -0.5953 -0.5167  1.4243
17228TIP3   OH273098   6.228   4.801   2.797  0.0459 -0.0394 -0.5034
17228TIP3    H173099   6.232   4.894   2.820 -0.4030 -0.4884  1.6617
17228TIP3    H273100   6.262   4.756   2.874 -2.1021 -1.7692 -0.4413
17229TIP3   OH273101   2.201   5.931   0.793  0.2199 -0.0699 -0.5295
17229TIP3    H173102   2.217   6.010   0.844 -0.8404  1.2359 -2.1375
17229TIP3    H273103   2.234   5.950   0.706  0.9688 -1.8459 -0.6864
17230TIP3   OH273104   3.123   5.662  11.644 -0.8545  0.5990  0.0366
17230TIP3    H173105   3.196   5.677  11.704 -2.0692 -0.3408  1.8163
17230TIP3    H273106   3.146   5.581  11.598  0.8093  2.1243 -2.0032
17231TIP3   OH273107   2.691   5.391  13.006 -0.4215  0.5357 -0.7075
17231TIP3    H173108   2.614   5.337  12.991 -1.5053  1.7874  0.1659
17231TIP3    H273109   2.714   5.426  12.920 -1.0705  0.4873 -0.8991
17232TIP3   OH273110   6.653   2.839  12.546 -0.3974 -0.2770 -0.2135
17232TIP3    H173111   6.635   2.900  12.475  0.4682 -0.3204 -0.4836
17232TIP3    H273112   6.748   2.841  12.555 -0.4826 -0.4201  0.8120
17233TIP3   OH273113   1.197   5.067   3.489  0.1898  0.0319  0.0030
17233TIP3    H173114   1.152   5.063   3.573  0.8865 -0.7134  0.3646
17233TIP3    H273115   1.286   5.094   3.511  0.4970 -0.6038 -0.4374
17234TIP3   OH273116   2.823   1.104  16.244  0.6839  0.3732 -0.5581
17234TIP3    H173117   2.770   1.107  16.324 -0.2254  0.1854 -1.1408
17234TIP3    H273118   2.787   1.031  16.194  0.4370  1.2448 -1.6916
17235TIP3   OH273119   2.726   2.961  11.034 -0.4413 -0.3060  0.2145
17235TIP3    H173120   2.731   2.894  11.103  1.6859 -1.0079 -0.5487
17235TIP3    H273121   2.676   2.918  10.964  0.0005 -0.7146  0.1444
17236TIP3   OH273122   4.156   0.517  17.020 -0.6636  0.3639  0.2951
17236TIP3    H173123   4.207   0.460  16.962  0.9746  2.0239 -0.0049
17236TIP3    H273124   4.076   0.468  17.038  0.6682 -2.0416  0.1256
17237TIP3   OH273125   3.938   6.430  12.200 -0.0784 -0.1283  0.5063
17237TIP3    H173126   3.895   6.496  12.255  0.8790  0.1515  0.9292
17237TIP3    H273127   3.975   6.480  12.127  1.9909  0.0498  1.6244
17238TIP3   OH273128   0.199   0.675  13.775 -0.0327  0.8558 -0.7829
17238TIP3    H173129   0.159   0.621  13.706  1.1210 -1.5873  0.3211
17238TIP3    H273130   0.237   0.749  13.729 -1.6423  0.7333 -2.4171
17239TIP3   OH273131   6.289   5.101   3.252 -0.2413  0.0937 -0.1272
17239TIP3    H173132   6.205   5.141   3.276  0.2649  1.2796 -0.3036
17239TIP3    H273133   6.355   5.165   3.277  0.7360 -1.3685  1.2246
17240TIP3   OH273134   1.884   4.406   0.302 -0.7969 -0.3731 -0.0950
17240TIP3    H173135   1.973   4.442   0.300 -1.0716  0.2997 -2.5716
17240TIP3    H273136   1.868   4.389   0.395  1.9126 -0.5335  0.4363
17241TIP3   OH273137   6.325   3.543  12.564 -0.3270 -0.1802  0.5585
17241TIP3    H173138   6.374   3.595  12.628 -0.3280 -0.9949  1.2404
17241TIP3    H273139   6.289   3.608  12.504  2.7663  0.3838 -0.8828
17242TIP3   OH273140   4.899   2.428  16.096 -0.0856  0.1253 -0.2206
17242TIP3    H173141   4.871   2.373  16.170 -0.9653 -0.8697 -1.2684
17242TIP3    H273142   4.995   2.432  16.105  0.0280 -1.7167 -0.1819
17243TIP3   OH273143   3.807   1.422   5.174 -0.2831  0.4527 -0.9319
17243TIP3    H173144   3.846   1.334   5.173  0.9604  0.9577 -2.4583
17243TIP3    H273145   3.713   1.407   5.164 -0.4071 -0.7625  1.4718
17244TIP3   OH273146   1.344   3.977  13.754 -0.0853 -0.2459 -0.6951
17244TIP3    H173147   1.337   4.072  13.753 -1.7981 -0.3451 -0.6796
17244TIP3    H273148   1.331   3.951  13.662 -1.0850 -0.5194 -0.4951
17245TIP3   OH273149   2.278   4.753  16.655 -0.2019  0.0887 -0.0832
17245TIP3    H173150   2.293   4.844  16.628  2.4553 -0.4143 -0.5658
17245TIP3    H273151   2.219   4.718  16.588 -0.6902  1.2424 -0.2950
17246TIP3   OH273152   5.967   3.747  17.219 -0.3828 -0.6180 -0.2642
17246TIP3    H173153   5.990   3.838  17.238  0.2858 -1.1158  1.5032
17246TIP3    H273154   6.042   3.713  17.170 -0.6516 -0.2169 -0.9619
17247TIP3   OH273155   4.774   5.430  13.967  0.4173 -0.1163  0.2710
17247TIP3    H173156   4.801   5.368  13.900  0.7848 -0.9338  1.1525
17247TIP3    H273157   4.828   5.408  14.043 -0.8139  0.0050  1.2160
17248TIP3   OH273158   0.468   1.888  12.487 -0.0882 -0.2150  0.7234
17248TIP3    H173159   0.530   1.819  12.508 -0.0243 -0.4257 -0.1252
17248TIP3    H273160   0.460   1.886  12.391 -1.1123  0.0537  0.7832
17249TIP3   OH273161   4.149   3.613   4.401  0.2456  0.7489 -0.0777
17249TIP3    H173162   4.074   3.570   4.442  0.8254  0.5567  0.8177
17249TIP3    H273163   4.139   3.705   4.424  0.2961  0.7204  0.0578
17250TIP3   OH273164   0.091   5.378   1.861 -0.4499  0.1461  0.0761
17250TIP3    H173165   0.181   5.371   1.892 -0.4142  0.9903  0.1994
17250TIP3    H273166   0.046   5.304   1.901  0.2627 -0.4890 -0.2744
17251TIP3   OH273167   0.096   0.003  16.567  0.2168  0.0828  0.5101
17251TIP3    H173168   0.152  -0.011  16.490 -1.3247 -1.3503 -0.4360
17251TIP3    H273169   0.110  -0.075  16.621  0.7001  0.7203  1.3285
17252TIP3   OH273170   5.222   4.955  14.982  0.6561  0.0396  0.0241
17252TIP3    H173171   5.140   4.917  14.951  0.4047 -1.4456  2.2626
17252TIP3    H273172   5.216   5.047  14.957 -0.9148 -0.3858 -1.3541
17253TIP3   OH273173   3.473   6.027  12.092  0.3744 -0.0438  0.3523
17253TIP3    H173174   3.506   5.960  12.151  1.1850 -0.9556 -1.0894
17253TIP3    H273175   3.378   6.014  12.091  0.3439  0.0508  1.5084
17254TIP3   OH273176   4.886   0.234  11.570  0.4007 -0.1852  0.0145
17254TIP3    H173177   4.794   0.220  11.591  0.5230  0.6091  1.1383
17254TIP3    H273178   4.886   0.254  11.476 -0.7702  1.3839  0.3028
17255TIP3   OH273179   5.105   1.320   5.287  0.5266 -0.0418 -0.1752
17255TIP3    H173180   5.040   1.283   5.347  0.2018 -1.3129 -1.2757
17255TIP3    H273181   5.055   1.348   5.211  0.8909  1.9150  0.2467
17256TIP3   OH273182   1.032   4.758   0.075  0.3259  0.1864  0.5094
17256TIP3    H173183   0.983   4.699   0.132 -0.1598  0.7934  0.7242
17256TIP3    H273184   0.972   4.829   0.055  0.7531  0.3785 -0.1276
17257TIP3   OH273185   6.631   1.354   4.963 -0.2995 -0.2285 -0.7074
17257TIP3    H173186   6.578   1.380   5.039 -0.8390  0.5792 -1.3405
17257TIP3    H273187   6.620   1.259   4.958  0.0564 -0.3450  0.4478
17258TIP3   OH273188   2.025   4.993   0.752 -1.1328  0.2734 -0.5268
17258TIP3    H173189   1.979   5.057   0.697  0.7175  0.7367 -1.6281
17258TIP3    H273190   2.062   5.046   0.824 -0.7731  0.2192 -0.6696
17259TIP3   OH273191   1.252   3.220  16.444 -0.0906  0.1922 -0.2240
17259TIP3    H173192   1.205   3.296  16.478  1.6161  1.0897  0.2654
17259TIP3    H273193   1.202   3.192  16.368 -0.8639  1.7036 -0.2970
17260TIP3   OH273194   3.867   2.638   0.399 -0.1350 -0.2030  0.8688
17260TIP3    H173195   3.792   2.668   0.450  0.2151  0.3907  1.0375
17260TIP3    H273196   3.944   2.669   0.448  0.2125 -0.2539  0.3601
17261TIP3   OH273197   1.537   5.508   1.753  0.1853  0.0056  0.2491
17261TIP3    H173198   1.545   5.603   1.767 -0.4131  0.2186 -0.7280
17261TIP3    H273199   1.561   5.469   1.837 -1.3111  1.0953  1.2264
17262TIP3   OH273200   3.767   0.040   1.682 -0.0252 -0.4809 -0.2561
17262TIP3    H173201   3.789  -0.052   1.696  0.2215 -0.5671 -1.1540
17262TIP3    H273202   3.852   0.083   1.671 -0.1390 -0.1418  0.1725
17263TIP3   OH273203   3.742   0.442  17.180  0.1997  0.1075  0.1608
17263TIP3    H173204   3.733   0.523  17.229 -1.7746 -0.1626  0.3254
17263TIP3    H273205   3.689   0.455  17.102  0.1513 -0.8943  0.0109
17264TIP3   OH273206   3.952   3.818   2.022 -0.6480 -0.3629  0.3237
17264TIP3    H173207   3.857   3.809   2.019 -0.8326  1.3597 -1.4567
17264TIP3    H273208   3.982   3.791   1.935  0.0564  2.3709 -0.3838
17265TIP3   OH273209   2.120   1.183  13.225  0.5838  0.1782  0.7169
17265TIP3    H173210   2.055   1.143  13.168  0.1309  1.7749  0.0551
17265TIP3    H273211   2.200   1.189  13.172  0.6551  0.1201  0.8164
17266TIP3   OH273212   4.230   3.343  13.830  0.2650 -0.4574  0.1437
17266TIP3    H173213   4.175   3.397  13.773  1.4648 -0.0509 -0.6879
17266TIP3    H273214   4.305   3.320  13.775  1.3266 -0.3088  1.4850
17267TIP3   OH273215   2.336   6.698  12.238  0.1205  0.2166 -0.5336
17267TIP3    H173216   2.264   6.746  12.279 -1.9052 -0.8959 -2.5215
17267TIP3    H273217   2.390   6.668  12.311 -0.9132  1.8307  0.9843
17268TIP3   OH273218   6.485   1.822  11.258  0.3819 -0.1380 -0.3232
17268TIP3    H173219   6.507   1.794  11.347  0.5636 -1.5658 -0.7966
17268TIP3    H273220   6.564   1.864  11.226  0.2295  0.6237  0.2740
17269TIP3   OH273221   0.917   4.434  10.457  0.6282 -0.3861 -0.6894
17269TIP3    H173222   0.900   4.501  10.523  0.8557 -0.0956 -0.9212
17269TIP3    H273223   0.830   4.400  10.434  0.6522 -1.9413  1.2318
17270TIP3   OH273224   2.772   5.997  13.702 -0.0393 -0.2682  0.1777
17270TIP3    H173225   2.858   6.025  13.733  0.0864  0.8328 -1.0524
17270TIP3    H273226   2.723   5.976  13.781  0.0120  3.1442  1.2605
17271TIP3   OH273227   3.556   3.806  12.162  0.2117  0.0319  0.2872
17271TIP3    H173228   3.571   3.766  12.248 -0.2200  0.2177  0.4568
17271TIP3    H273229   3.640   3.843  12.137  0.2209  0.4312  0.8760
17272TIP3   OH273230   3.525   4.081  17.486  0.4620 -0.0631 -0.4123
17272TIP3    H173231   3.501   4.068  17.578 -0.3945 -1.2683 -0.7720
17272TIP3    H273232   3.446   4.118  17.446  0.6363 -0.0752 -0.7652
17273TIP3   OH273233   0.066   0.750   4.368 -0.2564  0.3323 -0.0563
17273TIP3    H173234  -0.028   0.769   4.364 -0.4486 -0.7377 -0.9334
17273TIP3    H273235   0.075   0.694   4.446 -0.0788  1.7152  0.9654
17274TIP3   OH273236   1.577   5.585  13.807 -0.1500  0.0488 -0.7206
17274TIP3    H173237   1.570   5.572  13.712  0.9602  0.0528 -0.8148
17274TIP3    H273238   1.644   5.653  13.818  0.3369 -0.5344  0.0844
17275TIP3   OH273239   3.448   2.465  11.644  0.0089 -0.8823  0.1552
17275TIP3    H173240   3.433   2.427  11.730 -2.5265  0.1274  0.2315
17275TIP3    H273241   3.534   2.507  11.650  0.8263 -2.6282  1.4676
17276TIP3   OH273242   1.114   5.148  11.003  0.2082  0.0207  0.0057
17276TIP3    H173243   1.159   5.166  10.920  0.1520 -0.2399 -0.0814
17276TIP3    H273244   1.161   5.200  11.068  0.4145  0.0241 -0.1469
17277TIP3   OH273245   3.594   1.228   0.473  0.0470 -0.3403  0.2190
17277TIP3    H173246   3.656   1.186   0.413  0.4179  2.9504 -1.9591
17277TIP3    H273247   3.648   1.260   0.545  1.1194  2.5299 -1.6783
17278TIP3   OH273248   5.692   6.427   0.665  0.2851 -0.1018  0.3156
17278TIP3    H173249   5.772   6.375   0.669 -1.5259 -3.2913 -1.1672
17278TIP3    H273250   5.711   6.497   0.602  1.9612 -0.5911  0.2428
17279TIP3   OH273251   1.372   3.581  13.947 -0.6007 -0.2872  0.2217
17279TIP3    H173252   1.346   3.501  13.991  0.2688 -1.0849 -0.6779
17279TIP3    H273253   1.337   3.573  13.859 -1.6410  0.9335  0.4878
17280TIP3   OH273254   2.198   6.031   0.482 -0.2050  0.3342 -0.3891
17280TIP3    H173255   2.270   5.977   0.449  0.2925 -0.1720  1.4109
17280TIP3    H273256   2.224   6.121   0.460  0.8644  0.1371  0.0015
17281TIP3   OH273257   3.669   0.509  16.622 -0.3995  0.2769  0.1301
17281TIP3    H173258   3.706   0.424  16.600  0.2452  0.7759 -0.7947
17281TIP3    H273259   3.589   0.514  16.569 -1.5291 -0.5434  1.6623
17282TIP3   OH273260   1.373   3.098  17.236 -0.0306 -0.8213 -0.0977
17282TIP3    H173261   1.388   3.016  17.284  0.6235 -1.1798 -0.8954
17282TIP3    H273262   1.409   3.166  17.293 -0.7591 -1.0550  0.6634
17283TIP3   OH273263   6.280   3.065  15.116 -0.1138 -0.1931  0.2711
17283TIP3    H173264   6.222   3.001  15.074  2.2821 -0.8822 -2.3232
17283TIP3    H273265   6.324   3.015  15.185  0.9962 -1.1201 -1.0679
17284TIP3   OH273266   1.652   0.934   3.762 -0.0039 -0.1829  0.3178
17284TIP3    H173267   1.619   1.020   3.737  0.1088 -0.5511 -1.2167
17284TIP3    H273268   1.746   0.939   3.747 -0.0714 -0.7412 -0.3407
17285TIP3   OH273269   5.952   0.441   5.638  0.1960 -0.4492 -0.3848
17285TIP3    H173270   5.944   0.485   5.553 -3.1510 -0.0342 -0.0140
17285TIP3    H273271   5.865   0.451   5.678  2.0119  0.7902  3.8194
17286TIP3   OH273272   5.826   4.072  16.638 -0.1484  0.0460  0.1141
17286TIP3    H173273   5.806   4.052  16.546 -0.2028 -0.1836  0.1775
17286TIP3    H273274   5.761   4.024  16.688  1.9673 -2.7182  0.4531
17287TIP3   OH273275   2.873   0.156  16.277 -0.0447  0.1843  0.2497
17287TIP3    H173276   2.894   0.082  16.334  2.7594  0.2894 -0.4889
17287TIP3    H273277   2.954   0.207  16.275 -1.2381  2.1074 -0.9864
17288TIP3   OH273278   6.052   6.579   0.436  0.2482 -0.2611  0.1518
17288TIP3    H173279   6.146   6.569   0.422  0.0923 -0.2166 -1.0143
17288TIP3    H273280   6.041   6.672   0.455  0.5221 -0.4152  1.1847
17289TIP3   OH273281   1.129   5.664   1.117  0.1926 -0.5311  0.1341
17289TIP3    H173282   1.101   5.600   1.182  0.6146  0.6265  1.5130
17289TIP3    H273283   1.051   5.680   1.063 -0.1703 -1.4855  0.3597
17290TIP3   OH273284   1.293   3.947  15.917  0.3596  0.2300 -0.3133
17290TIP3    H173285   1.344   3.995  15.983 -1.6997  1.7271  0.3043
17290TIP3    H273286   1.270   4.014  15.852  1.3254 -0.9718 -1.9594
17291TIP3   OH273287   6.409   2.951  15.320  0.1014 -1.0056 -0.5964
17291TIP3    H173288   6.481   2.987  15.374 -0.3121 -0.7171 -0.2254
17291TIP3    H273289   6.447   2.874  15.278  0.9327 -0.2965 -1.1891
17292TIP3   OH273290   4.730   0.088   2.127 -0.1730 -0.1462 -0.1202
17292TIP3    H173291   4.806   0.033   2.145 -0.3089 -0.6560 -1.0270
17292TIP3    H273292   4.766   0.164   2.081 -0.0923  0.1047  0.3536
17293TIP3   OH273293   4.612   2.900  16.099  0.0882  0.2221 -0.2870
17293TIP3    H173294   4.605   2.930  16.008  2.3109  2.4488  0.1811
17293TIP3    H273295   4.695   2.853  16.103 -0.6372 -1.0889  0.3496
17294TIP3   OH273296   3.964   3.663   3.147 -0.6043 -0.5515  0.2596
17294TIP3    H173297   3.973   3.705   3.061  1.6272  0.8641  1.1073
17294TIP3    H273298   3.985   3.571   3.131  0.3441 -0.1916 -0.6272
17295TIP3   OH273299   4.087   2.036  12.849 -0.4592 -0.3140  0.1548
17295TIP3    H173300   3.995   2.011  12.860 -1.3287  2.5506  0.3014
17295TIP3    H273301   4.087   2.087  12.767  0.5914  1.2971  1.1126
17296TIP3   OH273302   2.350   1.663  15.039 -0.2153  0.3983 -0.0018
17296TIP3    H173303   2.300   1.712  15.104  0.8484  1.9362 -0.2931
17296TIP3    H273304   2.383   1.730  14.978  0.7529 -0.7526 -0.7939
17297TIP3   OH273305   6.273   1.184   2.439 -0.3872  0.8657 -0.5424
17297TIP3    H173306   6.332   1.159   2.368  1.4946  1.1710  0.8507
17297TIP3    H273307   6.224   1.103   2.459  1.0692  0.0064 -0.3315
17298TIP3   OH273308   4.686   6.450  11.641 -0.0661 -0.0492  0.5330
17298TIP3    H173309   4.744   6.376  11.624 -0.5838 -0.5782  1.0349
17298TIP3    H273310   4.724   6.522  11.591 -1.4748 -1.4825 -2.8820
17299TIP3   OH273311   2.876   1.631  11.003  0.4012 -0.3607  0.7476
17299TIP3    H173312   2.819   1.658  10.931  0.0490 -0.6509  0.9181
17299TIP3    H273313   2.945   1.581  10.960 -1.1754 -2.7716  0.8414
17300TIP3   OH273314   3.153   4.741  12.487  0.4777 -0.5364 -0.1469
17300TIP3    H173315   3.199   4.669  12.530 -0.9231 -2.9529 -2.4284
17300TIP3    H273316   3.061   4.714  12.486  0.3949 -0.7902 -4.5478
17301TIP3   OH273317   4.073   0.834   0.702 -0.0551  0.2390 -0.1686
17301TIP3    H173318   4.067   0.824   0.797  1.8002 -0.4457 -0.0690
17301TIP3    H273319   4.066   0.929   0.687 -1.1416  0.2862  0.5580
17302TIP3   OH273320   4.009   5.382  14.214 -0.5013  0.2343  0.2469
17302TIP3    H173321   3.998   5.475  14.233 -1.1433 -0.0687  1.4799
17302TIP3    H273322   3.931   5.358  14.164  0.6414  0.7773 -1.9133
17303TIP3   OH273323   4.446   4.914  14.828 -0.1718  0.0082 -0.1960
17303TIP3    H173324   4.353   4.931  14.811 -0.3305  0.8851  1.3620
17303TIP3    H273325   4.492   4.975  14.770 -0.5424 -0.6811 -1.2386
17304TIP3   OH273326   4.666   5.267   4.137 -0.3809 -0.3715 -0.2325
17304TIP3    H173327   4.618   5.339   4.096 -0.6379  0.6425  1.7347
17304TIP3    H273328   4.721   5.310   4.202  1.2375 -1.7685 -0.6126
17305TIP3   OH273329   2.984   1.073   2.531  0.1971 -0.2220  0.1719
17305TIP3    H173330   3.038   1.083   2.610  1.8197 -0.6656 -0.8441
17305TIP3    H273331   2.981   1.161   2.493  0.4989 -0.2713  0.0362
17306TIP3   OH273332   2.544   5.806   5.306 -0.1428  0.7327 -0.3192
17306TIP3    H173333   2.466   5.773   5.262  0.0600  0.6844 -0.6403
17306TIP3    H273334   2.591   5.728   5.335 -1.0748  0.7563  1.4142
17307TIP3   OH273335   0.838   4.035   2.113 -0.4964  0.3660 -0.4825
17307TIP3    H173336   0.865   4.009   2.201  0.5169  1.4945 -0.4321
17307TIP3    H273337   0.778   3.965   2.085  0.3732 -0.8225  0.4820
17308TIP3   OH273338   1.955   3.053   1.944  0.1268 -0.4669 -0.2948
17308TIP3    H173339   1.970   2.966   1.905  1.4682 -0.5316  0.3133
17308TIP3    H273340   2.006   3.051   2.025  0.0029  0.8251 -0.1784
17309TIP3   OH273341   2.104   6.523  10.514 -0.5701  0.1504 -0.1239
17309TIP3    H173342   2.031   6.479  10.471  0.0681 -2.5089  1.3144
17309TIP3    H273343   2.181   6.499  10.463 -0.2612 -0.0777  0.4349
17310TIP3   OH273344   2.713   1.304   1.005 -0.4300  0.0576 -0.0864
17310TIP3    H173345   2.735   1.262   1.088  1.0221 -0.9896 -0.9364
17310TIP3    H273346   2.627   1.268   0.982 -0.5190 -0.1982  0.6118
17311TIP3   OH273347   2.130   0.861   3.361  0.5466  0.3715 -0.2125
17311TIP3    H173348   2.196   0.895   3.301  1.2148  1.8022  1.2548
17311TIP3    H273349   2.114   0.932   3.422 -1.1869 -0.5247  0.4357
17312TIP3   OH273350   2.940   4.694  16.902 -0.0150 -0.1434  0.4408
17312TIP3    H173351   2.946   4.670  16.810  1.4525  0.7463  0.2667
17312TIP3    H273352   2.888   4.625  16.942 -0.5750 -0.6003 -1.0259
17313TIP3   OH273353   6.573   5.631  12.908  0.4539  0.2075  0.8220
17313TIP3    H173354   6.513   5.597  12.842  0.6731 -1.3333  1.3713
17313TIP3    H273355   6.552   5.724  12.914  0.3705  0.3692 -1.3246
17314TIP3   OH273356   6.369   2.957   5.844 -0.4110  0.2935  0.0155
17314TIP3    H173357   6.310   3.031   5.857  0.0712  0.8888 -1.0726
17314TIP3    H273358   6.362   2.937   5.751 -0.2248 -0.7716  0.2232
17315TIP3   OH273359   0.264   2.476   4.219 -0.0571 -0.2769  0.4968
17315TIP3    H173360   0.309   2.393   4.235  0.0878 -0.5532 -1.1748
17315TIP3    H273361   0.203   2.457   4.148  1.6749  1.5671 -1.6300
17316TIP3   OH273362   6.342   2.572   2.300  0.9177  0.2745  0.2308
17316TIP3    H173363   6.261   2.604   2.340  0.2755  0.6813 -1.3246
17316TIP3    H273364   6.358   2.488   2.343 -0.4327  0.0959  0.4341
17317TIP3   OH273365   6.027   4.320  12.376 -0.1013  0.6047  0.4366
17317TIP3    H173366   5.988   4.392  12.426  0.5822  1.6010 -0.4036
17317TIP3    H273367   6.100   4.291  12.431  0.1866  1.1877  0.3746
17318TIP3   OH273368   5.844   4.577   3.228 -0.1309  0.2545 -0.2279
17318TIP3    H173369   5.775   4.512   3.211 -0.3310 -0.0667  1.5815
17318TIP3    H273370   5.826   4.648   3.166 -1.9107  0.0379 -0.0113
17319TIP3   OH273371   1.417   1.261  15.298 -0.1309 -0.0793  0.2601
17319TIP3    H173372   1.501   1.217  15.283 -0.1994  0.3621 -1.5987
17319TIP3    H273373   1.383   1.279  15.211 -1.1805  1.6516  0.9777
17320TIP3   OH273374   5.596   1.189   5.641 -0.3833  0.2025 -0.5536
17320TIP3    H173375   5.690   1.201   5.627 -0.4498  0.7782 -0.5288
17320TIP3    H273376   5.585   1.187   5.736 -0.5010  1.0341 -0.5456
17321TIP3   OH273377   0.280   6.424   1.659 -0.1448 -0.5065 -0.3336
17321TIP3    H173378   0.316   6.404   1.746 -2.6240  1.0375  1.1619
17321TIP3    H273379   0.208   6.361   1.648 -0.3129 -0.2151 -0.9422
17322TIP3   OH273380   1.509   2.387  13.250  0.3401 -0.1572 -0.3814
17322TIP3    H173381   1.443   2.319  13.260  0.5102 -0.4115 -0.9448
17322TIP3    H273382   1.458   2.467  13.236  0.1094  0.0747  1.4952
17323TIP3   OH273383   2.689   5.453   1.408 -0.6939  0.1360  0.3659
17323TIP3    H173384   2.730   5.415   1.329 -0.5206  0.8357  0.1158
17323TIP3    H273385   2.746   5.426   1.479 -0.2870  0.3489  0.1252
17324TIP3   OH273386   6.471   6.615  14.816 -0.1631 -0.1343  0.2347
17324TIP3    H173387   6.520   6.660  14.884  0.6512 -0.7859  0.0928
17324TIP3    H273388   6.469   6.523  14.844 -1.6876 -0.0593  0.4591
17325TIP3   OH273389   0.429   6.355  15.895 -0.1077  0.4492 -0.4601
17325TIP3    H173390   0.496   6.391  15.836  0.1148  0.5908 -0.1273
17325TIP3    H273391   0.477   6.337  15.976  0.2052 -2.3663 -1.1829
17326TIP3   OH273392   2.376   0.880  12.252  0.2655 -0.3808 -0.3191
17326TIP3    H173393   2.453   0.932  12.230  0.0549 -0.6008 -1.6366
17326TIP3    H273394   2.318   0.889  12.176 -0.0375 -2.0268 -0.3172
17327TIP3   OH273395   1.268   1.919   0.463 -0.2191 -0.6965 -0.3629
17327TIP3    H173396   1.245   1.857   0.393 -0.6283  0.4185 -1.2490
17327TIP3    H273397   1.336   1.974   0.424 -1.7683  1.1521 -0.5826
17328TIP3   OH273398   5.068   0.120   2.170  0.2212  0.6249 -0.3322
17328TIP3    H173399   4.992   0.168   2.136  1.2403  2.5745  0.0258
17328TIP3    H273400   5.120   0.100   2.092 -0.1974  0.0825 -0.4805
17329TIP3   OH273401   6.590   2.671  10.838  0.3370  0.7343  0.0840
17329TIP3    H173402   6.515   2.731  10.840  0.9371  1.4857  0.4381
17329TIP3    H273403   6.580   2.617  10.916 -0.0796  0.5246 -0.1119
17330TIP3   OH273404   3.610   6.268  12.734 -0.5252 -0.6338 -0.1783
17330TIP3    H173405   3.537   6.304  12.683  0.0077  2.2072  0.8855
17330TIP3    H273406   3.573   6.251  12.821 -0.1242 -0.0008  0.1190
17331TIP3   OH273407   2.990   4.695  14.875  0.0722 -0.4052 -0.1025
17331TIP3    H173408   2.984   4.679  14.969  0.3622  0.5318  0.0822
17331TIP3    H273409   2.955   4.616  14.835  0.4940 -1.0576  0.7872
17332TIP3   OH273410   5.260   6.693  13.440  0.1034 -0.6852  0.1865
17332TIP3    H173411   5.225   6.764  13.386 -0.4964  2.1739  3.9551
17332TIP3    H273412   5.184   6.655  13.482  0.7491  0.1685  2.2761
17333TIP3   OH273413   4.246   4.955  17.519  0.4165  0.5073 -0.3423
17333TIP3    H173414   4.239   5.044  17.484  0.5655  0.8090  0.3903
17333TIP3    H273415   4.242   4.965  17.614 -2.6006 -0.5426 -0.2638
17334TIP3   OH273416   1.454   5.926  15.831 -0.4080 -0.5651 -0.5528
17334TIP3    H173417   1.400   5.850  15.813  0.6043 -1.1071 -1.3701
17334TIP3    H273418   1.538   5.890  15.858 -0.2151  0.2651 -0.0099
17335TIP3   OH273419   1.742   5.012   0.621  0.5799  0.2969  0.1463
17335TIP3    H173420   1.677   5.027   0.691 -0.6788 -2.0922 -0.4213
17335TIP3    H273421   1.689   4.990   0.544  2.0588 -0.8449 -0.5706
17336TIP3   OH273422   4.950   0.836   3.531 -0.4935 -0.6992  0.4296
17336TIP3    H173423   5.032   0.839   3.580  0.5710 -0.7542 -1.2608
17336TIP3    H273424   4.932   0.926   3.507 -2.0981 -0.3696  2.5047
17337TIP3   OH273425   3.890   0.489   2.422  0.2276 -0.9164  0.2292
17337TIP3    H173426   3.961   0.523   2.477  1.5347  1.5799 -2.7619
17337TIP3    H273427   3.811   0.502   2.475  1.3632  1.5550  1.4747
17338TIP3   OH273428   3.949   5.214  17.574 -0.8910 -0.3302 -0.1764
17338TIP3    H173429   4.022   5.199  17.514 -1.9921 -0.1884 -1.5862
17338TIP3    H273430   3.877   5.161  17.539 -1.9942  0.8957  0.1625
17339TIP3   OH273431   6.290   4.016  16.807 -0.5884 -0.1224  0.7263
17339TIP3    H173432   6.297   3.937  16.755  0.4608 -0.0025  0.6584
17339TIP3    H273433   6.372   4.063  16.791 -1.5771  1.4571 -0.0015
17340TIP3   OH273434   6.065   0.618   5.933  0.5516 -0.0228  0.5077
17340TIP3    H173435   6.076   0.570   5.851 -0.6295 -0.2439  0.4627
17340TIP3    H273436   6.150   0.610   5.977  0.6990 -1.2980  0.0410
17341TIP3   OH273437   4.528   1.354  11.792 -0.2659  0.5195  0.7855
17341TIP3    H173438   4.524   1.264  11.761 -2.3627  0.5953  0.6480
17341TIP3    H273439   4.574   1.402  11.723 -1.1739 -0.0535 -0.2548
17342TIP3   OH273440   1.693   1.066  10.899  0.4603 -0.1361 -0.1762
17342TIP3    H173441   1.643   1.100  10.973 -0.0877 -1.7348  0.2303
17342TIP3    H273442   1.726   0.981  10.929  0.0574 -0.9200 -1.8081
17343TIP3   OH273443   0.696   1.427  13.178  0.1499 -0.6502  0.2102
17343TIP3    H173444   0.627   1.484  13.144  2.6284  2.3384 -0.2772
17343TIP3    H273445   0.679   1.422  13.272  0.4770  2.0462  0.4990
17344TIP3   OH273446   3.384   4.569   2.368  0.1284 -1.0163 -0.1511
17344TIP3    H173447   3.473   4.549   2.396 -0.1911  1.6922  3.4339
17344TIP3    H273448   3.394   4.639   2.303  0.6203 -0.3539  0.6309
17345TIP3   OH273449   4.080   2.648  16.674  0.2194 -0.1737 -0.1938
17345TIP3    H173450   4.142   2.592  16.627  0.2275  0.0953 -0.5128
17345TIP3    H273451   4.033   2.589  16.732  0.6266 -0.4169 -0.1047
17346TIP3   OH273452   2.666   3.715   2.553  0.0103 -0.5074 -0.1296
17346TIP3    H173453   2.629   3.627   2.542 -4.0968  0.9498  0.4774
17346TIP3    H273454   2.653   3.757   2.468  0.6834 -0.0493 -0.0116
17347TIP3   OH273455   3.256   4.635  12.853 -0.0393 -0.0618 -0.0565
17347TIP3    H173456   3.307   4.709  12.888 -2.9274  1.2707  1.7355
17347TIP3    H273457   3.292   4.621  12.765  1.0073  3.1260 -0.2761
17348TIP3   OH273458   4.887   1.851  15.839  0.4033 -0.7365 -0.4483
17348TIP3    H173459   4.909   1.826  15.928  0.9550 -1.9821 -0.9084
17348TIP3    H273460   4.888   1.769  15.790 -3.5213 -0.6958 -0.9233
17349TIP3   OH273461   3.349   6.260   4.082 -0.3112 -0.9836 -0.3404
17349TIP3    H173462   3.421   6.275   4.144 -0.6473 -1.6913  0.2281
17349TIP3    H273463   3.274   6.304   4.122 -0.6220 -1.7707 -0.0464
17350TIP3   OH273464   1.918   4.942   3.447 -0.0735 -0.1785  0.4671
17350TIP3    H173465   1.926   4.883   3.372 -1.8196  0.1448  0.0019
17350TIP3    H273466   1.973   4.901   3.515  1.7978 -0.3220 -1.0304
17351TIP3   OH273467   2.765   2.825   3.012  0.2434 -0.0855 -0.3107
17351TIP3    H173468   2.801   2.803   2.926  1.2371 -1.0309  0.3147
17351TIP3    H273469   2.673   2.845   2.996 -0.0375 -2.0378 -1.3384
17352TIP3   OH273470   4.515   0.533  15.205  0.3036 -0.5067 -0.2460
17352TIP3    H173471   4.587   0.595  15.211 -1.2503  1.3469  0.1624
17352TIP3    H273472   4.501   0.502  15.295 -1.5908  1.8470  0.3754
17353TIP3   OH273473   6.245   6.520  17.111  0.0093  0.0200 -0.4509
17353TIP3    H173474   6.259   6.587  17.178 -1.3734  0.1325 -0.2340
17353TIP3    H273475   6.329   6.476  17.103  1.4706  2.7591 -1.7085
17354TIP3   OH273476   2.310   4.844  12.664 -0.1995  0.4786  0.2822
17354TIP3    H173477   2.277   4.822  12.751  1.2109  2.1887  1.3124
17354TIP3    H273478   2.258   4.790  12.604 -0.6041 -1.4099  2.2187
17355TIP3   OH273479   0.788   3.877  12.526  0.1947  0.1246  0.4490
17355TIP3    H173480   0.820   3.853  12.613  2.1392  0.2653 -0.2007
17355TIP3    H273481   0.829   3.814  12.467  0.6971  1.4086 -0.6109
17356TIP3   OH273482   3.583   6.340   4.210  0.4314 -0.0719  0.2281
17356TIP3    H173483   3.647   6.271   4.192  0.3576 -0.3054  0.8307
17356TIP3    H273484   3.611   6.413   4.155 -0.0654 -0.8943 -1.1790
17357TIP3   OH273485   4.054   4.537   2.482  0.0049  0.2934 -0.4382
17357TIP3    H173486   4.105   4.458   2.460 -0.0096  0.6477 -1.7711
17357TIP3    H273487   4.086   4.561   2.569  1.4100 -0.0665 -0.8298
17358TIP3   OH273488   0.918   4.595  15.494  0.0471  0.3305 -0.5414
17358TIP3    H173489   0.944   4.609  15.585 -0.0047 -1.0971 -0.2808
17358TIP3    H273490   0.871   4.674  15.470  1.4155  1.3958  0.1581
17359TIP3   OH273491   0.776   3.620  13.470 -0.4280  0.2265 -0.4314
17359TIP3    H173492   0.734   3.551  13.522  0.9065  0.5626  1.1817
17359TIP3    H273493   0.711   3.690  13.466 -0.7192  0.0286  0.4677
17360TIP3   OH273494   5.210   3.883   2.445 -0.0102 -0.7676 -0.3037
17360TIP3    H173495   5.174   3.899   2.358 -1.0820 -1.2082  0.0370
17360TIP3    H273496   5.218   3.971   2.483  0.3346 -0.5822 -0.7912
17361TIP3   OH273497   2.894   4.832  14.173 -0.0630  0.6198 -0.1201
17361TIP3    H173498   2.864   4.906  14.120  1.5661  0.3131 -1.5539
17361TIP3    H273499   2.905   4.761  14.110  0.5622 -0.1846  0.8728
17362TIP3   OH273500   0.839   5.997  10.980  0.2423  0.0069  0.8042
17362TIP3    H173501   0.866   6.071  10.926  0.0887 -0.2215  0.4113
17362TIP3    H273502   0.883   6.011  11.064  1.4819 -0.2952  0.2243
17363TIP3   OH273503   1.895   6.648   6.003  0.4035  0.5010  0.2761
17363TIP3    H173504   1.883   6.680   6.093  1.3166  1.8631 -0.0607
17363TIP3    H273505   1.902   6.727   5.950  0.3771 -0.2849 -0.9425
17364TIP3   OH273506   1.744   4.378   5.018  0.1485 -0.5003 -0.3730
17364TIP3    H173507   1.776   4.302   4.970  1.7948 -0.9711  1.3285
17364TIP3    H273508   1.809   4.446   5.003 -1.0671  0.4620 -1.4955
17365TIP3   OH273509   2.445   5.153   0.444 -0.0817  0.3839 -0.5136
17365TIP3    H173510   2.359   5.177   0.410 -0.9376 -3.7140 -1.7790
17365TIP3    H273511   2.430   5.137   0.537 -0.5348  0.3142 -0.5961
17366TIP3   OH273512   2.701   1.589   4.269 -0.0290  0.2508  0.3460
17366TIP3    H173513   2.768   1.630   4.214  1.7134  1.0199  2.8705
17366TIP3    H273514   2.703   1.497   4.243  0.7696  0.5681 -0.8350
17367TIP3   OH273515   5.715   3.543  16.272 -0.4461  0.0653  0.2677
17367TIP3    H173516   5.635   3.588  16.245  0.5437  0.9078 -1.3711
17367TIP3    H273517   5.698   3.451  16.252 -0.8357  0.2972 -0.5106
17368TIP3   OH273518   1.418   4.265   3.744 -0.7351  0.3209  0.3319
17368TIP3    H173519   1.348   4.253   3.809 -0.2485  2.9999  1.4510
17368TIP3    H273520   1.432   4.359   3.740  1.3923  0.0143 -1.4384
17369TIP3   OH273521   6.572   2.112  11.259 -0.0952 -0.2576 -0.0698
17369TIP3    H173522   6.586   2.154  11.174  1.8803  0.4680  0.5463
17369TIP3    H273523   6.659   2.083  11.286 -1.0778 -2.9138  0.5170
17370TIP3   OH273524   5.738   2.121  15.302  0.0961  0.5591  0.2635
17370TIP3    H173525   5.830   2.098  15.312 -0.5471 -1.5961  2.1127
17370TIP3    H273526   5.711   2.149  15.389 -0.8672  1.8817 -0.4205
17371TIP3   OH273527   1.515   5.798  15.267  0.2440 -0.0616 -0.5755
17371TIP3    H173528   1.600   5.787  15.309 -0.9135 -1.7415  1.5489
17371TIP3    H273529   1.454   5.811  15.340 -1.5195 -0.3936 -1.9246
17372TIP3   OH273530   4.411   6.189  14.446  0.0984 -0.3414 -0.4816
17372TIP3    H173531   4.333   6.222  14.491  0.6880  0.5237 -0.0734
17372TIP3    H273532   4.419   6.243  14.368  1.4934  1.0657  0.5708
17373TIP3   OH273533   1.239   0.356   4.157 -0.6350 -0.0679 -0.1277
17373TIP3    H173534   1.215   0.267   4.184  0.6107  0.4064  2.9528
17373TIP3    H273535   1.157   0.404   4.157 -1.1969 -0.9880 -0.9508
17374TIP3   OH273536   4.969   5.767   2.157  0.3293 -0.0198 -0.4370
17374TIP3    H173537   4.907   5.779   2.229 -1.0752  0.1215 -1.6216
17374TIP3    H273538   5.001   5.855   2.138 -0.6741  0.2213 -1.1246
17375TIP3   OH273539   1.660   6.046  17.135 -0.0458 -0.0720  0.5628
17375TIP3    H173540   1.617   5.961  17.148 -0.8898  0.5116  1.7465
17375TIP3    H273541   1.690   6.072  17.222  0.8883  0.5000  0.0838
17376TIP3   OH273542   5.570   3.177   6.337  0.2799 -0.4811  0.3022
17376TIP3    H173543   5.538   3.130   6.259 -0.4938  0.9395 -0.2716
17376TIP3    H273544   5.508   3.153   6.406  1.3874 -2.3282  0.7156
17377TIP3   OH273545   2.745   0.257   4.278 -0.3645  0.4867  0.5004
17377TIP3    H173546   2.686   0.222   4.211  1.1719  0.5387 -0.9434
17377TIP3    H273547   2.694   0.253   4.359 -1.7074 -1.1787 -0.3551
17378TIP3   OH273548   2.134   4.695  14.819  0.4260  0.1178  0.1216
17378TIP3    H173549   2.105   4.628  14.756  0.0963 -1.2100  1.6202
17378TIP3    H273550   2.229   4.680  14.827  0.3895 -0.0318  0.2853
17379TIP3   OH273551   6.572   0.369  11.545  0.1047 -0.9178 -0.4050
17379TIP3    H173552   6.560   0.286  11.499  0.6607 -1.0614 -0.3048
17379TIP3    H273553   6.621   0.345  11.624 -2.8398 -1.0793  1.5515
17380TIP3   OH273554   4.224   4.025  16.822 -0.6583 -0.4452 -0.9902
17380TIP3    H173555   4.265   3.994  16.742  0.3806 -0.1504 -0.5935
17380TIP3    H273556   4.131   4.033  16.801 -0.3114  0.1866 -2.3437
17381TIP3   OH273557   3.133   4.685   6.146  0.2827 -0.0731  0.3369
17381TIP3    H173558   3.159   4.593   6.139  1.5171  0.0547  2.4200
17381TIP3    H273559   3.040   4.682   6.168  0.2532 -0.8120  0.1299
17382TIP3   OH273560   3.636   5.122  10.767 -0.0404  0.5045 -0.2249
17382TIP3    H173561   3.601   5.202  10.728 -0.1300 -0.1879 -1.6243
17382TIP3    H273562   3.568   5.056  10.752 -0.2919  0.3201  1.5862
17383TIP3   OH273563   1.597   3.053  12.108 -0.2696  0.0978  0.7697
17383TIP3    H173564   1.511   3.038  12.069 -0.3427 -0.0121  0.9744
17383TIP3    H273565   1.657   3.059  12.033 -0.4502  0.1442  0.6285
17384TIP3   OH273566   4.394   6.459   1.845 -0.4555 -0.0269 -0.0123
17384TIP3    H173567   4.401   6.532   1.906  1.2166 -1.2148  1.3231
17384TIP3    H273568   4.419   6.496   1.760 -0.4703  1.1399  0.4855
17385TIP3   OH273569   0.463   4.151  17.186  0.0706  0.2690 -0.2568
17385TIP3    H173570   0.378   4.112  17.166  0.1242  0.4286 -0.8071
17385TIP3    H273571   0.526   4.086  17.155  0.1582 -0.0999  0.6480
17386TIP3   OH273572   5.366   2.351  11.952 -0.0710  0.2156  0.3993
17386TIP3    H173573   5.403   2.435  11.977 -0.3020  0.9858 -1.6586
17386TIP3    H273574   5.425   2.318  11.884  0.5333 -1.7497  1.7848
17387TIP3   OH273575   0.350   0.560  11.873 -0.1914  0.5760 -0.1447
17387TIP3    H173576   0.348   0.643  11.825  0.5848  0.8908  0.3494
17387TIP3    H273577   0.286   0.505  11.828 -1.0012  1.5663 -0.2478
17388TIP3   OH273578   1.150   2.161  11.994  0.0579  0.2647  0.0932
17388TIP3    H173579   1.197   2.186  12.073 -1.8087 -1.6481  1.9346
17388TIP3    H273580   1.166   2.067  11.984 -1.5127  0.0101 -0.4600
17389TIP3   OH273581   3.880   2.439   1.509 -0.0747  0.5836 -0.0111
17389TIP3    H173582   3.860   2.345   1.503  1.9891  0.0143  0.9741
17389TIP3    H273583   3.850   2.475   1.426 -2.0966 -0.6906  0.0988
17390TIP3   OH273584   1.219   1.932   0.162 -0.0601 -0.8613  0.0856
17390TIP3    H173585   1.283   1.907   0.095  0.4397 -0.5741  0.4534
17390TIP3    H273586   1.230   2.027   0.170  0.1138 -0.9409  0.8137
17391TIP3   OH273587   3.552   5.982  10.604 -0.3147  0.6288  0.2100
17391TIP3    H173588   3.552   5.989  10.509 -1.1763 -0.6604  0.0872
17391TIP3    H273589   3.528   6.069  10.635 -0.0134  1.0563 -0.7544
17392TIP3   OH273590   5.864   2.368   6.421 -0.0465  0.0476 -0.0155
17392TIP3    H173591   5.891   2.447   6.374 -0.2417 -0.1514 -0.4678
17392TIP3    H273592   5.933   2.354   6.485 -0.7860  1.4911  1.1613
17393TIP3   OH273593   6.098   5.117   5.950 -0.0973  0.3323 -0.0432
17393TIP3    H173594   6.125   5.161   5.870 -1.0291 -0.1511 -0.6442
17393TIP3    H273595   6.030   5.055   5.922 -0.1219 -0.1634  1.0501
17394TIP3   OH273596   1.486   6.652   0.833  0.4503  0.0239 -0.8358
17394TIP3    H173597   1.569   6.640   0.879  0.8563  0.1585 -1.5324
17394TIP3    H273598   1.469   6.568   0.791  0.1283 -0.0666 -0.5347
17395TIP3   OH273599   3.299   0.586   2.659 -0.5931 -0.3522  0.2328
17395TIP3    H173600   3.232   0.654   2.670  0.5083  1.0275 -1.1877
17395TIP3    H273601   3.374   0.618   2.709 -0.2993 -0.9197  0.1638
17396TIP3   OH273602   6.497   5.878  12.901 -0.7217 -0.3344  0.7346
17396TIP3    H173603   6.539   5.957  12.933 -1.3959  0.2013  0.3324
17396TIP3    H273604   6.444   5.907  12.827 -2.1110 -0.8970  1.4576
17397TIP3   OH273605   1.979   4.977  11.495  0.6231  0.0206 -0.3119
17397TIP3    H173606   1.979   5.064  11.535 -0.5334  0.1197 -0.4967
17397TIP3    H273607   2.061   4.937  11.526  0.4409  0.6061  1.0236
17398TIP3   OH273608   0.364   1.208  15.234 -0.1121  0.4052 -0.1950
17398TIP3    H173609   0.400   1.297  15.239  0.6737  0.1120 -0.5004
17398TIP3    H273610   0.372   1.184  15.142 -1.1818  0.3618 -0.2839
17399TIP3   OH273611   6.256   3.572  14.556  0.3372 -0.1831 -0.0840
17399TIP3    H173612   6.271   3.652  14.505 -0.5491 -0.8729 -1.4729
17399TIP3    H273613   6.166   3.580  14.588  0.7262  0.0192  0.9950
17400TIP3   OH273614   2.294   5.393   1.343  0.0953 -0.6676 -0.0601
17400TIP3    H173615   2.326   5.483   1.347 -0.2651 -0.5829  1.5652
17400TIP3    H273616   2.199   5.402   1.342  0.0500 -1.0229  0.5299
17401TIP3   OH273617   2.911   1.251  14.602  0.5471 -0.1695 -0.1322
17401TIP3    H173618   2.910   1.343  14.626 -3.5762  0.6005 -2.2787
17401TIP3    H273619   2.945   1.250  14.512 -1.6338 -0.3108 -1.0040
17402TIP3   OH273620   1.872   2.297  16.853 -0.2608 -0.1237 -0.5679
17402TIP3    H173621   1.814   2.274  16.926  1.0062 -0.7432  0.2903
17402TIP3    H273622   1.939   2.353  16.893 -0.1808  0.4607 -1.5036
17403TIP3   OH273623   0.099   2.576   5.810  0.5789 -0.7495  0.0752
17403TIP3    H173624   0.042   2.534   5.875  2.1636 -1.3318  1.1403
17403TIP3    H273625   0.126   2.505   5.753  0.9826 -0.6541  0.1464
17404TIP3   OH273626   2.205   6.521  14.064 -0.0537  1.2780 -0.3969
17404TIP3    H173627   2.190   6.432  14.034  1.0765  1.5292 -1.8152
17404TIP3    H273628   2.133   6.538  14.125 -0.6382 -0.3683 -0.5659
17405TIP3   OH273629   6.595   0.604  17.338 -0.3135  0.7755  0.7430
17405TIP3    H173630   6.689   0.608  17.326 -0.5401  1.3630 -1.0857
17405TIP3    H273631   6.568   0.522  17.296 -0.5953  0.3574  1.6856
17406TIP3   OH273632   2.943   3.752   5.069 -0.1916 -0.0500  0.6856
17406TIP3    H173633   2.945   3.740   5.164 -0.1161 -0.4878  0.6274
17406TIP3    H273634   2.868   3.701   5.040  0.2577 -0.5711  0.4189
17407TIP3   OH273635   3.501   1.722  10.715  0.1950  0.2327  0.1878
17407TIP3    H173636   3.438   1.654  10.737 -0.2684  0.0870 -1.4259
17407TIP3    H273637   3.449   1.791  10.675  0.8259  0.9728  0.6118
17408TIP3   OH273638   4.297   4.327  16.939  0.8837 -0.0566  0.1090
17408TIP3    H173639   4.327   4.281  16.861  1.4780  0.7659 -0.1518
17408TIP3    H273640   4.248   4.260  16.988  0.7302 -0.6525 -0.8224
17409TIP3   OH273641   4.048   4.233  16.162 -0.1208  0.5450 -0.5588
17409TIP3    H173642   4.130   4.264  16.201 -0.6457 -0.9356  1.9445
17409TIP3    H273643   4.075   4.168  16.098  0.7025  1.3095 -1.0095
17410TIP3   OH273644   3.006   3.337   1.816 -0.5729  0.1997  0.5112
17410TIP3    H173645   3.098   3.356   1.800  0.0264 -1.6410  1.4163
17410TIP3    H273646   2.979   3.402   1.882  0.0291  0.8175  0.1564
17411TIP3   OH273647   6.129   3.765   5.108 -0.0932 -0.1325 -0.2757
17411TIP3    H173648   6.099   3.744   5.019 -0.4808  1.7576 -0.6445
17411TIP3    H273649   6.218   3.731   5.111  0.6304  1.3947 -2.0966
17412TIP3   OH273650   2.413   2.859   2.044 -0.0444 -0.0043  0.4224
17412TIP3    H173651   2.504   2.845   2.017  0.3094  2.9270 -0.2693
17412TIP3    H273652   2.361   2.818   1.975  0.7838  0.1217 -0.2975
17413TIP3   OH273653   4.993   6.524   3.683  0.8299 -0.3463 -1.0439
17413TIP3    H173654   4.972   6.530   3.777 -0.5144 -0.6299 -1.3008
17413TIP3    H273655   5.003   6.615   3.656 -0.9767 -0.1085 -1.0530
17414TIP3   OH273656   6.299   5.484  14.065 -0.4487 -0.8116  0.0876
17414TIP3    H173657   6.242   5.497  14.141 -0.0399 -0.7158  0.3807
17414TIP3    H273658   6.302   5.389  14.054 -3.3300 -0.8069 -1.9733
17415TIP3   OH273659   2.867   1.988  14.693 -0.0557 -0.6315  0.0531
17415TIP3    H173660   2.874   2.043  14.770  0.6803 -0.8662  0.1618
17415TIP3    H273661   2.872   2.049  14.619 -1.0569 -0.3770  0.1794
17416TIP3   OH273662   4.454   4.462  16.552 -0.4638 -0.2107 -0.3334
17416TIP3    H173663   4.549   4.456  16.559 -0.6048 -1.2906  1.7310
17416TIP3    H273664   4.425   4.372  16.534 -1.0802  0.1461 -1.1741
17417TIP3   OH273665   2.016   4.037   3.975 -0.2503  0.9519 -0.0495
17417TIP3    H173666   2.080   4.073   4.036 -0.3846 -0.1597  0.7681
17417TIP3    H273667   2.060   4.040   3.890  1.2258 -0.5297  0.6118
17418TIP3   OH273668   5.843   5.315  13.768  0.3098  0.3648 -0.1753
17418TIP3    H173669   5.798   5.232  13.751 -0.6083  0.7704  0.2118
17418TIP3    H273670   5.935   5.290  13.779 -0.1663 -0.8554  1.6086
17419TIP3   OH273671   0.765   5.001  16.624  0.2621  0.6224  0.2492
17419TIP3    H173672   0.684   4.959  16.595 -0.0124  1.8069 -0.8008
17419TIP3    H273673   0.780   4.967  16.712 -1.1563  0.0620  0.3027
17420TIP3   OH273674   1.822   4.663  10.687 -0.2418 -0.7392 -0.7294
17420TIP3    H173675   1.869   4.714  10.752 -0.9213 -1.2567  0.1985
17420TIP3    H273676   1.885   4.647  10.617  0.7629 -0.8967  0.1959
17421TIP3   OH273677   4.166   3.594  15.024 -0.4395 -0.2204 -0.2885
17421TIP3    H173678   4.106   3.553  15.085 -1.5640 -0.7911 -1.7148
17421TIP3    H273679   4.128   3.681  15.008  0.1950  0.1737  0.2784
17422TIP3   OH273680   0.680   1.270  14.271  0.1124  0.0485 -0.0628
17422TIP3    H173681   0.656   1.343  14.214  1.0019  1.2054  1.0077
17422TIP3    H273682   0.757   1.231  14.229  0.9606  1.0940  0.4755
17423TIP3   OH273683   1.899   5.467  14.993 -0.2267  0.1385  0.2234
17423TIP3    H173684   1.922   5.424  15.075 -2.6574 -3.1999 -0.6156
17423TIP3    H273685   1.939   5.411  14.925  0.4996  1.9725 -0.9246
17424TIP3   OH273686   1.637   3.229  10.262  0.7207 -0.6131 -0.4317
17424TIP3    H173687   1.561   3.172  10.259 -0.9281  1.2815  1.6217
17424TIP3    H273688   1.616   3.301  10.202  0.7555  0.0327  0.3161
17425TIP3   OH273689   3.566   6.526   0.577  0.3025 -0.7026 -0.4957
17425TIP3    H173690   3.513   6.585   0.523  1.0309 -1.1741 -1.7731
17425TIP3    H273691   3.502   6.476   0.628 -0.3919  0.0457 -0.6080
17426TIP3   OH273692   1.299   0.688   1.636  0.6505 -0.1630  0.4482
17426TIP3    H173693   1.238   0.628   1.593 -0.0728  0.5278  0.4932
17426TIP3    H273694   1.385   0.652   1.616  0.2694 -0.6228 -0.4217
17427TIP3   OH273695   3.912   5.610   0.071  0.0029 -0.1646  0.0069
17427TIP3    H173696   3.990   5.622   0.016 -1.2514  1.3431 -1.5398
17427TIP3    H273697   3.947   5.596   0.159  2.0267 -0.1056 -0.7358
17428TIP3   OH273698   0.364   0.444  17.381 -0.4926 -0.3085  0.1753
17428TIP3    H173699   0.278   0.484  17.388 -0.7539 -0.9881  0.9272
17428TIP3    H273700   0.422   0.504  17.428 -0.6188 -0.0493  0.0027
17429TIP3   OH273701   4.208   4.584  14.530 -0.3264 -0.3081  0.0992
17429TIP3    H173702   4.230   4.642  14.456 -0.0317 -2.0218 -1.2071
17429TIP3    H273703   4.204   4.643  14.605  0.9302  1.2778 -0.9927
17430TIP3   OH273704   5.647   3.257   1.889  0.6353  1.0150 -0.3887
17430TIP3    H173705   5.584   3.269   1.961 -0.2750  2.5366 -1.3675
17430TIP3    H273706   5.657   3.162   1.881 -2.2801  0.6339 -0.7680
17431TIP3   OH273707   5.650   4.933  13.511  0.1669 -0.4974  0.5303
17431TIP3    H173708   5.658   4.844  13.476  0.8780 -0.5317  0.7854
17431TIP3    H273709   5.729   4.978  13.480 -0.0036 -0.0619  0.7282
17432TIP3   OH273710   6.484   0.000   0.956  0.1243 -0.0288  0.2218
17432TIP3    H173711   6.519  -0.086   0.937 -0.4842 -0.4923  1.1212
17432TIP3    H273712   6.464  -0.002   1.049  0.4368  1.2123  0.3374
17433TIP3   OH273713   1.230   4.383   4.545 -0.1958 -0.1000 -0.7862
17433TIP3    H173714   1.301   4.434   4.507  0.6089 -1.6695 -1.4865
17433TIP3    H273715   1.212   4.425   4.629  0.6761  1.0815 -1.1696
17434TIP3   OH273716   0.260   4.139   5.932 -0.5019 -0.4472 -0.6432
17434TIP3    H173717   0.221   4.077   5.994  0.5689  0.7633  1.3430
17434TIP3    H273718   0.316   4.194   5.985  0.2130  0.9112 -2.6774
17435TIP3   OH273719   4.407   3.158  12.662 -0.2161  0.2989  0.4730
17435TIP3    H173720   4.396   3.156  12.567 -0.1790  0.7650  0.4563
17435TIP3    H273721   4.319   3.144  12.697 -0.1093 -0.6731  0.3799
17436TIP3   OH273722   4.857   6.035  12.127 -0.0596  0.3570 -0.0138
17436TIP3    H173723   4.780   6.091  12.140 -0.3091 -0.3287  1.5852
17436TIP3    H273724   4.822   5.946  12.124  0.7086 -0.0152  1.3411
17437TIP3   OH273725   1.192   6.505   1.794 -0.0290  0.4498  0.6520
17437TIP3    H173726   1.284   6.513   1.819  0.0926 -1.1902  0.8669
17437TIP3    H273727   1.145   6.501   1.877  0.1702 -2.9141  0.7261
17438TIP3   OH273728   6.188   0.999   6.103  0.3030 -0.3027 -0.6145
17438TIP3    H173729   6.259   0.940   6.127 -0.8550 -1.0791  1.1856
17438TIP3    H273730   6.115   0.941   6.082 -1.1462  0.3488  2.0835
17439TIP3   OH273731   1.872   2.065   3.208  0.7746 -0.0879  0.4832
17439TIP3    H173732   1.891   1.989   3.153  0.4317  1.5203 -2.0224
17439TIP3    H273733   1.901   2.140   3.156 -1.7768  1.6952  1.4431
17440TIP3   OH273734   2.089   5.920   5.310  0.7535  0.2912 -0.1468
17440TIP3    H173735   2.062   6.005   5.275  0.3804  0.4170  0.4407
17440TIP3    H273736   2.053   5.918   5.399  1.2803 -0.2241  0.0626
17441TIP3   OH273737   2.676   0.617   2.123 -0.1150 -0.2406 -0.0060
17441TIP3    H173738   2.658   0.684   2.189 -0.9508  0.1998 -0.6648
17441TIP3    H273739   2.598   0.562   2.123  0.0046 -0.4138 -0.4048
17442TIP3   OH273740   6.138   1.633   5.328  0.1702 -0.6288  0.0833
17442TIP3    H173741   6.193   1.591   5.395  1.6150  1.5557  0.3411
17442TIP3    H273742   6.164   1.590   5.247  0.1076 -1.6722  0.5938
17443TIP3   OH273743   4.682   0.327  16.857  0.0723 -0.0070  0.6291
17443TIP3    H173744   4.613   0.277  16.812  1.0045 -1.6940  0.9987
17443TIP3    H273745   4.741   0.260  16.891  0.5872  1.3162  2.4553
17444TIP3   OH273746   4.481   2.801  17.034  0.3808  0.4537 -0.6065
17444TIP3    H173747   4.514   2.712  17.030  0.3804  0.3068  1.5460
17444TIP3    H273748   4.425   2.803  17.112 -0.6329  2.0196 -1.3134
17445TIP3   OH273749   0.065   6.701  15.953  0.3444  0.2975 -0.2176
17445TIP3    H173750   0.095   6.787  15.983  2.8171 -0.6594  0.2503
17445TIP3    H273751   0.078   6.643  16.029  0.0455 -0.7677 -0.9539
17446TIP3   OH273752   2.036   4.368   3.937  0.3983 -0.4629 -0.5835
17446TIP3    H173753   1.984   4.296   3.900  0.7439 -1.5252  0.8974
17446TIP3    H273754   2.126   4.350   3.909  0.2811  0.3143 -1.5386
17447TIP3   OH273755   0.566   1.461  10.986  0.3256 -0.6041 -0.2626
17447TIP3    H173756   0.482   1.463  10.941 -0.8234 -1.0195  1.7281
17447TIP3    H273757   0.626   1.416  10.926 -0.8827 -0.3812 -1.6737
17448TIP3   OH273758   0.462   2.548  13.152 -0.1946  0.2017 -0.0503
17448TIP3    H173759   0.526   2.480  13.135 -0.0183  0.0658  1.0950
17448TIP3    H273760   0.387   2.526  13.096  0.8207  0.5112 -1.6038
17449TIP3   OH273761   1.927   5.429   5.253 -0.0891 -0.5397  0.1627
17449TIP3    H173762   1.978   5.469   5.323 -0.9735 -0.0525  0.5378
17449TIP3    H273763   1.894   5.502   5.201 -1.1290 -0.7931  0.4388
17450TIP3   OH273764   1.042   4.372   2.733 -0.0388  0.4164 -0.5974
17450TIP3    H173765   1.070   4.296   2.783  0.2834  0.3835 -0.8276
17450TIP3    H273766   0.950   4.354   2.712 -0.1198  0.3421 -0.1907
17451TIP3   OH273767   3.253   4.611  13.665 -0.5700  0.3540  0.5356
17451TIP3    H173768   3.182   4.550  13.685  0.1265 -0.2534  1.2587
17451TIP3    H273769   3.301   4.570  13.593 -0.2879  0.1848  0.8130
17452TIP3   OH273770   2.030   0.960  13.511  0.2830 -0.2184  0.3814
17452TIP3    H173771   2.061   0.917  13.591 -0.3519 -1.1765  0.1336
17452TIP3    H273772   2.109   0.995  13.470  0.7269 -0.4843  0.9911
17453TIP3   OH273773   0.845   0.619   1.453  0.1406 -0.3320  0.3360
17453TIP3    H173774   0.879   0.586   1.536 -0.8510  2.4045  1.9458
17453TIP3    H273775   0.753   0.595   1.453  0.7705 -3.3698 -1.7288
17454TIP3   OH273776   3.676   5.666   4.105  0.3450 -0.0742 -0.0652
17454TIP3    H173777   3.723   5.609   4.166  0.1513 -1.2075 -0.9355
17454TIP3    H273778   3.714   5.753   4.120  1.4393 -0.6225  0.5247
17455TIP3   OH273779   2.994   4.131  12.110 -0.5629 -0.5440  0.2368
17455TIP3    H173780   2.989   4.041  12.142 -1.4303 -0.4588  0.3669
17455TIP3    H273781   2.952   4.183  12.179 -0.9990 -0.1691 -0.3009
17456TIP3   OH273782   3.165   2.529  11.832 -0.0585 -0.4129  0.2971
17456TIP3    H173783   3.181   2.579  11.751 -0.5353 -0.0850  0.3979
17456TIP3    H273784   3.252   2.515  11.869  0.0134  1.9040  1.1828
17457TIP3   OH273785   0.931   2.998   3.831 -0.0160 -0.1375  0.0714
17457TIP3    H173786   0.977   2.943   3.894  0.8557  0.4054 -0.0717
17457TIP3    H273787   0.988   3.000   3.754 -0.0647  0.8670  0.0402
17458TIP3   OH273788   0.855   0.747   4.394 -0.0607 -0.3538  0.1835
17458TIP3    H173789   0.793   0.681   4.425 -0.5479 -0.0471 -0.1244
17458TIP3    H273790   0.937   0.725   4.438 -0.4786 -0.5476  0.8832
17459TIP3   OH273791   1.327   0.612  16.997  0.4672 -0.3571  0.0593
17459TIP3    H173792   1.327   0.670  16.921 -1.0995  1.1268  1.1122
17459TIP3    H273793   1.288   0.531  16.965 -0.3128  0.2975 -0.7125
17460TIP3   OH273794   1.163   5.045   2.635  0.3121  0.5442  0.1476
17460TIP3    H173795   1.178   4.992   2.714  0.2762 -0.2761 -0.3855
17460TIP3    H273796   1.088   5.003   2.593 -0.3717  1.6499  0.2413
17461TIP3   OH273797   5.875   0.287  13.793 -0.2471  0.0940  0.4578
17461TIP3    H173798   5.891   0.366  13.844  1.2237 -0.2032  0.5004
17461TIP3    H273799   5.780   0.275  13.796 -0.5924  2.2285 -0.1325
17462TIP3   OH273800   3.466   0.941  11.882  0.1322 -0.3657  0.4161
17462TIP3    H173801   3.507   1.019  11.843  0.8722 -0.5843  0.7318
17462TIP3    H273802   3.379   0.970  11.908 -0.7944 -0.4595 -2.2942
17463TIP3   OH273803   3.382   3.328  13.047 -0.1976 -0.5082  0.1706
17463TIP3    H173804   3.411   3.267  12.979 -0.0986  0.0813 -0.3268
17463TIP3    H273805   3.370   3.274  13.125  0.2523 -1.0980 -0.1640
17464TIP3   OH273806   3.950   2.092  15.024  0.3836  0.3639 -0.5670
17464TIP3    H173807   3.876   2.100  15.084  0.8445  0.7226 -0.0253
17464TIP3    H273808   3.943   2.167  14.965 -0.0710  0.0111 -0.9643
17465TIP3   OH273809   3.291   2.411   1.064  0.0458  0.5485  0.0893
17465TIP3    H173810   3.270   2.318   1.049  2.4012  0.1351 -1.2001
17465TIP3    H273811   3.292   2.420   1.159 -1.9043 -0.2772  0.2389
17466TIP3   OH273812   6.579   4.512   0.939 -0.6992  0.1641  0.0511
17466TIP3    H173813   6.545   4.586   0.889 -0.6470  0.3990  0.3583
17466TIP3    H273814   6.583   4.440   0.876 -1.9827  0.0651  0.0508
17467TIP3   OH273815   3.695   1.724   2.585  0.3571 -0.1428 -0.4198
17467TIP3    H173816   3.603   1.746   2.597  0.5412  0.3133  0.2231
17467TIP3    H273817   3.697   1.670   2.506 -0.5463 -0.7503 -0.0458
17468TIP3   OH273818   1.662   0.182  14.886 -0.1356 -0.0061 -0.2671
17468TIP3    H173819   1.633   0.091  14.890 -2.0976  0.6281  2.2064
17468TIP3    H273820   1.678   0.207  14.977  0.2327  2.1731 -0.8602
17469TIP3   OH273821   3.626   0.031  16.592  0.4389 -0.0354 -0.3388
17469TIP3    H173822   3.622  -0.049  16.645 -1.4312 -0.0942 -0.5179
17469TIP3    H273823   3.588   0.005  16.508  0.5600  0.8557 -0.6736
17470TIP3   OH273824   0.634   1.014   0.646  0.1451  0.0433 -0.3543
17470TIP3    H173825   0.548   0.999   0.605  0.6908 -1.6109 -0.9875
17470TIP3    H273826   0.665   0.926   0.668  0.4425  0.7946  2.5478
17471TIP3   OH273827   1.438   5.537   1.492  0.2422  0.0324  0.5531
17471TIP3    H173828   1.475   5.521   1.579 -2.1142 -0.5457  1.5200
17471TIP3    H273829   1.344   5.544   1.507 -0.4396 -1.8459 -2.1607
17472TIP3   OH273830   1.694   5.685  16.408 -0.2819  0.0379 -0.7127
17472TIP3    H173831   1.663   5.641  16.329 -3.0353  1.9021 -0.7965
17472TIP3    H273832   1.722   5.772  16.379 -3.4364  1.6058  0.4886
17473TIP3   OH273833   0.888   4.538   1.481  0.7392 -0.4082 -0.1281
17473TIP3    H173834   0.924   4.600   1.545  1.0041  1.5390 -2.0076
17473TIP3    H273835   0.956   4.472   1.470  3.3772  2.3663 -2.4690
17474TIP3   OH273836   4.480   1.508   5.597 -0.5379  0.1764 -0.0443
17474TIP3    H173837   4.439   1.570   5.537  1.6068  0.8982 -0.8516
17474TIP3    H273838   4.550   1.468   5.546 -0.1608 -0.9269  1.2875
17475TIP3   OH273839   2.288   1.998  14.505 -0.2169 -0.0741 -0.7221
17475TIP3    H173840   2.212   1.943  14.523 -0.7527  0.4228 -1.4534
17475TIP3    H273841   2.252   2.084  14.486  0.5213  0.1332 -1.2104
17476TIP3   OH273842   0.219   2.129  14.076  0.4599  0.0955 -0.0923
17476TIP3    H173843   0.201   2.135  13.982  0.3202  1.9464  0.0199
17476TIP3    H273844   0.192   2.214  14.111  2.2990  0.1619  1.3110
17477TIP3   OH273845   5.293   2.678  15.585  0.1720 -0.0881 -0.3152
17477TIP3    H173846   5.227   2.711  15.524 -0.2069 -2.0615 -1.0723
17477TIP3    H273847   5.246   2.613  15.638  0.4707  1.6321  2.2355
17478TIP3   OH273848   0.619   1.251   5.188  0.0178 -0.3240  0.5664
17478TIP3    H173849   0.572   1.241   5.106  0.2398  0.9454  0.2579
17478TIP3    H273850   0.685   1.318   5.170  1.1372 -1.1744  1.3287
17479TIP3   OH273851   5.585   6.379   3.984  0.2033 -0.3989 -0.3966
17479TIP3    H173852   5.610   6.471   3.988 -2.2210  0.2987  0.4520
17479TIP3    H273853   5.549   6.367   3.896 -0.5328 -0.1994 -0.1336
17480TIP3   OH273854   0.228   4.717  13.513 -0.0111  0.0849 -0.3343
17480TIP3    H173855   0.237   4.781  13.583 -1.1293  0.4809 -0.5244
17480TIP3    H273856   0.178   4.763  13.445  1.5912 -0.0800 -1.6788
17481TIP3   OH273857   3.943   0.005  13.336  0.7988  0.7248 -0.4186
17481TIP3    H173858   3.979   0.072  13.394 -0.6555  0.0050  1.4184
17481TIP3    H273859   3.872   0.049  13.289 -1.9014  0.0192  2.6594
17482TIP3   OH273860   5.937   2.542  13.638 -0.1078  0.0240  0.0600
17482TIP3    H173861   5.924   2.634  13.615  0.0438 -0.3953 -1.8366
17482TIP3    H273862   5.885   2.493  13.574  1.8576 -1.2945 -0.6272
17483TIP3   OH273863   3.326   1.994  14.949 -0.3412 -0.4268  0.0377
17483TIP3    H173864   3.332   2.046  15.029 -1.0522  0.7169 -0.6205
17483TIP3    H273865   3.234   2.000  14.924 -0.3249 -1.5935 -0.3409
17484TIP3   OH273866   0.658   5.287   6.036 -0.2365  0.2951  0.4253
17484TIP3    H173867   0.577   5.267   5.988  0.7937 -0.7046 -1.0032
17484TIP3    H273868   0.637   5.268   6.127 -0.8288 -2.8830 -0.2213
17485TIP3   OH273869   1.647   3.654   1.362 -0.4705 -0.0674 -0.1072
17485TIP3    H173870   1.638   3.739   1.405 -0.1293 -0.9667  1.8660
17485TIP3    H273871   1.733   3.621   1.391 -1.0221 -1.5149 -0.0085
17486TIP3   OH273872   0.982   0.175  15.154  0.0002 -0.0954 -0.8293
17486TIP3    H173873   0.919   0.138  15.217 -0.9752  2.8900  0.1173
17486TIP3    H273874   1.067   0.145  15.185 -0.7008 -1.8275 -0.4083
17487TIP3   OH273875   0.817   4.185  16.288  0.1921 -0.1405  0.9540
17487TIP3    H173876   0.733   4.194  16.332 -0.3013  2.4995 -0.3313
17487TIP3    H273877   0.833   4.270  16.248  3.1988 -0.7521  0.5988
17488TIP3   OH273878   2.433   0.213  12.398  0.5832 -0.9996  0.1146
17488TIP3    H173879   2.431   0.305  12.425  2.8245  0.0809 -2.8414
17488TIP3    H273880   2.503   0.174  12.451  1.0101 -0.4360 -0.0233
17489TIP3   OH273881   0.465   6.605  11.179  0.1595 -1.0876  0.0848
17489TIP3    H173882   0.547   6.652  11.165 -0.9615  1.5797  1.5698
17489TIP3    H273883   0.453   6.604  11.274 -1.7419 -0.8926 -0.1022
17490TIP3   OH273884   5.208   0.762   3.664  0.6091  0.2249 -0.2321
17490TIP3    H173885   5.249   0.676   3.655 -1.8025 -1.3619  2.0746
17490TIP3    H273886   5.254   0.803   3.737 -0.1020 -0.4397  0.6228
17491TIP3   OH273887   5.282   3.103  11.932 -0.0999 -0.2355  0.0497
17491TIP3    H173888   5.251   3.089  12.022 -0.7658 -1.5501 -0.3452
17491TIP3    H273889   5.375   3.122  11.941 -0.4016  0.8810  1.0905
17492TIP3   OH273890   5.358   5.338   1.395 -0.2376  0.3028  0.2595
17492TIP3    H173891   5.413   5.395   1.342 -2.2147  1.9201 -0.1607
17492TIP3    H273892   5.319   5.277   1.332  1.9122 -1.7350  0.7109
17493TIP3   OH273893   1.709   4.480  17.315  0.8636  0.3126 -0.3146
17493TIP3    H173894   1.782   4.455  17.373  0.2559  2.2208  1.4212
17493TIP3    H273895   1.742   4.556  17.267  0.6457  0.0120 -0.9440
17494TIP3   OH273896   6.260   4.556   4.419 -0.0118  0.0954  0.3981
17494TIP3    H173897   6.332   4.597   4.468 -0.5684 -0.3520  1.6383
17494TIP3    H273898   6.304   4.500   4.356  0.7750 -1.0298  1.8661
17495TIP3   OH273899   4.326   4.908  16.676 -0.1549 -0.2327 -0.3594
17495TIP3    H173900   4.279   4.827  16.654 -2.3670  1.1739 -1.0383
17495TIP3    H273901   4.288   4.936  16.759 -0.0406  0.5849 -0.5790
17496TIP3   OH273902   0.034   4.042  16.096 -0.6963  0.2874  0.2340
17496TIP3    H173903   0.027   4.088  16.180  3.1498  0.7351  0.4892
17496TIP3    H273904  -0.016   4.095  16.035 -0.9357  1.7496  1.6430
17497TIP3   OH273905   2.755   4.156   3.249 -0.2344  0.2585  0.3426
17497TIP3    H173906   2.664   4.184   3.249 -0.1219  0.6252  0.4705
17497TIP3    H273907   2.772   4.128   3.159 -0.8069 -0.9150  0.5844
17498TIP3   OH273908   3.395   3.483  11.779 -0.2245  0.4255 -0.3574
17498TIP3    H173909   3.354   3.507  11.695  1.1420 -0.7957 -1.4151
17498TIP3    H273910   3.407   3.567  11.824 -0.3832  1.1832 -1.6658
17499TIP3   OH273911   0.861   2.613   2.895 -0.2801  0.3243 -0.2039
17499TIP3    H173912   0.836   2.689   2.842 -0.9889 -0.2352 -0.6832
17499TIP3    H273913   0.794   2.547   2.876 -0.0836 -0.1679  0.7662
17500TIP3   OH273914   4.781   0.054   2.962  0.5121 -0.0093  0.1767
17500TIP3    H173915   4.799   0.006   3.043  0.6190 -0.0439  0.1325
17500TIP3    H273916   4.852   0.118   2.956  0.4957  0.0029  0.1171
17501TIP3   OH273917   1.834   4.416  12.260 -0.7043 -0.0989  0.0749
17501TIP3    H173918   1.896   4.462  12.317 -1.9302  1.4162  0.2689
17501TIP3    H273919   1.751   4.421  12.307 -1.9535  1.9336 -2.1129
17502TIP3   OH273920   4.793   0.183  15.832 -0.9630 -0.6341  0.2469
17502TIP3    H173921   4.743   0.170  15.913 -1.4943 -0.0861  0.0207
17502TIP3    H273922   4.751   0.125  15.769 -2.1148  0.7090 -0.2627
17503TIP3   OH273923   1.450   1.084  17.292 -0.1466  0.3151 -0.3366
17503TIP3    H173924   1.501   1.163  17.277 -0.0729 -0.0343 -2.0596
17503TIP3    H273925   1.500   1.015  17.249 -1.3945 -0.2721 -0.8814
17504TIP3   OH273926   1.478   3.849  15.666  0.3863  0.0827  0.5826
17504TIP3    H173927   1.522   3.901  15.600 -0.1854 -0.1290  0.0289
17504TIP3    H273928   1.390   3.888  15.674  0.0498 -0.6091  0.3625
17505TIP3   OH273929   1.111   0.854  12.721 -0.1807 -0.3372  0.5176
17505TIP3    H173930   1.121   0.939  12.764  0.4602 -0.1765  0.0556
17505TIP3    H273931   1.165   0.794  12.773  1.6156  0.1084 -0.7567
17506TIP3   OH273932   2.085   3.780   2.362  0.1536  0.4723  0.1513
17506TIP3    H173933   2.012   3.840   2.354 -0.0891  0.0429 -1.2028
17506TIP3    H273934   2.092   3.740   2.275  1.6248  0.0872  0.4206
17507TIP3   OH273935   0.297   4.527  13.687  0.2738 -0.0694 -0.2997
17507TIP3    H173936   0.254   4.575  13.617  2.2621  0.4241 -1.2567
17507TIP3    H273937   0.310   4.592  13.757  2.9449  0.9075 -1.5845
17508TIP3   OH273938   1.807   6.364  15.244  0.0271 -0.0260 -0.1324
17508TIP3    H173939   1.729   6.312  15.265 -1.0331  1.3642 -0.4426
17508TIP3    H273940   1.863   6.357  15.321 -0.5668 -0.7670  0.2423
17509TIP3   OH273941   5.169   1.212   5.953 -0.0392  0.7520  0.2608
17509TIP3    H173942   5.201   1.168   6.032  0.2633 -1.1595 -0.8708
17509TIP3    H273943   5.075   1.224   5.970 -0.1122 -0.2644  0.6472
17510TIP3   OH273944   1.317   2.086   6.259 -0.1657 -0.1590  0.1287
17510TIP3    H173945   1.404   2.087   6.299  0.0575  0.8316 -0.3498
17510TIP3    H273946   1.261   2.130   6.323 -0.3176 -0.7693  0.4231
17511TIP3   OH273947   5.352   3.798  15.145 -0.1359 -0.1073 -0.1057
17511TIP3    H173948   5.372   3.705  15.130 -1.6502 -0.3054 -1.0567
17511TIP3    H273949   5.336   3.834  15.058  2.3632  1.5668  0.0339
17512TIP3   OH273950   0.466   3.826   5.218 -0.0735 -0.2668 -0.1680
17512TIP3    H173951   0.379   3.802   5.250  0.5992 -0.1976  1.9267
17512TIP3    H273952   0.515   3.744   5.218  1.0383  0.2682  2.9529
17513TIP3   OH273953   3.991   4.480  15.959  1.2820 -0.2527 -0.6130
17513TIP3    H173954   4.026   4.553  16.008 -1.1827  0.8142 -0.2796
17513TIP3    H273955   4.064   4.449  15.905  2.2553  2.8238 -1.2256
17514TIP3   OH273956   3.023   0.424   1.691  0.3222  0.0037 -0.1804
17514TIP3    H173957   3.040   0.434   1.784 -1.1230  0.7385  0.0354
17514TIP3    H273958   3.037   0.331   1.673 -2.1366 -0.7616  1.4147
17515TIP3   OH273959   4.629   4.048   0.648  0.3692  0.0237 -0.4221
17515TIP3    H173960   4.538   4.079   0.650  0.3178 -0.1375  0.3663
17515TIP3    H273961   4.673   4.105   0.586 -0.3543 -0.1299 -1.0980
17516TIP3   OH273962   0.005   2.866   0.231 -0.1285  0.5321  0.4857
17516TIP3    H173963   0.085   2.840   0.185  0.1909  1.8632  0.2269
17516TIP3    H273964  -0.066   2.822   0.184  0.3812  0.0814  0.1297
17517TIP3   OH273965   3.862   4.398  13.367  0.2332  0.6268 -0.6147
17517TIP3    H173966   3.926   4.399  13.296 -1.0413 -0.1703 -1.8453
17517TIP3    H273967   3.851   4.305  13.388  0.5309  0.8445  0.6056
17518TIP3   OH273968   0.995   0.557  16.474  0.7594 -0.3210  0.1675
17518TIP3    H173969   0.951   0.629  16.431  2.4934 -0.4054 -1.8821
17518TIP3    H273970   0.958   0.478  16.434 -0.4563 -0.6002  1.7338
17519TIP3   OH273971   4.527   6.471  14.643 -0.1161  0.5033  0.0781
17519TIP3    H173972   4.567   6.541  14.591  0.6159 -0.6020 -0.9018
17519TIP3    H273973   4.442   6.456  14.602 -0.9507  1.8552  1.2549
17520TIP3   OH273974   4.719   2.972   1.089  0.3225 -0.4752  0.0024
17520TIP3    H173975   4.663   3.036   1.134  0.9142 -0.0738  0.1828
17520TIP3    H273976   4.786   2.950   1.154  0.7006 -0.5257 -0.4048
17521TIP3   OH273977   3.276   4.731  17.191  0.5009 -0.1869  0.4474
17521TIP3    H173978   3.193   4.687  17.210  0.5093 -0.2229  0.4001
17521TIP3    H273979   3.342   4.662  17.195  0.4322 -0.2928 -0.2444
17522TIP3   OH273980   5.337   4.737  12.580  0.1314 -0.1186 -0.0729
17522TIP3    H173981   5.421   4.694  12.593 -0.3731 -1.5284 -1.2022
17522TIP3    H273982   5.353   4.803  12.512  0.1738 -0.9133 -0.8490
17523TIP3   OH273983   6.125   4.145   5.488  0.7785  0.6944 -0.1452
17523TIP3    H173984   6.103   4.075   5.427  0.4631  1.4733 -0.9400
17523TIP3    H273985   6.220   4.156   5.479  0.7094  0.9269 -0.6443
17524TIP3   OH273986   0.748   0.661  16.673 -0.3145 -0.3033 -0.0722
17524TIP3    H173987   0.813   0.605  16.717  0.8007  0.7027 -0.3944
17524TIP3    H273988   0.698   0.600  16.618 -0.5503 -1.3017  1.2081
17525TIP3   OH273989   4.383   3.269   4.060  0.1393 -0.2029 -0.2462
17525TIP3    H173990   4.342   3.198   4.011 -1.9453  1.7710 -1.5657
17525TIP3    H273991   4.310   3.319   4.095  1.5339  1.3795  0.5370
17526TIP3   OH273992   1.323   5.254   2.014  0.1725 -1.1068 -0.1542
17526TIP3    H173993   1.263   5.209   2.075 -1.2670 -0.2520 -0.8857
17526TIP3    H273994   1.344   5.336   2.059 -0.2796 -0.8167 -0.4666
17527TIP3   OH273995   4.115   2.721  10.385  0.4813  0.3006 -0.1433
17527TIP3    H173996   4.177   2.764  10.327  0.7356  1.9891  1.3207
17527TIP3    H273997   4.146   2.741  10.474 -1.0348 -0.4793  0.6079
17528TIP3   OH273998   0.542   0.918  17.180  0.3396  1.0412  0.3433
17528TIP3    H173999   0.561   1.011  17.164 -0.0404  1.1797  0.7066
17528TIP3    H274000   0.625   0.874  17.160  0.6326  1.4958  0.5356
17529TIP3   OH274001   3.294   1.874   0.227  0.3731  0.2057  0.6084
17529TIP3    H174002   3.261   1.855   0.315  0.7613 -0.8030  0.5519
17529TIP3    H274003   3.215   1.892   0.176 -0.1029 -1.5699  0.6289
17530TIP3   OH274004   4.471   2.862   0.547 -0.5434 -0.0047 -0.2385
17530TIP3    H174005   4.459   2.830   0.457  0.6200 -1.1627 -0.0206
17530TIP3    H274006   4.503   2.951   0.537 -0.9750  0.0740 -0.9664
17531TIP3   OH274007   3.323   0.117  12.642  0.0198  0.2430  0.5657
17531TIP3    H174008   3.369   0.047  12.689  0.0475 -1.2122 -1.4650
17531TIP3    H274009   3.380   0.137  12.567 -1.3843  0.2709 -0.5453
17532TIP3   OH274010   3.063   1.133  16.783  0.7306 -0.0755 -0.7017
17532TIP3    H174011   3.045   1.116  16.875 -0.3195 -0.1320 -0.9041
17532TIP3    H274012   3.075   1.047  16.744 -0.7273 -0.1836 -0.9703
17533TIP3   OH274013   0.341   0.386   2.831  0.2105  0.6406  0.6208
17533TIP3    H174014   0.285   0.463   2.823  0.2900  0.4784 -3.1572
17533TIP3    H274015   0.332   0.341   2.747  2.1732 -2.1015  1.7394
17534TIP3   OH274016   5.205   1.844  13.497 -0.4658 -0.2531 -0.2056
17534TIP3    H174017   5.172   1.755  13.511 -0.6759 -0.0069  0.9594
17534TIP3    H274018   5.161   1.897  13.563 -0.4003  0.7464 -0.9321
17535TIP3   OH274019   1.628   3.083   2.642 -0.5010  0.4128  0.3345
17535TIP3    H174020   1.679   3.153   2.602  1.9306 -0.4648  1.6533
17535TIP3    H274021   1.664   3.076   2.731 -0.5340 -2.5453  0.2124
17536TIP3   OH274022   6.055   2.457   0.685  0.1071 -0.4079 -0.7328
17536TIP3    H174023   6.116   2.492   0.620  2.1325 -1.4401  0.5095
17536TIP3    H274024   6.042   2.529   0.747  1.5572 -0.7143 -0.0292
17537TIP3   OH274025   4.254   1.179   0.683 -0.0229  0.0856 -0.3577
17537TIP3    H174026   4.319   1.167   0.613  0.0941 -0.9584 -0.0789
17537TIP3    H274027   4.258   1.273   0.703  1.6945 -0.0151 -0.0703
17538TIP3   OH274028   4.505   3.694   4.092 -0.1848  0.4328  0.3372
17538TIP3    H174029   4.600   3.708   4.099  0.3160 -1.8487 -0.9924
17538TIP3    H274030   4.472   3.716   4.179  1.8731 -0.7203  1.4897
17539TIP3   OH274031   5.561   5.742   1.487 -0.1618  0.1543 -0.8953
17539TIP3    H174032   5.496   5.807   1.461 -0.5442 -0.4044 -1.3405
17539TIP3    H274033   5.645   5.780   1.459 -0.4217  0.2745 -1.5315
17540TIP3   OH274034   4.446   5.762  13.345 -0.0981 -0.0689 -0.2970
17540TIP3    H174035   4.370   5.761  13.286 -0.1083 -0.2793 -0.2804
17540TIP3    H274036   4.449   5.852  13.378  0.1901  0.1778 -0.9804
17541TIP3   OH274037   1.728   2.046  15.173 -0.4719  0.0292 -0.1299
17541TIP3    H174038   1.738   2.129  15.219 -1.2368 -0.1693  0.4124
17541TIP3    H274039   1.638   2.047  15.140 -0.3441 -0.3922 -0.5158
17542TIP3   OH274040   3.773   4.971  15.957  0.1850  0.2469 -0.0140
17542TIP3    H174041   3.761   4.887  15.912  3.0134 -0.8675  1.0662
17542TIP3    H274042   3.720   4.964  16.036  2.0265 -1.5326  1.1620
17543TIP3   OH274043   0.191   4.864   3.210  0.0528  0.4388  0.3116
17543TIP3    H174044   0.112   4.849   3.263 -0.5112 -0.3349 -0.7264
17543TIP3    H274045   0.233   4.779   3.206  1.1731  0.9157  1.1576
17544TIP3   OH274046   0.207   1.354   1.699  0.6169 -0.2272 -0.4767
17544TIP3    H174047   0.151   1.295   1.649 -0.9377 -1.3629  2.3546
17544TIP3    H274048   0.289   1.305   1.710 -0.3500 -1.6330  1.0949
17545TIP3   OH274049   0.606   4.799  17.150  0.1020 -0.1173 -0.0405
17545TIP3    H174050   0.566   4.866  17.207 -1.6970 -0.2644 -1.0696
17545TIP3    H274051   0.569   4.716  17.181  0.9536 -0.4690  0.0718
17546TIP3   OH274052   0.306   0.505   3.936 -0.2542  0.0997 -0.2484
17546TIP3    H174053   0.252   0.547   4.003  0.5816 -0.5933  0.8945
17546TIP3    H274054   0.377   0.463   3.985  0.5458 -0.1875 -1.5938
17547TIP3   OH274055   1.622   6.008  15.099  0.6248  0.5959  0.0417
17547TIP3    H174056   1.558   5.952  15.145  2.3202 -0.7796  0.8487
17547TIP3    H274057   1.570   6.055  15.034 -1.3053 -0.0157  1.0554
17548TIP3   OH274058   3.226   5.529  16.813 -0.4074  0.0345  0.2808
17548TIP3    H174059   3.222   5.588  16.888  0.3364  0.5898 -0.1008
17548TIP3    H274060   3.135   5.503  16.798 -0.3835 -2.0468  2.8754
17549TIP3   OH274061   0.897   2.116   4.893  0.1796  0.4756 -0.0208
17549TIP3    H174062   0.824   2.176   4.877 -1.8476 -1.9968 -0.7891
17549TIP3    H274063   0.938   2.103   4.807  1.5497  1.7998  0.3958
17550TIP3   OH274064   5.005   6.077  15.914  0.3118 -0.2678 -0.2621
17550TIP3    H174065   4.913   6.054  15.900  0.2394 -0.4405  0.4434
17550TIP3    H274066   5.041   6.002  15.963  0.9906 -0.4914 -1.0895
17551TIP3   OH274067   3.408   3.536   0.333  0.4489 -0.2781 -0.1912
17551TIP3    H174068   3.461   3.616   0.333 -0.8144  0.5999 -0.6834
17551TIP3    H274069   3.340   3.552   0.398 -0.7153 -0.2876 -1.3543
17552TIP3   OH274070   6.180   1.974   3.194  0.6877  0.1872  0.7307
17552TIP3    H174071   6.226   1.981   3.278  1.7644  1.6987  0.0667
17552TIP3    H274072   6.232   1.911   3.144 -0.4168 -1.3497  1.4336
17553TIP3   OH274073   5.202   1.603  15.620  0.0812  0.3878  0.3985
17553TIP3    H174074   5.199   1.692  15.655  1.1137  0.2687  0.8555
17553TIP3    H274075   5.216   1.614  15.526  2.4854  0.7621  0.7221
17554TIP3   OH274076   6.241   4.697  11.848  0.0001  0.3717 -0.1523
17554TIP3    H174077   6.294   4.647  11.910 -0.6732  0.2904  0.3683
17554TIP3    H274078   6.305   4.737  11.788  0.5616 -1.1302 -0.6083
17555TIP3   OH274079   4.041   1.675   2.477  0.2644  0.4254  0.6275
17555TIP3    H174080   4.028   1.581   2.463  0.9137  0.3726  0.3366
17555TIP3    H274081   4.104   1.700   2.409 -0.9160  1.3492 -0.1578
17556TIP3   OH274082   4.967   3.142   6.111 -0.0058 -0.2400 -0.3528
17556TIP3    H174083   5.057   3.115   6.094 -0.5674 -2.2669 -0.4890
17556TIP3    H274084   4.963   3.157   6.206  1.0046  2.2878 -0.6410
17557TIP3   OH274085   0.616   3.419   5.426  0.6911  0.1561 -0.2426
17557TIP3    H174086   0.633   3.469   5.346 -0.0811  0.6723 -0.1028
17557TIP3    H274087   0.522   3.398   5.421  0.8059 -0.4806  0.1537
17558TIP3   OH274088   4.594   4.911  16.607  0.1305 -0.4192  0.0849
17558TIP3    H174089   4.613   4.824  16.641 -0.9459 -0.3105  1.0117
17558TIP3    H274090   4.498   4.918  16.611  0.1810  0.6905 -0.2833
17559TIP3   OH274091   5.223   3.162   1.307 -0.2321  0.1936  0.0281
17559TIP3    H174092   5.222   3.077   1.263  0.0234  0.1945  0.0202
17559TIP3    H274093   5.245   3.142   1.398 -1.9496  0.0611  0.4508
17560TIP3   OH274094   6.239   1.802  13.334  0.5359  0.0223 -0.0053
17560TIP3    H174095   6.228   1.740  13.407 -0.9414  2.4487  1.9821
17560TIP3    H274096   6.174   1.870  13.351  0.1828  0.7525 -3.6386
17561TIP3   OH274097   5.210   1.900  15.720  0.0290 -0.4384 -0.2618
17561TIP3    H174098   5.303   1.910  15.741 -0.2040 -1.7272  1.6041
17561TIP3    H274099   5.165   1.946  15.790 -0.7596 -1.0049 -0.3897
17562TIP3   OH274100   6.449   3.790  15.428  0.3057 -0.0238  0.7794
17562TIP3    H174101   6.396   3.761  15.503  0.5749  1.5904  1.6410
17562TIP3    H274102   6.491   3.871  15.458  0.7919  0.4157 -0.9697
17563TIP3   OH274103   1.612   5.689   3.845  0.3385  0.2573 -0.1662
17563TIP3    H174104   1.625   5.764   3.786  2.0757  0.2403  0.1274
17563TIP3    H274105   1.560   5.627   3.794  1.1848  0.5423 -1.4387
17564TIP3   OH274106   3.668   6.490   4.014 -0.2134  0.4553 -0.5097
17564TIP3    H174107   3.639   6.557   3.951 -1.2577 -0.1501 -0.6931
17564TIP3    H274108   3.717   6.427   3.962  1.4864  1.4612 -0.2054
17565TIP3   OH274109   0.461   0.597  17.096  0.0843  0.1542  0.4897
17565TIP3    H174110   0.468   0.609  17.001  0.7031 -0.7808  0.4072
17565TIP3    H274111   0.528   0.655  17.133  0.2061  0.1201  0.3230
17566TIP3   OH274112   2.749   3.271  12.835 -0.1041 -0.5089  0.1130
17566TIP3    H174113   2.692   3.194  12.832  1.2500 -1.5466  0.0087
17566TIP3    H274114   2.742   3.303  12.925 -0.6827 -0.7399  0.1551
17567TIP3   OH274115   3.685   3.385  15.365  0.2473 -0.2104 -0.4153
17567TIP3    H174116   3.671   3.477  15.388  1.5831  0.5703 -2.3925
17567TIP3    H274117   3.624   3.336  15.420 -0.3389  1.8373  0.8517
17568TIP3   OH274118   2.975   5.412  15.787  1.1754 -0.9109  0.3518
17568TIP3    H174119   2.954   5.505  15.788  0.9916 -0.7793 -3.2058
17568TIP3    H274120   3.058   5.406  15.834  2.1626  1.4009 -0.9030
17569TIP3   OH274121   0.579   0.282  13.356  0.0743  0.0773  0.2372
17569TIP3    H174122   0.493   0.311  13.388  0.2598  0.8773  0.0489
17569TIP3    H274123   0.608   0.353  13.298  0.1526 -0.9235 -0.9882
17570TIP3   OH274124   2.268   4.174   1.862 -0.1803  0.8061 -0.1220
17570TIP3    H174125   2.354   4.139   1.837  0.1932  1.9619 -0.5293
17570TIP3    H274126   2.210   4.146   1.791 -0.3426 -0.6664  0.5513
17571TIP3   OH274127   2.545   4.584   1.054 -0.1366 -0.5464 -0.5355
17571TIP3    H174128   2.499   4.524   1.113  0.5599 -1.3369 -0.7695
17571TIP3    H274129   2.508   4.565   0.968  1.1559 -1.7925 -0.8667
17572TIP3   OH274130   5.649   6.244  12.194 -0.4700 -0.0581  0.0534
17572TIP3    H174131   5.735   6.281  12.213 -0.9331  1.2439 -0.3306
17572TIP3    H274132   5.659   6.150  12.211  1.3491 -0.1142 -1.1116
17573TIP3   OH274133   3.680   3.855   0.439  0.1445 -0.1669  0.2111
17573TIP3    H174134   3.606   3.805   0.475 -0.4009  0.8505  0.5415
17573TIP3    H274135   3.756   3.799   0.456 -0.7356 -2.2094 -1.9965
17574TIP3   OH274136   5.906   2.578  14.266  0.1345 -0.0844  0.0561
17574TIP3    H174137   5.834   2.597  14.205  0.4468 -0.0772 -0.3156
17574TIP3    H274138   5.944   2.497  14.234  0.5188  0.1018  0.0401
17575TIP3   OH274139   1.653   3.909  14.560  0.2981  0.3440  0.1174
17575TIP3    H174140   1.558   3.903  14.572  0.3532 -0.7319  0.1173
17575TIP3    H274141   1.689   3.837  14.612  0.9582 -0.5917 -1.5453
17576TIP3   OH274142   5.318   2.183  14.302  0.0828 -0.0163  0.0121
17576TIP3    H174143   5.268   2.249  14.350  0.9879 -0.2944  1.4097
17576TIP3    H274144   5.395   2.168  14.356  0.5370 -1.2655 -0.9351
17577TIP3   OH274145   5.915   2.706   2.384  0.2221  0.0834 -0.4975
17577TIP3    H174146   5.923   2.622   2.339  0.6633  0.9066 -2.0138
17577TIP3    H274147   6.001   2.721   2.423 -0.7028 -1.6105  2.5902
17578TIP3   OH274148   5.954   3.817  13.364  0.5108  0.3055 -0.2889
17578TIP3    H174149   5.948   3.756  13.291  1.5896 -0.3646  0.1642
17578TIP3    H274150   6.047   3.838  13.371  0.4125  0.4569  0.8209
17579TIP3   OH274151   2.517   0.769  11.368  0.6965  0.2758 -0.1497
17579TIP3    H174152   2.517   0.814  11.284  0.4830  1.0571  0.2593
17579TIP3    H274153   2.528   0.838  11.433 -2.8446  0.2206  0.7070
17580TIP3   OH274154   1.219   3.315  12.255  0.2480 -0.1403 -0.1071
17580TIP3    H174155   1.262   3.267  12.326 -0.7773  0.3160  0.8552
17580TIP3    H274156   1.169   3.384  12.299 -0.4980  0.0946 -1.2730
17581TIP3   OH274157   2.181   6.373  13.718  0.4736  0.2236  0.2170
17581TIP3    H174158   2.271   6.345  13.696 -0.2653 -3.3827  1.0424
17581TIP3    H274159   2.171   6.349  13.810 -1.5122  0.0290 -0.0154
17582TIP3   OH274160   2.561   0.503  13.899 -0.2160 -0.3543  0.3110
17582TIP3    H174161   2.582   0.472  13.987  2.3146  0.8456  0.2174
17582TIP3    H274162   2.643   0.493  13.850 -1.9448 -2.5452 -2.4697
17583TIP3   OH274163   3.881   5.980   2.078  0.2698  0.0464  0.0047
17583TIP3    H174164   3.850   5.908   2.022 -0.0734 -1.3839  1.9039
17583TIP3    H274165   3.965   6.005   2.041  2.2053 -3.8225  1.1469
17584TIP3   OH274166   1.927   3.990  16.496 -0.2078 -0.0445  0.0114
17584TIP3    H174167   1.996   3.965  16.558  0.5653 -0.3283 -0.9415
17584TIP3    H274168   1.923   3.918  16.434 -2.1035 -0.5263  0.6153
17585TIP3   OH274169   1.932   2.947  15.043  0.3163 -0.5616 -0.5400
17585TIP3    H174170   1.862   2.882  15.051  0.3109 -0.8816 -2.4619
17585TIP3    H274171   2.011   2.895  15.028  1.0144 -0.2061  1.6273
17586TIP3   OH274172   3.928   0.326   2.042  0.0785 -0.2269 -0.0114
17586TIP3    H174173   3.974   0.345   1.961 -1.8923 -1.5766 -1.5441
17586TIP3    H274174   3.932   0.230   2.051  0.9087 -0.0629  1.9140
17587TIP3   OH274175   5.260   5.974  17.133 -0.5564 -0.1097  0.1145
17587TIP3    H174176   5.305   6.041  17.184 -1.2156 -0.4194  1.1276
17587TIP3    H274177   5.224   5.914  17.198  0.3774 -1.7005 -0.7647
17588TIP3   OH274178   3.058   4.235  13.015 -0.2894 -0.0338 -0.0825
17588TIP3    H174179   3.038   4.204  13.103 -0.3282  2.2491  0.7787
17588TIP3    H274180   3.123   4.305  13.027  0.2854 -0.1769 -1.9375
17589TIP3   OH274181   4.658   0.159   4.989  0.4034  0.2860 -0.1305
17589TIP3    H174182   4.667   0.092   5.058 -1.9028 -1.1220 -1.0563
17589TIP3    H274183   4.582   0.210   5.016 -0.4769 -0.2280 -1.5502
17590TIP3   OH274184   0.594   1.478  15.556 -0.0575 -0.4974  0.3029
17590TIP3    H174185   0.669   1.537  15.569  0.9778 -1.5435 -0.6930
17590TIP3    H274186   0.616   1.430  15.476 -1.2884 -1.6128  0.6161
17591TIP3   OH274187   5.924   6.153  13.875 -0.0057 -0.1442  0.0981
17591TIP3    H174188   5.935   6.183  13.966  1.1153  1.0044 -0.3812
17591TIP3    H274189   5.830   6.155  13.860 -0.0928  1.4060  0.6925
17592TIP3   OH274190   5.081   4.352   2.370  0.0128  0.4812 -0.1970
17592TIP3    H174191   4.986   4.342   2.368 -0.2462  2.6199 -0.6656
17592TIP3    H274192   5.105   4.379   2.282  0.9273  0.8496  0.1477
17593TIP3   OH274193   3.412   1.983   0.546 -0.4353 -0.3731 -0.2972
17593TIP3    H174194   3.475   1.916   0.573 -1.2587 -0.2138  2.2886
17593TIP3    H274195   3.341   1.934   0.505 -0.2799 -0.9312  0.0854
17594TIP3   OH274196   3.445   4.060   1.244 -0.5881  0.5169  0.5783
17594TIP3    H174197   3.517   4.021   1.295  2.1475  2.3689 -1.5672
17594TIP3    H274198   3.427   4.143   1.288  1.6544  2.0332 -1.0868
17595TIP3   OH274199   4.840   1.466   5.111  0.0578  0.3319  0.5646
17595TIP3    H174200   4.931   1.464   5.082 -0.1978  1.5143 -0.4101
17595TIP3    H274201   4.799   1.391   5.069 -0.0180  1.3250 -1.2574
17596TIP3   OH274202   0.433   4.461   3.827 -0.0736 -0.2361  0.3040
17596TIP3    H174203   0.497   4.394   3.805  1.9903  2.0648 -1.1824
17596TIP3    H274204   0.367   4.455   3.757 -1.1896 -2.0744  1.4040
17597TIP3   OH274205   0.133   2.685  17.416 -0.1760 -0.7749  0.3208
17597TIP3    H174206   0.198   2.746  17.379  0.9096 -2.4507 -0.6439
17597TIP3    H274207   0.132   2.705  17.509 -0.1881  1.0113 -0.0190
17598TIP3   OH274208   6.130   6.190   5.660 -1.0397  0.0072 -0.0526
17598TIP3    H174209   6.170   6.251   5.723 -1.7913  0.3849  0.0746
17598TIP3    H274210   6.127   6.240   5.578  2.8682 -1.5161 -1.3640
17599TIP3   OH274211   1.071   5.647  13.858 -0.1981  0.0528 -0.3787
17599TIP3    H174212   1.015   5.630  13.783  1.6019 -1.3578 -1.4898
17599TIP3    H274213   1.021   5.616  13.934 -1.6793  0.6761 -1.0845
17600TIP3   OH274214   5.566   3.916  11.001 -0.4450  0.2287 -0.1488
17600TIP3    H174215   5.477   3.950  11.015  0.0102  0.9286  1.2185
17600TIP3    H274216   5.565   3.883  10.911 -2.3696 -0.6604  0.1608
17601TIP3   OH274217   0.732   3.560  13.066 -0.1090  0.2722 -0.8291
17601TIP3    H174218   0.802   3.599  13.117 -1.3473  0.1416  1.0832
17601TIP3    H274219   0.711   3.625  13.000  2.1441  0.0766 -1.8269
17602TIP3   OH274220   3.356   2.179  13.071 -0.1403  0.2103 -0.4852
17602TIP3    H174221   3.393   2.224  12.995 -0.7630  0.6070 -0.5561
17602TIP3    H274222   3.262   2.197  13.066 -0.4891 -1.5437 -0.8161
17603TIP3   OH274223   2.671   2.736  11.271 -0.2342  0.1183 -0.3457
17603TIP3    H174224   2.633   2.649  11.280 -0.9138  0.4914  0.5129
17603TIP3    H274225   2.756   2.729  11.316 -0.7697  0.1891  0.6990
17604TIP3   OH274226   0.055   6.139  15.038  0.2971  0.5032 -0.4718
17604TIP3    H174227   0.150   6.151  15.047  0.2958  0.1487  0.0678
17604TIP3    H274228   0.019   6.174  15.119 -0.0436  0.7031 -0.7081
17605TIP3   OH274229   6.360   6.041  17.557  0.3657 -0.1810 -0.1047
17605TIP3    H174230   6.384   6.050  17.649 -0.8317 -0.0741  0.2089
17605TIP3    H274231   6.420   5.974  17.524  0.6625 -0.3883  0.8073
17606TIP3   OH274232   4.848   0.677   3.914  0.4421 -0.1294  0.1493
17606TIP3    H174233   4.793   0.728   3.854  0.9325  0.5808  0.2860
17606TIP3    H274234   4.872   0.599   3.864 -0.7172 -0.4795  0.1081
17607TIP3   OH274235   6.603   6.063  12.334 -0.2975 -0.0740  0.5461
17607TIP3    H174236   6.651   6.032  12.410 -0.0818  0.9624  0.8459
17607TIP3    H274237   6.574   5.983  12.289  0.5866 -0.6922  1.0632
17608TIP3   OH274238   0.537   4.067   5.290  0.5494 -0.2022  0.6773
17608TIP3    H174239   0.523   3.973   5.283  0.2453 -0.2785  2.0422
17608TIP3    H274240   0.454   4.106   5.264  0.8182 -0.2838 -0.3295
17609TIP3   OH274241   5.706   3.749  15.979 -0.5614 -0.3621  0.4796
17609TIP3    H174242   5.711   3.704  15.894 -1.5200 -1.2287  0.8651
17609TIP3    H274243   5.659   3.689  16.036  1.7898 -0.6800  2.2488
17610TIP3   OH274244   4.298   5.345   0.616  0.3421 -0.1452 -0.4164
17610TIP3    H174245   4.375   5.385   0.573  0.1859 -0.6367 -1.1744
17610TIP3    H274246   4.237   5.418   0.626  1.0560  0.3482  0.5898
17611TIP3   OH274247   5.765   6.246  14.820  0.0585  0.4583 -0.1483
17611TIP3    H174248   5.803   6.239  14.908  1.5889  0.7898 -0.7563
17611TIP3    H274249   5.684   6.296  14.833 -0.7309 -1.1020  1.3264
17612TIP3   OH274250   3.733   1.414   1.874 -0.4046  0.3621  0.3520
17612TIP3    H174251   3.669   1.369   1.820 -0.2208  0.0904  0.3628
17612TIP3    H274252   3.799   1.447   1.812 -0.2390  0.1241  0.4006
17613TIP3   OH274253   2.879   2.302   3.250 -0.3290 -0.4138  0.3001
17613TIP3    H174254   2.867   2.366   3.181  0.3672  0.4202  0.9342
17613TIP3    H274255   2.839   2.222   3.216  0.5778 -0.2133 -1.3350
17614TIP3   OH274256   0.188   5.833  16.451  0.1880 -0.7711 -0.7104
17614TIP3    H174257   0.159   5.834  16.542 -1.8901 -1.4395 -1.3022
17614TIP3    H274258   0.169   5.744  16.420  2.2589 -1.0305 -1.4235
17615TIP3   OH274259   4.378   2.217  14.498 -0.6659  0.5042  0.2074
17615TIP3    H174260   4.331   2.194  14.419 -1.5265  2.2053  0.1762
17615TIP3    H274261   4.471   2.209  14.475 -0.9141  0.5722 -0.8447
17616TIP3   OH274262   2.506   4.259   1.476  0.0188  0.0243 -0.4323
17616TIP3    H174263   2.586   4.311   1.472 -0.7449  1.3599  0.6036
17616TIP3    H274264   2.527   4.185   1.533  1.2629 -1.1426 -2.3013
17617TIP3   OH274265   5.291   5.991  13.692  0.4293  0.5986 -0.0605
17617TIP3    H174266   5.305   5.998  13.787  0.2303 -1.1514  0.1489
17617TIP3    H274267   5.372   5.952  13.659 -0.1469 -0.4009 -0.3291
17618TIP3   OH274268   0.051   0.931  13.205 -0.7248  0.4360  0.4462
17618TIP3    H174269   0.133   0.960  13.244 -1.1883  1.5083  0.6661
17618TIP3    H274270   0.052   0.966  13.117 -0.6380 -0.1556  0.2060
17619TIP3   OH274271   2.380   3.696   0.632  0.2389  0.9781  0.1530
17619TIP3    H174272   2.338   3.652   0.559 -0.1929  0.6404  0.5965
17619TIP3    H274273   2.383   3.630   0.702 -0.1102  1.5422  0.7129
17620TIP3   OH274274   1.205   1.851   1.122 -0.2014 -0.1705  0.0757
17620TIP3    H174275   1.275   1.787   1.139  1.4682  1.7755  0.8917
17620TIP3    H274276   1.166   1.866   1.208  0.0288  0.5663  0.0540
17621TIP3   OH274277   4.161   5.370   3.785 -0.2492 -0.1522  0.1409
17621TIP3    H174278   4.071   5.404   3.789 -0.6592 -0.8348 -1.8424
17621TIP3    H274279   4.174   5.349   3.692  1.4217 -1.5170  0.6303
17622TIP3   OH274280   3.440   5.114  13.681 -0.3756  0.4092  0.3386
17622TIP3    H174281   3.425   5.083  13.770 -0.4748 -0.2809  0.0886
17622TIP3    H274282   3.517   5.067  13.651  1.5789  2.8864  1.1074
17623TIP3   OH274283   3.628   4.860  14.171 -0.6459 -0.4476  0.3555
17623TIP3    H174284   3.661   4.915  14.243 -1.7965  1.2878 -0.3935
17623TIP3    H274285   3.535   4.850  14.189 -0.8206 -0.5259 -0.5567
17624TIP3   OH274286   6.480   4.752  14.494 -0.5666 -0.5905 -0.4134
17624TIP3    H174287   6.543   4.690  14.531  0.1139 -0.4134 -1.2268
17624TIP3    H274288   6.522   4.784  14.414 -1.9348 -0.8962 -1.2894
17625TIP3   OH274289   1.213   0.292  14.681  0.5580  0.5095 -0.5086
17625TIP3    H174290   1.134   0.271  14.730  0.9530  1.6899  0.6894
17625TIP3    H274291   1.274   0.222  14.702  0.1960  0.1579 -0.6053
17626TIP3   OH274292   0.497   6.418  15.074  1.0057 -0.1747  0.8678
17626TIP3    H174293   0.576   6.424  15.020  2.3285 -2.2260  2.4046
17626TIP3    H274294   0.494   6.501  15.122  0.4282  1.2084 -1.3956
17627TIP3   OH274295   1.345   3.625  16.301 -0.2078 -0.1437 -0.3699
17627TIP3    H174296   1.351   3.531  16.318  0.7803 -0.3134 -1.5112
17627TIP3    H274297   1.252   3.640  16.281 -0.6091 -0.6368  1.0039
17628TIP3   OH274298   1.491   1.049  16.202 -0.1170 -0.1612  0.4149
17628TIP3    H174299   1.513   0.993  16.128 -0.0748  0.5200 -0.0898
17628TIP3    H274300   1.396   1.043  16.209  0.0051 -1.6203  1.4300
17629TIP3   OH274301   0.021   3.069  17.238  0.0588 -0.4123  0.2242
17629TIP3    H174302   0.017   3.122  17.318 -1.9023  1.2873 -0.8931
17629TIP3    H274303  -0.039   2.996  17.256  0.3428 -0.5451  0.6437
17630TIP3   OH274304   6.398   4.869  14.924  0.2109 -0.3877 -0.5075
17630TIP3    H174305   6.461   4.927  14.882 -0.8994 -0.2536 -2.0927
17630TIP3    H274306   6.451   4.811  14.979  1.6486  0.0070 -1.4291
17631TIP3   OH274307   4.636   4.081   4.997  0.0078 -0.6477  0.7309
17631TIP3    H174308   4.669   4.023   4.928 -2.4536 -0.5859 -0.6166
17631TIP3    H274309   4.588   4.149   4.949  1.4698  1.6533  2.3380
17632TIP3   OH274310   2.688   3.329  13.110 -0.5590 -0.2631  0.6519
17632TIP3    H174311   2.625   3.398  13.131 -2.1017 -0.9386 -1.3645
17632TIP3    H274312   2.735   3.314  13.192 -0.9821  2.3194  1.4619
17633TIP3   OH274313   4.065   1.057  13.151  0.0092 -0.4252 -0.2056
17633TIP3    H174314   4.037   0.990  13.089 -0.4003 -1.7778  1.3712
17633TIP3    H274315   3.989   1.114  13.161 -0.8608 -1.7484  1.0196
17634TIP3   OH274316   2.213   1.114  16.280 -0.1223  0.4643 -0.2314
17634TIP3    H174317   2.306   1.116  16.258  0.4988  0.8832  2.1439
17634TIP3    H274318   2.211   1.133  16.374 -2.3755 -2.3094  0.4032
17635TIP3   OH274319   4.281   2.013  15.541 -0.9590 -0.0957 -0.2511
17635TIP3    H174320   4.247   2.018  15.451 -1.6760 -0.6653 -0.0179
17635TIP3    H274321   4.211   1.972  15.591 -0.8544  0.8496  0.7219
17636TIP3   OH274322   5.427   2.697  16.018 -0.6003  1.1641 -0.1665
17636TIP3    H174323   5.413   2.636  15.945  1.4221  1.1710 -0.6267
17636TIP3    H274324   5.360   2.764  16.007 -2.4459 -0.5653 -0.0544
17637TIP3   OH274325   3.608   0.810  12.088  0.4991 -0.3084  0.1810
17637TIP3    H174326   3.642   0.894  12.118 -0.1798 -0.5296  1.6559
17637TIP3    H274327   3.561   0.831  12.007 -0.4580  0.9087  1.0194
17638TIP3   OH274328   0.532   0.604  14.996  0.3230 -0.2821 -0.5980
17638TIP3    H174329   0.589   0.620  14.921 -0.8765  1.5458 -1.2057
17638TIP3    H274330   0.508   0.692  15.026 -1.9636 -0.9734 -0.2347
17639TIP3   OH274331   6.167   3.980  13.135 -0.0030  0.3820 -0.1761
17639TIP3    H174332   6.111   3.905  13.155  0.2493  0.1196 -0.4497
17639TIP3    H274333   6.208   3.958  13.052 -0.9998  1.4491 -0.9826
17640TIP3   OH274334   1.499   3.840  16.759 -0.0092 -0.2399 -0.2619
17640TIP3    H174335   1.577   3.831  16.703  1.5893  0.1528  1.7771
17640TIP3    H274336   1.465   3.927  16.737  3.1187  1.8707  2.1450
17641TIP3   OH274337   1.572   2.143  16.765 -0.4137 -0.1663 -0.2702
17641TIP3    H174338   1.517   2.074  16.729  1.3779 -0.7602 -2.0617
17641TIP3    H274339   1.605   2.190  16.688  2.6554 -0.7296  0.5729
17642TIP3   OH274340   5.318   0.929  16.523 -0.3813 -0.6249  0.2991
17642TIP3    H174341   5.304   0.838  16.550 -1.3054 -1.1074 -1.6594
17642TIP3    H274342   5.280   0.981  16.594 -1.0738 -1.7829  0.7986
17643TIP3   OH274343   5.014   4.951   2.813 -0.2047  0.0973 -0.4572
17643TIP3    H174344   4.926   4.944   2.851  0.2047 -1.3738  0.2779
17643TIP3    H274345   4.998   4.967   2.720 -1.2667 -0.8718 -0.4673
17644TIP3   OH274346   5.399   1.179  16.418  0.8122  1.3987  0.5931
17644TIP3    H174347   5.356   1.094  16.423 -0.5383  2.0272  0.3409
17644TIP3    H274348   5.478   1.164  16.366  0.3283  0.4101  0.1167
17645TIP3   OH274349   5.308   6.438   5.983  0.4851  0.0942 -0.4242
17645TIP3    H174350   5.258   6.519   5.985  0.3306  0.0789 -2.0286
17645TIP3    H274351   5.261   6.382   5.920  1.8805 -0.3227 -1.1496
17646TIP3   OH274352   4.943   2.955  11.696 -0.2019 -0.0851  0.1332
17646TIP3    H174353   4.851   2.933  11.682 -0.9483  0.1457  3.7145
17646TIP3    H274354   4.943   3.050  11.709  0.6416 -0.0151 -0.2758
17647TIP3   OH274355   0.564   4.008   6.106 -0.3589 -0.0428  0.0075
17647TIP3    H174356   0.652   4.033   6.077 -0.3095 -1.5458 -1.3015
17647TIP3    H274357   0.521   4.090   6.128  1.5434  0.6914  1.2140
17648TIP3   OH274358   5.976   6.314  11.779 -0.2512  0.3991 -0.2148
17648TIP3    H174359   6.049   6.299  11.719 -0.4857 -1.2464 -0.1301
17648TIP3    H274360   6.007   6.282  11.864 -1.5209 -1.7181 -0.4768
17649TIP3   OH274361   2.053   1.113   1.444 -0.2736 -0.2753  0.4845
17649TIP3    H174362   2.037   1.124   1.351  1.3130 -1.2895  0.0328
17649TIP3    H274363   2.053   1.018   1.457  0.2608 -0.1686  1.3612
17650TIP3   OH274364   3.345   6.699   3.493  0.5955 -0.1060 -0.3425
17650TIP3    H174365   3.358   6.662   3.406  0.8457  1.7901 -1.1565
17650TIP3    H274366   3.263   6.659   3.524  1.1610 -1.7597 -0.8838
17651TIP3   OH274367   4.409   2.947   3.003  0.3808 -0.2664 -0.7191
17651TIP3    H174368   4.319   2.947   2.970 -0.4949 -1.9725  1.4378
17651TIP3    H274369   4.463   2.939   2.924 -1.3588  0.1764 -2.0194
17652TIP3   OH274370   6.173   5.533  10.935 -0.6202 -0.2741  0.4358
17652TIP3    H174371   6.143   5.618  10.902 -1.2769 -0.7823 -0.3329
17652TIP3    H274372   6.176   5.477  10.857 -0.2755 -0.9796  0.9430
17653TIP3   OH274373   5.332   1.558   1.865 -0.4194  0.0736 -0.4869
17653TIP3    H174374   5.354   1.651   1.865 -1.1345  0.2490 -0.2412
17653TIP3    H274375   5.313   1.538   1.957  0.2167 -0.4381 -0.4618
17654TIP3   OH274376   5.080   6.266  16.093 -0.1540  0.3281 -0.9883
17654TIP3    H174377   5.056   6.207  16.022  0.8844  0.1869 -1.2494
17654TIP3    H274378   5.152   6.318  16.056  0.5911  0.0571  0.0290
17655TIP3   OH274379   5.120   2.751  16.454 -0.6699 -0.7261 -0.4689
17655TIP3    H174380   5.075   2.825  16.495  0.9221 -0.1090  0.2278
17655TIP3    H274381   5.139   2.782  16.365 -1.0343 -0.7545 -0.5620
17656TIP3   OH274382   6.183   6.425   4.552 -0.1886 -0.0193  0.4237
17656TIP3    H174383   6.136   6.484   4.493  1.3165  0.0791 -0.7217
17656TIP3    H274384   6.115   6.365   4.584 -1.1201  0.1726 -1.0999
17657TIP3   OH274385   5.612   1.771   3.390  0.0320  0.5484  0.3406
17657TIP3    H174386   5.640   1.724   3.468 -0.0801  1.1571  0.7562
17657TIP3    H274387   5.681   1.755   3.326 -0.2264 -0.5383  0.3253
17658TIP3   OH274388   4.794   2.971   0.483 -0.1812 -0.2715 -0.6095
17658TIP3    H174389   4.774   2.998   0.393  1.2825 -1.0051 -1.1846
17658TIP3    H274390   4.868   2.911   0.475 -1.1261 -1.7507  0.9411
17659TIP3   OH274391   2.976   1.527  14.257 -0.0259  0.1856  0.1304
17659TIP3    H174392   2.887   1.523  14.293 -0.3430  1.1260 -0.5356
17659TIP3    H274393   3.011   1.610  14.288 -0.0754  0.7134 -1.1816
17660TIP3   OH274394   3.995   2.619   2.120 -0.3887 -0.4957  0.1328
17660TIP3    H174395   3.903   2.607   2.099 -0.8491  1.3596  0.8251
17660TIP3    H274396   4.014   2.553   2.186 -1.5476 -0.2169  0.7764
17661TIP3   OH274397   1.538   3.453   0.956  0.0296  0.4240  0.9214
17661TIP3    H174398   1.542   3.457   0.861 -2.1842  0.6618  0.7876
17661TIP3    H274399   1.612   3.399   0.981 -0.3713 -1.1481 -1.0772
17662TIP3   OH274400   3.922   1.881   5.290  0.2269 -0.3274  0.4461
17662TIP3    H174401   3.836   1.856   5.259 -0.0685  0.5215  0.5488
17662TIP3    H274402   3.933   1.834   5.373 -1.3655  1.7012  1.9339
17663TIP3   OH274403   5.388   4.538   5.981  0.1048 -0.3888  0.5604
17663TIP3    H174404   5.315   4.476   5.980  1.5553 -2.1761 -0.5570
17663TIP3    H274405   5.388   4.577   5.893  0.1636  0.0340  0.7434
17664TIP3   OH274406   3.961   2.069  11.825  0.7321 -0.3028  0.6255
17664TIP3    H174407   3.997   2.030  11.905 -0.9529 -1.2363  0.9929
17664TIP3    H274408   3.996   2.014  11.754 -0.5880 -1.7792  1.0433
17665TIP3   OH274409   0.345   0.541  13.995 -0.2180  0.0758  0.0772
17665TIP3    H174410   0.322   0.462  13.946 -0.7875  0.4038 -0.1790
17665TIP3    H274411   0.334   0.613  13.933 -0.3651  0.4327  0.5130
17666TIP3   OH274412   0.323   2.252  17.343 -0.4361  0.2652  0.6900
17666TIP3    H174413   0.328   2.213  17.430 -0.2785 -0.6153  0.2979
17666TIP3    H274414   0.233   2.283  17.335 -0.5998 -0.1251  0.9721
17667TIP3   OH274415   3.910   4.585  16.741 -0.1063 -0.5268 -0.2631
17667TIP3    H174416   3.856   4.539  16.805 -0.0812  0.2550  0.3305
17667TIP3    H274417   3.858   4.661  16.715  0.8751  0.5225  0.7049
17668TIP3   OH274418   3.375   6.429  11.725 -0.0750 -0.1753  0.1831
17668TIP3    H174419   3.402   6.375  11.651  0.4316  0.3941 -0.0554
17668TIP3    H274420   3.376   6.369  11.800 -0.6060 -0.7597 -0.2626
17669TIP3   OH274421   5.660   4.079   2.703  0.0934  0.2967 -0.4541
17669TIP3    H174422   5.577   4.068   2.657  1.0488 -0.3485 -2.1341
17669TIP3    H274423   5.672   4.174   2.709 -0.5240  0.3902 -0.6426
17670TIP3   OH274424   5.074   5.712   4.241  0.2526  0.1347  0.5368
17670TIP3    H174425   5.061   5.732   4.149 -0.3155  0.6328  0.7168
17670TIP3    H274426   5.085   5.798   4.283  0.5033 -0.0843  0.9279
17671TIP3   OH274427   4.046   6.404  16.707 -1.0489 -0.0094 -0.0586
17671TIP3    H174428   3.981   6.408  16.777 -2.6510 -2.2579 -1.3062
17671TIP3    H274429   4.011   6.460  16.638 -0.4261  0.6577  0.1435
17672TIP3   OH274430   0.755   1.566   3.259 -0.0110  0.1742 -0.4738
17672TIP3    H174431   0.717   1.652   3.239  0.0803  0.2011 -0.5342
17672TIP3    H274432   0.728   1.510   3.187  0.8118  0.4195 -0.9913
17673TIP3   OH274433   3.472   3.123   3.874  0.1412  0.5520 -0.0862
17673TIP3    H174434   3.512   3.149   3.791 -0.4608  0.9604 -0.2606
17673TIP3    H274435   3.529   3.054   3.908  1.3890  1.5866  0.0195
17674TIP3   OH274436   2.654   1.765   2.291  0.1657 -0.2389 -0.1715
17674TIP3    H174437   2.652   1.856   2.261 -1.0260 -0.3181 -0.4015
17674TIP3    H274438   2.745   1.749   2.315  0.3506  1.0655  0.0391
17675TIP3   OH274439   3.399   1.636   2.282  0.1379 -0.5519  0.0136
17675TIP3    H174440   3.472   1.624   2.222  1.7541  0.2598  1.6825
17675TIP3    H274441   3.396   1.731   2.298 -0.7722 -0.6546  0.5666
17676TIP3   OH274442   3.227   2.751   3.122 -0.7045 -0.3577  0.1047
17676TIP3    H174443   3.175   2.832   3.122 -0.2818 -0.0571 -1.1435
17676TIP3    H274444   3.308   2.775   3.168  0.0359  0.3933 -1.4981
17677TIP3   OH274445   1.746   2.335  13.348 -0.0789 -0.3423  0.4118
17677TIP3    H174446   1.793   2.417  13.362 -2.1815  1.0282 -0.1316
17677TIP3    H274447   1.671   2.359  13.295 -0.7389 -2.6644  0.1630
17678TIP3   OH274448   2.850   5.004   2.412  0.0633 -0.2274  0.0254
17678TIP3    H174449   2.766   4.961   2.397  0.7036 -2.0944  1.4087
17678TIP3    H274450   2.910   4.963   2.350  0.4554 -0.5938  0.6424
17679TIP3   OH274451   4.985   0.151   1.367 -0.3328 -0.0385 -0.5301
17679TIP3    H174452   5.080   0.142   1.370 -0.3649 -0.1386  1.1331
17679TIP3    H274453   4.970   0.231   1.317  0.7090  0.8140  0.4550
17680TIP3   OH274454   0.966   5.979   0.380  0.4497 -0.6410 -0.0005
17680TIP3    H174455   0.954   6.011   0.470  1.0030  2.7924 -0.9787
17680TIP3    H274456   0.899   6.024   0.330  0.4456 -2.1454 -1.4254
17681TIP3   OH274457   1.785   5.423   0.708  0.4162 -0.0340  0.5102
17681TIP3    H174458   1.708   5.437   0.653  0.3836 -0.0736  0.5454
17681TIP3    H274459   1.856   5.469   0.663  0.4373 -0.2464  0.3221
17682TIP3   OH274460   5.351   2.578   0.562  0.3288  0.5540 -0.0413
17682TIP3    H174461   5.399   2.639   0.618  1.6704 -0.6243  0.1495
17682TIP3    H274462   5.419   2.530   0.515 -0.7417  0.4339 -1.5370
17683TIP3   OH274463   5.890   6.320  15.061 -0.2577  0.4406  0.1702
17683TIP3    H174464   5.976   6.338  15.099 -0.1741  1.3376 -0.4011
17683TIP3    H274465   5.833   6.304  15.137  0.3377  0.1470  0.5647
17684TIP3   OH274466   5.533   2.100   5.812  0.0379 -0.6076 -0.0027
17684TIP3    H174467   5.623   2.068   5.805 -0.5550 -2.4746  0.3312
17684TIP3    H274468   5.489   2.064   5.734 -0.2888  0.8315 -0.5119
17685TIP3   OH274469   1.221   1.149  14.129 -0.0535  0.1785 -0.1455
17685TIP3    H174470   1.207   1.106  14.213 -1.1107  0.1989 -0.2900
17685TIP3    H274471   1.285   1.094  14.084  0.6149  0.2341  0.7068
17686TIP3   OH274472   5.572   5.350   0.383 -0.2943  0.2056  0.3304
17686TIP3    H174473   5.488   5.316   0.415 -0.3154 -0.5827 -0.5069
17686TIP3    H274474   5.638   5.307   0.437 -0.4048  0.4866  0.6945
17687TIP3   OH274475   0.383   3.739  14.130 -0.2701  0.2378 -0.4852
17687TIP3    H174476   0.326   3.697  14.065 -0.9098 -0.9344  0.8005
17687TIP3    H274477   0.330   3.808  14.168 -0.4988 -0.1917 -0.0111
17688TIP3   OH274478   1.472   5.873  11.800 -0.7536 -0.3988  0.5873
17688TIP3    H174479   1.488   5.818  11.877 -2.2580 -0.5511  0.8263
17688TIP3    H274480   1.510   5.824  11.727  2.1981  0.5057  1.3744
17689TIP3   OH274481   0.240   5.045   0.425  0.3082 -0.0135  0.3225
17689TIP3    H174482   0.309   4.991   0.465  0.8690 -1.0316 -1.8768
17689TIP3    H274483   0.288   5.107   0.369 -0.5031  0.4505  0.1270
17690TIP3   OH274484   0.578   6.468   3.120 -0.3899 -0.4254  0.1234
17690TIP3    H174485   0.601   6.561   3.110 -2.6036  0.4061  1.9367
17690TIP3    H274486   0.633   6.423   3.055  1.9029  1.9328  0.2575
17691TIP3   OH274487   2.127   4.072   1.629 -0.5462 -0.5564 -0.3629
17691TIP3    H174488   2.167   4.080   1.542  1.5103  0.4673  0.5856
17691TIP3    H274489   2.110   3.978   1.639 -0.9338 -0.6732 -1.9048
17692TIP3   OH274490   0.769   0.594   4.967  0.0512  0.1514 -0.1937
17692TIP3    H174491   0.765   0.689   4.955  0.8243  0.1898 -0.1827
17692TIP3    H274492   0.678   0.567   4.973 -0.1936  1.2078  2.3023
17693TIP3   OH274493   5.720   3.960  15.002 -0.6057  0.6642 -0.1518
17693TIP3    H174494   5.688   3.947  15.092 -1.7334 -0.2733 -0.6628
17693TIP3    H274495   5.741   4.053  14.997 -0.2619  0.6761  1.1626
17694TIP3   OH274496   2.627   0.949  11.558  0.2953  0.3256  0.1910
17694TIP3    H174497   2.690   1.016  11.584  1.5106 -0.9922  0.7876
17694TIP3    H274498   2.544   0.996  11.547  1.1847  1.9626  0.2164
17695TIP3   OH274499   3.693   0.951  14.811 -0.3421 -0.0304  0.4201
17695TIP3    H174500   3.636   0.875  14.821 -0.0746 -0.2915  0.0211
17695TIP3    H274501   3.674   1.006  14.886 -1.2167 -0.0446  0.2138
17696TIP3   OH274502   0.969   2.742  13.487 -0.0146 -0.1965 -0.1977
17696TIP3    H174503   0.933   2.811  13.431  1.4614  0.2693 -0.6333
17696TIP3    H274504   0.987   2.785  13.570  2.4968  0.4544 -0.9986
17697TIP3   OH274505   3.963   0.957  12.107 -0.3343  0.2568  0.2045
17697TIP3    H174506   3.920   0.876  12.081  0.6317  0.0808 -0.8905
17697TIP3    H274507   3.990   0.998  12.025  3.1239 -0.5003  0.8315
17698TIP3   OH274508   5.214   3.456   2.121  0.0008  0.2128  0.2559
17698TIP3    H174509   5.143   3.471   2.059 -1.3039  0.5431  1.7417
17698TIP3    H274510   5.265   3.536   2.120  0.7717 -0.2596 -1.2878
17699TIP3   OH274511   0.953   1.928  17.234 -0.0297  0.3168 -0.3331
17699TIP3    H174512   0.880   1.987  17.214 -1.0627 -0.3285  1.3612
17699TIP3    H274513   0.996   1.968  17.310 -0.4080 -0.7949  0.4910
17700TIP3   OH274514   2.053   3.430   3.914 -0.1716  0.2793  0.2259
17700TIP3    H174515   1.980   3.391   3.962 -1.1393  0.7831 -0.7938
17700TIP3    H274516   2.130   3.411   3.968 -0.6938 -2.3514  0.1750
17701TIP3   OH274517   5.207   6.106   4.854 -0.6003  0.2646 -0.0287
17701TIP3    H174518   5.145   6.117   4.926  1.2234  1.5781  1.4495
17701TIP3    H274519   5.246   6.020   4.869 -0.4013  0.4308  0.4400
17702TIP3   OH274520   4.568   0.665   6.634  0.1713 -0.2727 -0.3775
17702TIP3    H174521   4.540   0.750   6.599 -0.3776 -1.0005 -1.7894
17702TIP3    H274522   4.613   0.687   6.715  1.3198  1.4882 -1.4157
17703TIP3   OH274523   2.315   6.121  15.506  0.0518  0.3137  0.7210
17703TIP3    H174524   2.346   6.206  15.474 -1.3559  0.2911 -0.8297
17703TIP3    H274525   2.359   6.057  15.450  0.5371  0.0351  1.4037
17704TIP3   OH274526   6.214   4.960   2.395  0.1983  0.2360 -0.0058
17704TIP3    H174527   6.186   4.887   2.449  1.3575  0.9778  1.6752
17704TIP3    H274528   6.260   5.019   2.455 -0.8709  2.4657 -1.2308
17705TIP3   OH274529   1.177   0.577  13.797  0.1970  0.7105  0.0510
17705TIP3    H174530   1.103   0.619  13.842  0.4194  1.5990 -0.3793
17705TIP3    H274531   1.187   0.493  13.841 -0.6676  0.8450  0.5361
17706TIP3   OH274532   1.163   4.124  14.169 -0.2467  0.2580 -0.3280
17706TIP3    H174533   1.113   4.126  14.251  1.1771  0.1660  0.5819
17706TIP3    H274534   1.239   4.180  14.186 -0.3289  0.8954 -1.8881
17707TIP3   OH274535   3.155   3.579   4.811 -0.6678  0.3331 -0.6628
17707TIP3    H174536   3.181   3.640   4.880 -0.6493  1.2580 -1.4625
17707TIP3    H274537   3.074   3.615   4.775 -0.9073 -0.3641 -0.8538
17708TIP3   OH274538   6.654   3.182  14.839 -0.0760 -0.4481 -0.2240
17708TIP3    H174539   6.618   3.259  14.881 -2.5375 -1.4011 -0.4363
17708TIP3    H274540   6.728   3.156  14.894 -0.4732  0.8844  0.9679
17709TIP3   OH274541   6.031   5.061   1.818  0.2164  0.3760 -0.2942
17709TIP3    H174542   5.983   5.020   1.891 -0.5071  1.2836 -0.2419
17709TIP3    H274543   6.021   5.000   1.745 -0.4734  0.2432 -0.0959
17710TIP3   OH274544   6.170   0.298  13.879 -0.1541 -0.5524 -0.8630
17710TIP3    H174545   6.209   0.385  13.884  2.0952 -1.5687  2.6339
17710TIP3    H274546   6.081   0.310  13.913  0.4916  0.2426  0.6114
17711TIP3   OH274547   1.174   3.465   6.189  0.6145 -0.2722 -0.0400
17711TIP3    H174548   1.114   3.493   6.258  0.4696 -0.8581  0.0747
17711TIP3    H274549   1.259   3.458   6.231  0.2798 -1.9583  0.4240
17712TIP3   OH274550   5.475   2.151   2.931 -0.1405  0.0878 -0.2454
17712TIP3    H174551   5.474   2.062   2.897 -0.4245 -0.3757  0.9071
17712TIP3    H274552   5.566   2.164   2.959 -0.4209 -0.4152  0.9662
17713TIP3   OH274553   3.641   5.732  16.823 -0.2569  0.2522  0.0007
17713TIP3    H174554   3.643   5.727  16.919  0.9397 -0.7168 -0.0419
17713TIP3    H274555   3.573   5.671  16.797  1.3616 -1.7396  0.1749
17714TIP3   OH274556   4.938   0.001  11.350 -0.0345  0.7898  0.7058
17714TIP3    H174557   4.865   0.060  11.334 -0.7859 -0.1495  0.5453
17714TIP3    H274558   4.904  -0.086  11.325  1.4008  0.4479 -0.1741
17715TIP3   OH274559   1.518   6.026   2.291 -0.0541  0.4713 -0.5411
17715TIP3    H174560   1.547   6.010   2.202  0.0925  1.0638 -0.6069
17715TIP3    H274561   1.556   5.956   2.343 -2.5276 -1.6460 -1.3703
17716TIP3   OH274562   2.137   6.471   4.738 -0.1528  0.0236  0.0914
17716TIP3    H174563   2.171   6.535   4.676  2.1157 -1.0487  0.1173
17716TIP3    H274564   2.086   6.410   4.684  1.7956 -0.9004 -0.8315
17717TIP3   OH274565   5.907   1.327   0.480  0.0100 -0.1412  0.1258
17717TIP3    H174566   5.920   1.287   0.395  0.5557 -0.9569  0.5771
17717TIP3    H274567   5.992   1.363   0.504 -0.0290 -0.2848  0.5016
17718TIP3   OH274568   3.909   1.081  14.332  0.4472 -0.2496 -0.3059
17718TIP3    H174569   3.969   1.015  14.366  0.0999 -0.9059 -0.9435
17718TIP3    H274570   3.863   1.114  14.409  0.3873 -0.9982 -0.0095
17719TIP3   OH274571   2.162   2.870  12.125 -0.3801  0.5375 -0.3345
17719TIP3    H174572   2.253   2.849  12.145 -0.3064  1.0968 -0.0642
17719TIP3    H274573   2.161   2.885  12.031  0.2330  2.5170 -0.0722
17720TIP3   OH274574   2.011   0.341  14.732 -0.3503 -0.6496 -0.0410
17720TIP3    H174575   2.092   0.392  14.725 -0.1397 -0.5592  2.1214
17720TIP3    H274576   1.945   0.404  14.759 -0.6043 -1.1116  0.4379
17721TIP3   OH274577   4.456   3.429  12.309  0.1964  0.4407  0.2745
17721TIP3    H174578   4.442   3.521  12.287 -1.8561  0.0065 -0.4105
17721TIP3    H274579   4.409   3.416  12.391  0.7761  0.0685  0.5580
17722TIP3   OH274580   6.663   5.487   4.511 -0.5513 -0.5682 -0.2332
17722TIP3    H174581   6.696   5.480   4.600 -0.1796 -1.4047 -0.4242
17722TIP3    H274582   6.627   5.576   4.505 -0.9332 -0.6370  0.8642
17723TIP3   OH274583   3.265   1.766  11.138 -0.6101 -0.2358  0.3014
17723TIP3    H174584   3.188   1.731  11.182 -0.8213 -1.6954 -1.1507
17723TIP3    H274585   3.245   1.759  11.045  1.0236 -0.0252 -0.0980
17724TIP3   OH274586   3.070   3.997   4.091  0.7016 -0.3079 -0.2438
17724TIP3    H174587   3.157   4.011   4.129  0.2583 -0.9334  1.0626
17724TIP3    H274588   3.009   4.033   4.155 -0.0531 -0.8212 -0.6468
17725TIP3   OH274589   4.934   3.971   5.295  0.3259  0.0932 -0.2924
17725TIP3    H174590   4.854   4.024   5.302  0.8808  0.9469 -0.2959
17725TIP3    H274591   5.005   4.034   5.301  1.0195 -0.7140  0.2405
17726TIP3   OH274592   3.496   1.006  16.158 -0.2445  0.1036 -0.1072
17726TIP3    H174593   3.412   1.051  16.170 -0.6913 -0.3199 -1.4195
17726TIP3    H274594   3.496   0.938  16.226 -1.9850 -1.2974 -1.3986
17727TIP3   OH274595   5.546   4.157  11.395 -0.0443 -0.6644  0.0449
17727TIP3    H174596   5.472   4.217  11.380  0.6568 -0.1607 -1.5678
17727TIP3    H274597   5.592   4.154  11.312  2.8038  0.4349  1.4657
17728TIP3   OH274598   5.057   6.552  16.225  0.0651 -0.0563  0.2196
17728TIP3    H174599   5.073   6.574  16.133 -1.7903 -1.3297 -0.4567
17728TIP3    H274600   5.031   6.460  16.223  2.7336 -1.0104  2.3648
17729TIP3   OH274601   0.412   5.355   5.504  0.4134 -1.1379  0.1573
17729TIP3    H174602   0.409   5.366   5.409 -1.7143 -0.6269  0.2139
17729TIP3    H274603   0.428   5.444   5.537  1.7293 -1.4050  0.2997
17730TIP3   OH274604   2.518   5.831  17.599  0.2619  0.2566  0.4544
17730TIP3    H174605   2.585   5.854  17.535 -0.4600  1.3189  0.0526
17730TIP3    H274606   2.533   5.738  17.618  0.2298 -0.2005 -1.5668
17731TIP3   OH274607   5.987   1.912   1.426 -0.5592 -0.0333  0.9350
17731TIP3    H174608   5.898   1.882   1.408 -0.7332  0.9688  0.0308
17731TIP3    H274609   5.989   2.002   1.394  1.4157 -0.7250 -1.2259
17732TIP3   OH274610   3.795   5.603  16.443  0.2204 -0.2144  0.5234
17732TIP3    H174611   3.859   5.674  16.455 -0.5889  0.7171 -0.4222
17732TIP3    H274612   3.715   5.636  16.483 -0.3575 -0.2836 -0.5463
17733TIP3   OH274613   2.688   6.518   1.054  0.1723  0.3463 -0.0383
17733TIP3    H174614   2.735   6.545   1.133  0.8352  0.1968 -0.3707
17733TIP3    H274615   2.731   6.436   1.028 -0.4692  0.0537 -0.1917
17734TIP3   OH274616   3.125   3.591   3.774  0.9653 -0.4639  0.0093
17734TIP3    H174617   3.129   3.671   3.826  0.9429 -0.0205 -0.6627
17734TIP3    H274618   3.076   3.530   3.828 -0.9923  0.6790 -0.3674
17735TIP3   OH274619   1.152   0.092  14.175  0.4846  0.0866 -0.5038
17735TIP3    H174620   1.163   0.111  14.081 -2.3625 -2.5185 -1.5453
17735TIP3    H274621   1.222   0.031  14.195  0.7533  0.1885 -1.0990
17736TIP3   OH274622   1.392   4.184  11.796 -0.0276  0.7757  0.1263
17736TIP3    H174623   1.307   4.153  11.765  1.0570 -0.6700 -1.6349
17736TIP3    H274624   1.431   4.109  11.839  1.3827  0.5504 -1.4189
17737TIP3   OH274625   1.501   4.621   4.699 -0.3942 -0.3151  0.4219
17737TIP3    H174626   1.586   4.588   4.727 -0.8885 -1.6073  0.4659
17737TIP3    H274627   1.493   4.594   4.608 -0.0410  1.3384 -0.1447
17738TIP3   OH274628   4.380   0.592   1.367  0.1006 -0.2082  0.3566
17738TIP3    H174629   4.357   0.659   1.431 -1.3747 -0.3901  0.0595
17738TIP3    H274630   4.460   0.625   1.325 -0.9325  1.6975 -0.2285
17739TIP3   OH274631   3.070   1.158  16.395  0.2678 -0.0725  0.1448
17739TIP3    H174632   2.991   1.134  16.348 -0.9064 -1.2014  2.5333
17739TIP3    H274633   3.116   1.075  16.408  1.5732  0.4934 -0.6778
17740TIP3   OH274634   4.986   4.573  11.024 -0.6709  0.3094 -0.4673
17740TIP3    H174635   4.903   4.574  10.976 -0.6482 -1.5313 -0.6077
17740TIP3    H274636   5.029   4.492  10.998  0.4329  0.4062  0.8752
17741TIP3   OH274637   1.045   3.482  11.811 -0.0011 -0.4327  0.1061
17741TIP3    H174638   1.118   3.492  11.872 -0.5462 -0.5650  0.7854
17741TIP3    H274639   1.059   3.551  11.746  0.9154 -0.6790  0.0336
17742TIP3   OH274640   4.563   5.055  11.793 -0.1233  0.4102 -0.5005
17742TIP3    H174641   4.505   5.083  11.864 -0.9256  1.0589 -1.3960
17742TIP3    H274642   4.603   4.974  11.826 -2.3845 -0.7041 -0.2850
17743TIP3   OH274643   3.310   1.892  13.579 -0.2761 -0.5920 -0.3640
17743TIP3    H174644   3.261   1.829  13.631  0.7611 -0.0397  1.3701
17743TIP3    H274645   3.250   1.967  13.570 -0.5652 -0.8022 -0.2100
17744TIP3   OH274646   1.479   0.327   5.682  0.1195 -0.1454 -0.3413
17744TIP3    H174647   1.566   0.356   5.654 -0.2622  0.2649 -1.1210
17744TIP3    H274648   1.477   0.233   5.663 -0.0302  0.0679 -1.4454
17745TIP3   OH274649   4.942   5.841  12.722 -0.1748 -0.4002  0.5271
17745TIP3    H174650   4.954   5.748  12.743  0.2790 -0.3742  0.3931
17745TIP3    H274651   5.029   5.871  12.695 -0.3101  0.0711  0.5981
17746TIP3   OH274652   2.751   0.678  14.635  0.4901  0.3387  0.6188
17746TIP3    H174653   2.698   0.739  14.585 -0.7516 -0.8577  0.4123
17746TIP3    H274654   2.719   0.686  14.725 -1.0773 -1.3648  0.2704
17747TIP3   OH274655   1.412   5.078  11.010  0.0758  0.6322  0.0025
17747TIP3    H174656   1.407   5.161  11.059  0.7733  0.5197  0.2692
17747TIP3    H274657   1.387   5.102  10.921  0.3768  1.1577  0.0543
17748TIP3   OH274658   0.265   0.268  10.347  0.0852 -0.1815 -0.3796
17748TIP3    H174659   0.332   0.207  10.377  0.0575 -0.5621 -1.0884
17748TIP3    H274660   0.301   0.307  10.267 -0.3397 -0.0330 -0.5002
17749TIP3   OH274661   6.322   5.491  12.754  0.4285  0.5691  0.0067
17749TIP3    H174662   6.294   5.512  12.665  2.0582 -1.3543 -1.0572
17749TIP3    H274663   6.242   5.490  12.805 -0.8849 -0.4503 -1.9406
17750TIP3   OH274664   4.255   4.013   4.331  0.4918 -0.3110 -0.3638
17750TIP3    H174665   4.184   3.972   4.282  0.5839  0.6074 -1.3049
17750TIP3    H274666   4.243   3.982   4.421 -2.0407  0.9961 -0.1622
17751TIP3   OH274667   0.865   4.490  16.213  0.1081  0.0930  0.6610
17751TIP3    H174668   0.885   4.489  16.307  0.2801  0.0118  0.6242
17751TIP3    H274669   0.778   4.530  16.207  0.9221  1.9438  0.6858
17752TIP3   OH274670   2.814   1.289  11.933 -0.4143 -0.5194 -0.0788
17752TIP3    H174671   2.791   1.305  12.025  0.7979 -0.2283  0.1924
17752TIP3    H274672   2.898   1.333  11.922 -1.9504  2.1764 -2.2043
17753TIP3   OH274673   2.481   5.288  12.185  0.5928 -0.4039 -0.9473
17753TIP3    H174674   2.468   5.305  12.279  0.3384 -0.8246 -0.9049
17753TIP3    H274675   2.508   5.373  12.149  1.6448 -0.4538 -0.3292
17754TIP3   OH274676   3.756   5.457   5.516 -0.2768  0.3755  0.3186
17754TIP3    H174677   3.744   5.399   5.591 -2.4063  0.1597 -0.1244
17754TIP3    H274678   3.676   5.510   5.513  0.0183  0.8021 -1.4424
17755TIP3   OH274679   4.654   2.037   5.529 -0.0765 -0.5730  0.3970
17755TIP3    H174680   4.587   1.968   5.534 -0.0554 -0.6093  0.1818
17755TIP3    H274681   4.693   2.026   5.443 -2.0503  1.5192 -0.8704
17756TIP3   OH274682   0.758   1.413  12.160  0.4566 -0.7193  0.2415
17756TIP3    H174683   0.786   1.486  12.106 -0.8155  1.0061  1.7982
17756TIP3    H274684   0.837   1.387  12.209  0.9122 -0.4142 -0.3212
17757TIP3   OH274685   3.624   2.669   3.963  0.0661 -0.2150  0.6199
17757TIP3    H174686   3.611   2.761   3.984  0.1941 -0.0786  0.1092
17757TIP3    H274687   3.539   2.639   3.929 -0.1582 -0.4508  1.3606
17758TIP3   OH274688   3.931   4.834  13.403  0.0239 -0.7357  0.1018
17758TIP3    H174689   3.957   4.828  13.312  0.3966  1.2041  0.0532
17758TIP3    H274690   3.836   4.847  13.401  0.2846  1.4789 -0.1541
17759TIP3   OH274691   1.324   5.394   6.060  0.4950 -0.0655  0.3846
17759TIP3    H174692   1.408   5.407   6.016  0.5309 -0.7592  0.2261
17759TIP3    H274693   1.318   5.299   6.073 -0.9163 -0.2082 -0.9464
17760TIP3   OH274694   2.185   0.713  16.306 -0.5141  0.2591 -0.0271
17760TIP3    H174695   2.133   0.646  16.264 -1.8864  1.6806 -0.6910
17760TIP3    H274696   2.267   0.714  16.257 -1.1005  0.1523 -1.0383
17761TIP3   OH274697   6.302   6.367   0.947 -0.1514  0.0553 -0.1745
17761TIP3    H174698   6.320   6.446   0.998  0.0697  0.6025 -1.0791
17761TIP3    H274699   6.221   6.386   0.900 -0.8945 -0.8250  0.7089
17762TIP3   OH274700   2.917   1.238   4.526 -0.4030  0.7650 -0.1619
17762TIP3    H174701   2.876   1.289   4.457  1.2130  2.5505  0.1096
17762TIP3    H274702   3.004   1.216   4.492 -0.5397 -0.6397  0.2988
17763TIP3   OH274703   1.802   3.846   5.212 -0.4478 -0.1503  0.3349
17763TIP3    H174704   1.728   3.799   5.252  0.4418 -1.4546  0.4975
17763TIP3    H274705   1.876   3.829   5.271  0.1748  0.5032 -0.2362
17764TIP3   OH274706   4.448   2.049   3.997 -0.5819 -0.3323 -0.1343
17764TIP3    H174707   4.438   1.955   3.985 -1.7770 -0.2072 -0.1657
17764TIP3    H274708   4.494   2.079   3.919 -2.8980 -0.4477 -1.6122
17765TIP3   OH274709   1.854   2.956  11.249 -0.0649  0.1709 -0.0659
17765TIP3    H174710   1.841   2.936  11.156 -0.1511  0.8886 -0.2109
17765TIP3    H274711   1.948   2.945  11.263 -0.2630 -1.6080  0.1739
17766TIP3   OH274712   0.349   5.693   2.407 -0.6586  0.6023  0.2592
17766TIP3    H174713   0.311   5.673   2.493 -0.7626  3.6256  1.0399
17766TIP3    H274714   0.400   5.616   2.385 -0.7516 -0.3531  2.9864
17767TIP3   OH274715   1.998   3.587  17.301  0.0946 -0.2070 -0.0441
17767TIP3    H174716   2.008   3.667  17.249 -1.3953 -1.5523 -2.6089
17767TIP3    H274717   1.903   3.582  17.317  0.2387 -1.2057  0.5254
17768TIP3   OH274718   2.235   4.174   3.851  0.2546  0.1388  0.1288
17768TIP3    H174719   2.331   4.178   3.856  0.2957  1.6657 -1.1372
17768TIP3    H274720   2.217   4.140   3.763 -0.3140  3.1912 -1.0386
17769TIP3   OH274721   6.002   0.906  12.183 -0.4586 -0.2311 -0.4833
17769TIP3    H174722   5.946   0.917  12.107 -1.1231  1.1976  0.1818
17769TIP3    H274723   6.003   0.992  12.225 -0.4882 -1.0918  1.3706
17770TIP3   OH274724   1.658   2.096  12.686 -0.1313  0.2198  0.2219
17770TIP3    H174725   1.622   2.185  12.683 -0.9862 -0.0483  1.5011
17770TIP3    H274726   1.636   2.065  12.774  0.5082 -1.1172 -0.0708
17771TIP3   OH274727   6.022   4.479   1.102 -0.1724  0.0639 -0.4546
17771TIP3    H174728   5.956   4.548   1.096 -1.4060 -0.9923  0.3400
17771TIP3    H274729   5.984   4.414   1.161  2.0595 -0.0701  0.9706
17772TIP3   OH274730   1.023   5.888   1.925 -0.1708  0.0034  0.2265
17772TIP3    H174731   1.090   5.850   1.982 -0.3159  0.6558  0.8455
17772TIP3    H274732   0.946   5.894   1.980 -1.1736 -1.9644 -0.8435
17773TIP3   OH274733   2.714   1.240   5.946  0.1478 -0.2092  0.7982
17773TIP3    H174734   2.724   1.160   5.997 -2.6963 -0.5467  0.9996
17773TIP3    H274735   2.697   1.308   6.012  0.4182  0.1258  0.5208
17774TIP3   OH274736   2.360   6.309  11.864  0.1415 -0.2304  0.4965
17774TIP3    H174737   2.348   6.353  11.948 -0.2611 -0.4975  0.5839
17774TIP3    H274738   2.299   6.354  11.805  1.1798  0.6610  0.0694
17775TIP3   OH274739   3.685   1.573  16.152 -0.3747 -1.2278 -0.5654
17775TIP3    H174740   3.626   1.633  16.198  1.5382  1.6882 -1.6086
17775TIP3    H274741   3.641   1.555  16.069  0.3931  1.5546 -1.6752
17776TIP3   OH274742   0.780   0.049  17.268 -0.3116  0.2974 -0.8864
17776TIP3    H174743   0.809   0.140  17.279 -1.5948  0.5091  1.5241
17776TIP3    H274744   0.739   0.048  17.181  0.3555  1.8313 -1.2616
17777TIP3   OH274745   3.018   4.618  14.295 -0.3069  0.0091  0.3462
17777TIP3    H174746   3.113   4.616  14.278  0.2875 -0.8828  3.2349
17777TIP3    H274747   2.995   4.711  14.290  0.0072  0.0430 -3.2561
17778TIP3   OH274748   1.316   5.526   2.079 -0.3027 -0.0433 -0.5771
17778TIP3    H174749   1.405   5.561   2.083 -0.2820 -0.0726 -0.7687
17778TIP3    H274750   1.275   5.573   2.006 -0.7785  0.7351  0.1693
17779TIP3   OH274751   0.346   3.357  12.168  0.1734  0.5720 -0.0124
17779TIP3    H174752   0.304   3.417  12.230 -1.6461 -0.6991  0.0710
17779TIP3    H274753   0.281   3.345  12.099  1.2686  0.1562 -0.9990
17780TIP3   OH274754   3.873   2.008   2.715 -0.1666 -0.2697  0.1031
17780TIP3    H174755   3.894   1.986   2.624  1.3600  0.1667  0.3155
17780TIP3    H274756   3.900   2.099   2.725 -1.5864  0.1168  0.6419
17781TIP3   OH274757   3.508   1.933   5.142 -0.2331  0.0038 -0.3674
17781TIP3    H174758   3.471   1.989   5.073 -2.1776 -0.7396 -0.0004
17781TIP3    H274759   3.445   1.862   5.151 -0.1106  0.1333  2.2356
17782TIP3   OH274760   4.198   0.878  12.255 -0.2327 -0.7350 -0.4835
17782TIP3    H174761   4.236   0.966  12.254 -1.0470 -0.3232  1.0772
17782TIP3    H274762   4.117   0.886  12.205  0.1717 -0.8492 -1.1674
17783TIP3   OH274763   2.092   2.536  10.323  0.3468 -0.4989  0.1987
17783TIP3    H174764   2.055   2.467  10.378  0.8122 -0.2223  0.8793
17783TIP3    H274765   2.080   2.616  10.375  1.2272 -0.3022  0.1117
17784TIP3   OH274766   5.799   1.123   4.515  0.2998  0.2414  0.2506
17784TIP3    H174767   5.734   1.053   4.519 -0.2970  0.8190  0.8158
17784TIP3    H274768   5.779   1.179   4.590  0.2743  1.4309 -0.6083
17785TIP3   OH274769   6.137   3.698   2.220 -0.3059 -0.8331 -0.3453
17785TIP3    H174770   6.132   3.729   2.130 -0.5975  0.2489  0.0286
17785TIP3    H274771   6.056   3.648   2.232 -1.1769  0.5720 -0.1407
17786TIP3   OH274772   0.749   5.932  12.420  0.2745 -0.1123 -0.1452
17786TIP3    H174773   0.783   5.931  12.510  2.7356  3.3810 -0.8432
17786TIP3    H274774   0.776   5.847  12.384  2.1998 -0.2608  1.4683
17787TIP3   OH274775   6.346   0.476   3.030  0.1864 -0.3136  0.0996
17787TIP3    H174776   6.331   0.455   2.937 -1.3944 -0.4049  0.3405
17787TIP3    H274777   6.441   0.475   3.040  0.4981  1.5623 -1.9351
17788TIP3   OH274778   4.278   1.961   0.098 -0.4037  0.6794  0.1604
17788TIP3    H174779   4.332   2.038   0.114 -1.3544  1.3442  0.2515
17788TIP3    H274780   4.211   1.991   0.037 -2.7563  0.8967  2.6232
17789TIP3   OH274781   0.431   4.729  14.327  0.0260 -0.0061 -0.2849
17789TIP3    H174782   0.526   4.717  14.327 -0.1737 -2.1758  0.6460
17789TIP3    H274783   0.412   4.771  14.411  0.2342  1.5565 -0.9928
17790TIP3   OH274784   0.667   5.934   5.647  0.2638 -0.0255 -0.5178
17790TIP3    H174785   0.762   5.943   5.653  0.0575  3.2422 -0.4666
17790TIP3    H274786   0.635   6.024   5.637 -2.9594 -0.8313  1.2424
17791TIP3   OH274787   2.338   2.646  17.451 -0.2542  0.8250  0.2164
17791TIP3    H174788   2.246   2.640  17.477 -0.5684  0.4245 -0.9331
17791TIP3    H274789   2.370   2.556  17.456  0.8942  1.2967  3.3280
17792TIP3   OH274790   3.770   4.755  11.180 -0.1042  0.1013  0.1219
17792TIP3    H174791   3.753   4.680  11.123  1.8612  0.9382 -1.7113
17792TIP3    H274792   3.725   4.828  11.137  0.5613  0.5603  0.2028
17793TIP3   OH274793   1.653   2.446   3.278 -0.2537  0.0487 -0.2967
17793TIP3    H174794   1.717   2.489   3.221 -0.4754  1.5608  0.5313
17793TIP3    H274795   1.688   2.358   3.291  1.5722  0.7483 -0.0634
17794TIP3   OH274796   2.436   6.110   0.045  0.2275 -0.3312  0.5749
17794TIP3    H174797   2.427   6.015   0.035  0.9617 -0.2137 -1.6993
17794TIP3    H274798   2.504   6.121   0.112 -0.4431 -1.3700  1.4655
17795TIP3   OH274799   0.545   6.049  11.515  0.3783  0.2979 -0.2185
17795TIP3    H174800   0.636   6.044  11.488  0.2200 -2.4218 -0.4897
17795TIP3    H274801   0.497   6.071  11.436  0.5109 -1.7852 -0.9416
17796TIP3   OH274802   6.667   1.335   4.307 -0.0428 -0.1102  0.0523
17796TIP3    H174803   6.707   1.249   4.300 -0.3534 -0.1792 -0.9718
17796TIP3    H274804   6.651   1.346   4.401  0.9900 -0.7029  0.3115
17797TIP3   OH274805   6.488   1.317  16.825 -0.2653 -0.0555  0.2565
17797TIP3    H174806   6.426   1.382  16.857 -1.7856 -0.6600 -1.3304
17797TIP3    H274807   6.557   1.368  16.783 -0.8911  0.5723 -0.0301
17798TIP3   OH274808   3.905   4.048  17.207 -0.3717  0.4292 -0.2884
17798TIP3    H174809   3.904   4.085  17.295 -0.4331  0.5919 -0.3588
17798TIP3    H274810   3.971   3.978  17.212 -0.6282  0.2064 -0.0194
17799TIP3   OH274811   1.507   2.962   4.774  0.3536  0.3229 -0.6903
17799TIP3    H174812   1.500   3.051   4.740  1.3173  0.8406  0.3966
17799TIP3    H274813   1.478   2.969   4.865  1.8020 -0.1534 -0.1623
17800TIP3   OH274814   3.876   3.097  12.670  0.5446 -0.0825  0.0387
17800TIP3    H174815   3.852   3.011  12.706  2.7916 -0.5101  0.6869
17800TIP3    H274816   3.857   3.089  12.576 -0.9643 -0.6238  0.3617
17801TIP3   OH274817   5.566   5.803   6.151  0.1555 -0.4297 -0.0832
17801TIP3    H174818   5.614   5.723   6.125 -2.0809 -0.9814 -3.0868
17801TIP3    H274819   5.516   5.777   6.228  0.4046 -1.5730 -0.2885
17802TIP3   OH274820   2.023   3.188  15.847  0.2048  0.1493  0.2185
17802TIP3    H174821   1.976   3.147  15.774 -0.2995 -1.3142  1.3221
17802TIP3    H274822   2.103   3.223  15.807 -0.3226 -0.1134 -1.1334
17803TIP3   OH274823   0.148   2.265  15.381 -0.1867 -0.2365  0.1816
17803TIP3    H174824   0.105   2.193  15.427  1.1618 -3.1700 -2.7113
17803TIP3    H274825   0.089   2.284  15.307  1.1419 -0.9673 -1.1109
17804TIP3   OH274826   0.420   2.141   2.354  0.5380  0.0995  0.2621
17804TIP3    H174827   0.488   2.157   2.420  1.7181  0.7065 -1.0393
17804TIP3    H274828   0.403   2.227   2.316 -1.9936  0.2083  1.4594
17805TIP3   OH274829   3.776   4.738   0.235  0.0469  0.2436  0.2245
17805TIP3    H174830   3.829   4.661   0.217  1.1247  1.0384 -0.0790
17805TIP3    H274831   3.748   4.728   0.326  0.4126 -0.3604  0.2739
17806TIP3   OH274832   0.358   3.857   2.761 -0.5042  0.1977 -0.1199
17806TIP3    H174833   0.317   3.832   2.678 -2.8811  0.8306  0.7582
17806TIP3    H274834   0.445   3.819   2.758 -1.1393 -1.2650 -2.1656
17807TIP3   OH274835   1.425   2.014   2.290 -0.1299 -0.1205  0.1982
17807TIP3    H174836   1.408   1.952   2.218 -1.7748 -0.8881  1.1926
17807TIP3    H274837   1.517   1.998   2.313 -0.2826 -1.6556 -0.0896
17808TIP3   OH274838   1.935   5.056   2.595 -0.0995  0.0433  0.8193
17808TIP3    H174839   1.945   4.990   2.664 -0.1780 -1.1497 -0.2709
17808TIP3    H274840   2.005   5.036   2.532 -0.8581  0.2352 -0.1166
17809TIP3   OH274841   1.653   2.548   2.404 -0.3587  0.0850 -0.6152
17809TIP3    H174842   1.698   2.520   2.484 -0.2359  1.8689 -0.0083
17809TIP3    H274843   1.573   2.496   2.402 -0.3648  0.0107  0.6799
17810TIP3   OH274844   3.358   3.147  15.681  0.6157  0.1005  0.4289
17810TIP3    H174845   3.300   3.145  15.605  0.9217  1.1398  0.1519
17810TIP3    H274846   3.446   3.131  15.644  0.8191  1.0066  0.4796
17811TIP3   OH274847   3.774   4.913   3.060  0.8419  0.3538 -0.7710
17811TIP3    H174848   3.768   4.957   3.145 -0.3794  1.0138 -1.1738
17811TIP3    H274849   3.757   4.821   3.079 -2.8612  0.9318 -0.6582
17812TIP3   OH274850   3.255   0.155  12.183 -0.1490  0.1284 -0.1937
17812TIP3    H174851   3.341   0.193  12.169 -0.0614 -0.1435 -0.4041
17812TIP3    H274852   3.206   0.223  12.229  0.5029 -0.1105  0.8912
17813TIP3   OH274853   5.917   0.449  15.631  0.0041 -0.2540 -0.0283
17813TIP3    H174854   5.852   0.447  15.701  0.1789 -0.4974  0.1313
17813TIP3    H274855   5.877   0.501  15.562  0.0750  0.5188  0.5042
17814TIP3   OH274856   1.332   4.215  12.535 -0.1281  0.1821 -0.7092
17814TIP3    H174857   1.329   4.303  12.498 -0.5909  0.1133 -0.8475
17814TIP3    H274858   1.276   4.163  12.477  0.6571 -0.3521 -1.0079
17815TIP3   OH274859   1.858   0.391  15.169  0.1413 -0.1673  0.0661
17815TIP3    H174860   1.939   0.384  15.118  0.6183 -2.9315  1.0595
17815TIP3    H274861   1.887   0.399  15.259 -0.7260  1.5162  0.2353
17816TIP3   OH274862   4.611   0.567  14.814 -0.0812 -0.0595 -0.7674
17816TIP3    H174863   4.539   0.576  14.877 -0.0494  0.6156 -0.8197
17816TIP3    H274864   4.685   0.537  14.865 -0.4373 -0.9190 -0.7387
17817TIP3   OH274865   2.107   2.359  11.519 -0.3379  0.0203 -0.4994
17817TIP3    H174866   2.029   2.317  11.482 -1.4233  1.5644 -0.1090
17817TIP3    H274867   2.143   2.410  11.447  0.5259 -0.9462 -0.7666
17818TIP3   OH274868   4.634   0.827  12.196 -0.5431  0.1692  0.1312
17818TIP3    H174869   4.595   0.841  12.283  0.8893  0.8679  0.6886
17818TIP3    H274870   4.634   0.914  12.156  2.1615  0.6391  0.9274
17819TIP3   OH274871   6.449   6.369  16.494  0.0774  0.0896  0.1849
17819TIP3    H174872   6.533   6.413  16.487  0.0132  0.4779  1.5307
17819TIP3    H274873   6.388   6.424  16.445  0.4208  0.3003 -0.0090
17820TIP3   OH274874   2.398   4.111   4.580  0.2210 -0.4090  0.1605
17820TIP3    H174875   2.353   4.031   4.607  1.0349 -1.2110 -0.7591
17820TIP3    H274876   2.456   4.083   4.509  0.5668  0.9944 -0.1427
17821TIP3   OH274877   2.835   4.057  17.554  0.3629 -0.9444 -0.1404
17821TIP3    H174878   2.772   4.059  17.626 -0.3322 -1.3735 -0.7288
17821TIP3    H274879   2.787   4.020  17.480 -0.1666  3.0145 -2.0252
17822TIP3   OH274880   4.219   3.492  13.345 -0.5888  0.2030  0.2907
17822TIP3    H174881   4.174   3.479  13.429 -0.5820 -2.1824  0.0156
17822TIP3    H274882   4.184   3.574  13.311 -0.5643  1.2574  2.6171
17823TIP3   OH274883   5.188   3.899   2.169  0.2234 -0.5173  0.0882
17823TIP3    H174884   5.202   3.991   2.149 -1.1902 -0.4490 -0.6525
17823TIP3    H274885   5.098   3.881   2.142  0.5216 -2.1579  0.0713
17824TIP3   OH274886   5.766   4.795   2.649 -0.4482 -0.4637  0.1327
17824TIP3    H174887   5.814   4.872   2.677 -1.5121  0.1436  0.3524
17824TIP3    H274888   5.703   4.827   2.585 -0.8148 -1.1626  0.1250
17825TIP3   OH274889   4.306   5.733   1.967  0.4619  0.1101  0.4186
17825TIP3    H174890   4.242   5.670   2.001  0.4009 -0.2391 -0.3348
17825TIP3    H274891   4.391   5.698   1.993  0.3823  0.3717  1.0773
17826TIP3   OH274892   2.501   1.807  14.425  0.1664 -0.0831 -0.6929
17826TIP3    H174893   2.550   1.778  14.502  0.8030 -1.7012 -1.6363
17826TIP3    H274894   2.429   1.858  14.459  2.0477  1.7452  0.8236
17827TIP3   OH274895   5.106   1.728   5.347  0.3080  0.0463  0.1654
17827TIP3    H174896   5.073   1.704   5.434 -1.6703  0.7201 -0.3444
17827TIP3    H274897   5.096   1.649   5.294  2.4518 -0.6837  0.7190
17828TIP3   OH274898   4.659   2.097  17.094 -0.0700  0.1174  0.1736
17828TIP3    H174899   4.630   2.006  17.096 -0.4779  0.1615 -1.5871
17828TIP3    H274900   4.754   2.092  17.104 -0.0503 -0.5530 -0.2615
17829TIP3   OH274901   2.230   6.161   0.940 -0.0150 -0.3865 -0.0438
17829TIP3    H174902   2.249   6.245   0.898  0.5022 -0.3486  0.2593
17829TIP3    H274903   2.143   6.172   0.977 -0.5001 -0.4300 -1.1337
17830TIP3   OH274904   3.563   3.067   6.802 -0.1121 -0.0192 -0.6547
17830TIP3    H174905   3.628   3.101   6.863  0.2567  1.3065 -1.7471
17830TIP3    H274906   3.583   3.108   6.719 -1.3564 -0.8469 -1.4138
17831TIP3   OH274907   0.706   4.293  12.965  0.0614 -0.1167 -0.7020
17831TIP3    H174908   0.616   4.263  12.957 -0.2147  0.3258  0.5336
17831TIP3    H274909   0.719   4.307  13.059  1.8703 -1.5234 -0.6800
17832TIP3   OH274910   3.799   6.586   1.972  0.3553  0.1951 -0.5710
17832TIP3    H174911   3.795   6.510   2.030  1.4327  0.5923  0.0474
17832TIP3    H274912   3.711   6.593   1.936  0.2581 -1.4109 -0.7316
17833TIP3   OH274913   1.219   5.285   1.757 -0.2982  0.0017  0.1508
17833TIP3    H174914   1.256   5.297   1.844 -0.2137 -0.2239  0.1462
17833TIP3    H274915   1.149   5.220   1.769  0.8636 -1.3679 -0.2531
17834TIP3   OH274916   6.149   1.387   0.616 -0.5915 -0.4021  0.8284
17834TIP3    H174917   6.098   1.459   0.652  0.8164 -0.3173  2.8362
17834TIP3    H274918   6.221   1.430   0.569  0.3712 -0.4514  2.2107
17835TIP3   OH274919   3.226   3.444   1.178 -0.3952 -0.2403 -0.2658
17835TIP3    H174920   3.265   3.426   1.093  0.0750  0.2042 -0.1447
17835TIP3    H274921   3.203   3.537   1.175  0.2319 -0.0629  0.3354
17836TIP3   OH274922   5.964   0.904   0.620 -0.8875 -0.2295 -0.0602
17836TIP3    H174923   5.993   0.844   0.689 -1.7949  0.3964  0.9171
17836TIP3    H274924   5.870   0.916   0.638 -1.2928 -0.5530 -1.8148
17837TIP3   OH274925   1.424   4.604   1.254 -0.0162 -0.8830  0.0720
17837TIP3    H174926   1.444   4.679   1.197 -1.7999 -0.8942 -0.6189
17837TIP3    H274927   1.505   4.553   1.255  0.8597  0.4425 -0.3913
17838TIP3   OH274928   3.434   2.526   0.626  0.0665  0.1989 -0.1773
17838TIP3    H174929   3.410   2.435   0.607 -0.1722  0.4134 -0.9385
17838TIP3    H274930   3.408   2.538   0.718  0.7990 -0.7180  0.1648
17839TIP3   OH274931   6.648   0.248   6.189 -0.0637  0.4833  0.4697
17839TIP3    H174932   6.636   0.293   6.105  0.7719 -0.8863 -0.4156
17839TIP3    H274933   6.564   0.207   6.207 -0.2684  0.8452  0.3556
17840TIP3   OH274934   2.249   5.864   2.801 -0.1809  0.2782 -0.2172
17840TIP3    H174935   2.157   5.839   2.803  0.0026 -0.4050 -0.2068
17840TIP3    H274936   2.287   5.823   2.879 -0.2317  2.0390  0.7815
17841TIP3   OH274937   2.300   5.578   3.976 -0.0070  0.7316 -0.3031
17841TIP3    H174938   2.331   5.489   3.990 -0.1529  0.4361 -1.7436
17841TIP3    H274939   2.235   5.592   4.046 -0.4129 -0.5001 -0.4232
17842TIP3   OH274940   0.930   1.302  16.391  0.2818  0.2613  0.1894
17842TIP3    H174941   0.874   1.370  16.429 -3.2175 -2.9533  1.4863
17842TIP3    H274942   0.936   1.236  16.460 -0.2269 -2.6319 -2.3245
17843TIP3   OH274943   1.124   4.381   0.771 -0.5817  0.2432  0.3264
17843TIP3    H174944   1.210   4.363   0.734  0.3101  1.1274  1.8781
17843TIP3    H274945   1.142   4.419   0.857 -2.4656  2.1445 -0.0319
17844TIP3   OH274946   3.098   5.245  12.293  0.3788 -0.3786  0.7270
17844TIP3    H174947   3.133   5.332  12.310  2.9698 -1.0412 -0.7565
17844TIP3    H274948   3.148   5.187  12.350 -0.5738 -1.0474  0.9080
17845TIP3   OH274949   6.585   0.972  17.315 -0.0269 -0.5080  0.1481
17845TIP3    H174950   6.564   0.947  17.225  1.7957  1.9126 -1.0688
17845TIP3    H274951   6.661   0.919  17.338 -1.0699 -1.8277  0.6886
17846TIP3   OH274952   5.788   4.250  11.845 -0.2002 -0.2769  0.3481
17846TIP3    H174953   5.848   4.323  11.856 -0.2053 -0.3498  0.8750
17846TIP3    H274954   5.760   4.256  11.754  0.3032 -0.0126  0.2047
17847TIP3   OH274955   5.948   2.577   3.574 -0.3197 -0.0437 -0.2264
17847TIP3    H174956   5.854   2.593   3.585 -0.0461  1.6136 -0.0405
17847TIP3    H274957   5.986   2.665   3.565  1.7091 -0.3090  3.6536
17848TIP3   OH274958   5.796   1.991  14.113  0.4546  0.2887  0.2061
17848TIP3    H174959   5.866   2.052  14.090  2.1549 -1.1318  1.3490
17848TIP3    H274960   5.716   2.043  14.107  1.7192  2.3349  0.0902
17849TIP3   OH274961   2.422   2.905   4.393 -0.5476 -0.2176 -0.2044
17849TIP3    H174962   2.485   2.885   4.324 -1.3390  0.9053 -1.2953
17849TIP3    H274963   2.456   2.985   4.434  1.1107 -2.0223  2.2809
17850TIP3   OH274964   3.144   0.887   0.503 -0.6243 -0.1605 -0.5009
17850TIP3    H174965   3.089   0.899   0.426 -0.7342  2.5852 -0.0827
17850TIP3    H274966   3.116   0.955   0.564  2.7404  0.9743 -0.0221
17851TIP3   OH274967   4.691   5.283   0.388  0.2754  0.2428  0.0869
17851TIP3    H174968   4.779   5.311   0.363  0.5922 -0.5250  0.2886
17851TIP3    H274969   4.706   5.224   0.462 -0.4485  0.4556  0.4039
17852TIP3   OH274970   5.848   2.144  13.249 -0.5888 -0.3828 -0.1002
17852TIP3    H174971   5.868   2.233  13.219  1.7136 -0.8133  0.0087
17852TIP3    H274972   5.755   2.133  13.228 -1.7379  2.9813  2.3701
17853TIP3   OH274973   6.282   6.041   3.424  0.2008 -0.2096  0.2963
17853TIP3    H174974   6.257   6.075   3.510  1.8096  1.4407  0.1783
17853TIP3    H274975   6.276   5.946   3.432 -1.6480 -0.0371  1.5803
17854TIP3   OH274976   3.939   4.257   5.398 -0.0990 -0.3537 -0.3685
17854TIP3    H174977   4.024   4.212   5.402  0.0910  0.0710  1.2119
17854TIP3    H274978   3.875   4.187   5.401  0.1999 -0.6236 -0.2063
17855TIP3   OH274979   4.920   1.306  15.408 -0.1625 -0.5678 -0.4832
17855TIP3    H174980   4.899   1.391  15.371 -0.0389 -0.7492 -0.9668
17855TIP3    H274981   4.850   1.290  15.472  1.2281  1.0950  1.5761
17856TIP3   OH274982   1.458   1.882  13.778 -0.1716 -0.1942  0.3498
17856TIP3    H174983   1.398   1.823  13.732  0.7581 -1.4907  0.7307
17856TIP3    H274984   1.524   1.904  13.712 -0.4443  0.3187  0.2467
17857TIP3   OH274985   5.532   2.000  10.552  0.1066  0.8148 -0.5113
17857TIP3    H174986   5.461   1.936  10.549  1.6567 -0.9709 -1.1685
17857TIP3    H274987   5.488   2.085  10.548 -1.9496 -0.2252 -1.5921
17858TIP3   OH274988   3.442   6.486  16.841 -0.2782 -0.2297  0.1394
17858TIP3    H174989   3.513   6.447  16.893 -1.2430  0.5908  2.1761
17858TIP3    H274990   3.414   6.415  16.782  1.4827 -0.8969  0.0414
17859TIP3   OH274991   6.655   1.217  15.608 -0.8204  0.0427  0.1461
17859TIP3    H174992   6.696   1.138  15.574  0.0535  1.0615 -1.3150
17859TIP3    H274993   6.570   1.220  15.565 -0.3416  0.5137 -0.8263
17860TIP3   OH274994   1.004   6.147   5.208 -0.5816  0.2085 -0.4695
17860TIP3    H174995   0.946   6.123   5.280  0.2165  0.9538  0.4517
17860TIP3    H274996   1.090   6.114   5.235 -0.3388  0.1680 -1.2592
17861TIP3   OH274997   1.597   0.160  14.538  0.3458  0.0884  0.1596
17861TIP3    H174998   1.692   0.165  14.530  0.2440  0.4560 -1.1035
17861TIP3    H274999   1.566   0.151  14.447 -1.0122  3.5909  0.1235
17862TIP3   OH275000   4.450   2.492  10.996  0.5672  0.1515 -0.3811
17862TIP3    H175001   4.393   2.418  11.016  0.0225  0.3878 -1.0148
17862TIP3    H275002   4.535   2.468  11.034  0.4621 -0.9029 -0.7800
17863TIP3   OH275003   0.786   1.610  13.740 -0.3942  0.2648 -0.4680
17863TIP3    H175004   0.729   1.687  13.744  0.2817  0.7295  0.5587
17863TIP3    H275005   0.748   1.556  13.671 -3.7738 -0.7795  1.9288
17864TIP3   OH275006   1.691   0.859   2.964 -0.4816  1.2594 -0.1283
17864TIP3    H175007   1.683   0.954   2.964 -0.1994  1.2836 -0.1340
17864TIP3    H275008   1.728   0.839   2.878 -2.1739  1.0049 -0.8407
17865TIP3   OH275009   5.622   0.214  13.825 -0.2660 -0.1462  0.2272
17865TIP3    H175010   5.537   0.209  13.782 -0.2164  1.1156 -0.0554
17865TIP3    H275011   5.618   0.294  13.878 -0.1778 -1.4206  2.2883
17866TIP3   OH275012   3.600   4.590  13.460  0.7272 -0.8281  0.2339
17866TIP3    H175013   3.639   4.520  13.407 -0.8072  0.1842 -2.3949
17866TIP3    H275014   3.506   4.586  13.441  0.0922 -0.2552  2.7962
17867TIP3   OH275015   1.003   0.463  15.983  0.0224 -0.2434  0.4110
17867TIP3    H175016   1.073   0.426  15.929  3.0362 -0.3767  3.9737
17867TIP3    H275017   1.045   0.536  16.030 -2.6036  0.4668  1.9022
17868TIP3   OH275018   4.714   3.906  14.022  0.4712 -0.7140  0.2600
17868TIP3    H175019   4.668   3.986  14.045 -0.4872 -1.1498 -0.0828
17868TIP3    H275020   4.736   3.866  14.107 -1.3641 -1.3688  0.4688
17869TIP3   OH275021   0.143   5.140  17.378 -0.7218 -0.0658  0.4562
17869TIP3    H175022   0.062   5.109  17.337 -1.0043  0.3122  0.7224
17869TIP3    H275023   0.177   5.064  17.425 -0.8034 -0.2889  0.1545
17870TIP3   OH275024   4.091   3.784  13.757 -0.1161  0.5014 -0.6657
17870TIP3    H175025   4.060   3.859  13.705 -1.3373  0.3476 -0.2045
17870TIP3    H275026   4.055   3.799  13.844 -0.1390 -0.4742 -0.4951
17871TIP3   OH275027   6.307   6.664  17.323 -0.0853 -0.2630  0.0802
17871TIP3    H175028   6.291   6.755  17.349 -0.8399 -0.2506 -0.3969
17871TIP3    H275029   6.373   6.633  17.385 -0.0832  0.4973  0.4772
17872TIP3   OH275030   4.797   4.621  17.399  0.1485 -0.2937  0.2329
17872TIP3    H175031   4.866   4.559  17.424 -0.2158 -0.0271  1.9964
17872TIP3    H275032   4.717   4.568  17.398 -0.0285 -0.0447  0.8788
17873TIP3   OH275033   0.734   3.492  14.656  0.1912 -0.2044 -0.6838
17873TIP3    H175034   0.814   3.438  14.653  1.0881  1.1043 -2.0660
17873TIP3    H275035   0.727   3.528  14.567 -1.9324 -0.2330 -0.5694
17874TIP3   OH275036   4.091   5.670  15.618  0.0598 -0.2837  0.2608
17874TIP3    H175037   4.116   5.578  15.605  1.8599  0.0679  0.9390
17874TIP3    H275038   3.998   5.672  15.597  0.3634 -1.9022 -1.6129
17875TIP3   OH275039   6.071   4.118   0.657 -0.1351 -0.4716  0.5948
17875TIP3    H175040   6.013   4.109   0.732 -0.6176 -0.8740  0.1783
17875TIP3    H275041   6.017   4.098   0.581  0.3419 -0.0522  0.1324
17876TIP3   OH275042   4.621   0.607   3.398  0.0136 -0.4180 -0.3184
17876TIP3    H175043   4.716   0.594   3.394 -0.1691 -2.0619  0.1776
17876TIP3    H275044   4.591   0.585   3.310 -0.0881 -1.5370 -0.0063
17877TIP3   OH275045   5.458   4.375   2.552 -0.7760  0.0047  0.2115
17877TIP3    H175046   5.540   4.388   2.600 -0.7627  1.3739 -0.1420
17877TIP3    H275047   5.454   4.449   2.491 -1.6258 -0.7814 -0.7065
17878TIP3   OH275048   0.287   3.808  15.062 -0.1017 -0.3368  0.5172
17878TIP3    H175049   0.259   3.719  15.084  1.3663 -0.6242  1.2821
17878TIP3    H275050   0.290   3.854  15.146 -2.8974  1.1067 -0.0556
17879TIP3   OH275051   3.518   0.727   3.499  0.6975  1.0266 -0.0200
17879TIP3    H175052   3.494   0.820   3.497  0.6909  1.0193 -0.7367
17879TIP3    H275053   3.436   0.681   3.481  0.8584  0.9235 -0.5158
17880TIP3   OH275054   5.132   6.009  11.039 -0.3472 -0.1801 -0.2864
17880TIP3    H175055   5.220   6.024  11.072 -0.4757  0.3999 -0.1933
17880TIP3    H275056   5.139   5.930  10.986 -0.1998 -1.2784  1.3186
17881TIP3   OH275057   6.581   1.434  15.138 -0.3182  0.4293  0.0986
17881TIP3    H175058   6.628   1.362  15.181 -0.3264  0.0563 -0.5101
17881TIP3    H275059   6.492   1.430  15.174 -0.6488 -0.6047 -0.7755
17882TIP3   OH275060   2.014   1.525  12.146  0.1063 -0.2543  0.1383
17882TIP3    H175061   2.067   1.545  12.069 -0.1200 -1.6050 -0.3964
17882TIP3    H275062   1.926   1.510  12.112 -0.4931  1.2453  0.9372
17883TIP3   OH275063   2.501   4.047   1.807 -0.0041  0.3522 -0.1247
17883TIP3    H175064   2.554   4.039   1.728  1.2934 -0.8859  0.8384
17883TIP3    H275065   2.562   4.033   1.879 -1.6438 -1.2252  1.0321
17884TIP3   OH275066   6.662   0.238   4.140  0.5779  0.0602 -0.1501
17884TIP3    H175067   6.747   0.194   4.142  0.3492 -0.3800 -0.0997
17884TIP3    H275068   6.605   0.183   4.194  0.4578  0.7684  0.4675
17885TIP3   OH275069   5.795   5.474   3.379 -0.0032  0.4827  0.0505
17885TIP3    H175070   5.771   5.399   3.433  0.0387  0.7862  0.4973
17885TIP3    H275071   5.817   5.543   3.442  0.6420  0.6544 -0.3550
17886TIP3   OH275072   0.398   5.408   2.827  1.0076 -0.2166 -0.1189
17886TIP3    H175073   0.348   5.388   2.907 -1.1454  1.7506 -0.8766
17886TIP3    H275074   0.468   5.466   2.857 -0.1380  0.9911  0.3177
17887TIP3   OH275075   2.255   5.121   1.247 -0.0270  0.3239 -0.7208
17887TIP3    H175076   2.344   5.087   1.238 -0.1485 -0.2422  0.0529
17887TIP3    H275077   2.267   5.211   1.279  0.2659  0.2606 -0.6467
17888TIP3   OH275078   0.315   2.681  16.373 -0.2545 -0.2325 -0.0713
17888TIP3    H175079   0.371   2.724  16.437 -0.0033 -0.6819  0.0177
17888TIP3    H275080   0.371   2.614  16.333 -1.0628 -1.5810  0.9405
17889TIP3   OH275081   0.515   6.339  11.101  0.2854  0.3610  0.3132
17889TIP3    H175082   0.591   6.334  11.158 -0.6400  0.2275  1.5839
17889TIP3    H275083   0.478   6.426  11.115 -0.3414  0.0840  0.4504
17890TIP3   OH275084   1.081   4.209  16.143 -0.4259 -0.4027 -0.0038
17890TIP3    H175085   1.030   4.227  16.064 -1.0440 -0.5501  0.3548
17890TIP3    H275086   1.059   4.119  16.165 -0.7315 -0.1602  0.6906
17891TIP3   OH275087   3.301   5.225   1.590  0.7989  0.0269 -0.2975
17891TIP3    H175088   3.283   5.231   1.496  1.1917  0.7675 -0.3380
17891TIP3    H275089   3.305   5.132   1.608 -2.2162 -0.2254 -0.4392
17892TIP3   OH275090   3.467   1.326  12.410  0.8889 -0.4124 -0.4510
17892TIP3    H175091   3.537   1.373  12.456  0.6804  0.1246 -0.6829
17892TIP3    H275092   3.418   1.282  12.480  1.0970 -0.3077 -0.2361
17893TIP3   OH275093   5.070   5.191   1.861 -0.5279 -0.2092  0.1600
17893TIP3    H175094   5.144   5.154   1.813 -0.7137 -3.2614  1.9741
17893TIP3    H275095   4.994   5.166   1.810 -0.5660 -1.3693  0.7464
17894TIP3   OH275096   1.710   0.817  16.680  0.0321 -0.2307 -0.4591
17894TIP3    H175097   1.694   0.884  16.747 -0.6672 -1.4512  0.6347
17894TIP3    H275098   1.636   0.825  16.620  0.6419  0.8451 -1.0989
17895TIP3   OH275099   6.676   4.539   3.204 -0.1630  0.1322  0.3437
17895TIP3    H175100   6.645   4.624   3.172 -1.4521  0.0986  1.4022
17895TIP3    H275101   6.752   4.561   3.259  0.3516  0.4551 -0.4860
17896TIP3   OH275102   0.450   0.225  15.399 -0.0778 -0.1658 -0.5908
17896TIP3    H175103   0.509   0.277  15.453 -0.3159  1.3711 -1.7342
17896TIP3    H275104   0.451   0.138  15.438  1.8860  0.1780  0.2085
17897TIP3   OH275105   6.209   5.823  13.858  0.3989 -0.3137  0.1528
17897TIP3    H175106   6.278   5.765  13.828  0.6594 -0.1132  0.3524
17897TIP3    H275107   6.201   5.806  13.952  0.7451  0.2400  0.2893
17898TIP3   OH275108   0.122   4.305  13.258 -0.7573  0.0776 -0.1075
17898TIP3    H175109   0.195   4.340  13.310 -0.3794 -1.0624  0.1474
17898TIP3    H275110   0.129   4.350  13.174  0.8060 -0.6903 -0.4136
17899TIP3   OH275111   4.412   1.341   6.570  0.0586 -0.2812 -0.4235
17899TIP3    H175112   4.424   1.384   6.654 -1.6344  0.7011 -0.6487
17899TIP3    H275113   4.393   1.412   6.509 -1.2555 -1.1887 -1.1236
17900TIP3   OH275114   4.849   3.584   2.168  0.5262  0.6677 -0.7418
17900TIP3    H175115   4.849   3.641   2.245 -0.5207 -0.4136  0.0878
17900TIP3    H275116   4.848   3.644   2.094  2.6273  1.7549  0.0357
17901TIP3   OH275117   4.464   3.222  10.854  0.3699 -0.2075  0.2210
17901TIP3    H175118   4.525   3.272  10.802  0.3721 -0.9604 -0.5218
17901TIP3    H275119   4.519   3.164  10.908  0.3350 -0.3724  0.0811
17902TIP3   OH275120   2.791   4.492  14.780 -0.9631  0.7224  0.6257
17902TIP3    H175121   2.793   4.445  14.697  0.1086  1.1446  0.4009
17902TIP3    H275122   2.713   4.458  14.825 -0.3638 -1.0768  0.3693
17903TIP3   OH275123   0.399   1.320  16.273  0.0724 -0.2902  0.0862
17903TIP3    H175124   0.327   1.282  16.222 -0.0796  0.4247 -0.2428
17903TIP3    H275125   0.471   1.328  16.210 -0.3759  1.3701 -0.2662
17904TIP3   OH275126   1.863   2.631   0.157 -0.4679 -0.1181  0.0827
17904TIP3    H175127   1.812   2.709   0.137 -1.1770  0.4848  3.6487
17904TIP3    H275128   1.942   2.640   0.104 -0.4728  3.1065  0.4207
17905TIP3   OH275129   6.631   2.748  16.609 -0.0483  0.0678  0.5607
17905TIP3    H175130   6.549   2.797  16.611 -1.5664 -2.2287 -0.7897
17905TIP3    H275131   6.624   2.688  16.683  0.9993  0.6408  1.1522
17906TIP3   OH275132   4.398   5.031  16.116  0.3365  0.1997 -0.4233
17906TIP3    H175133   4.309   5.002  16.134  0.3268 -0.0782 -0.8900
17906TIP3    H275134   4.399   5.124  16.139  0.1169  0.0452  0.2313
17907TIP3   OH275135   4.424   0.123  11.389  0.1577  0.0245  0.5279
17907TIP3    H175136   4.398   0.087  11.304  0.4097  0.9012  0.0555
17907TIP3    H275137   4.423   0.049  11.449 -0.6463 -0.4926 -0.1043
17908TIP3   OH275138   6.287   5.757   1.943  0.0217 -0.2664  0.3167
17908TIP3    H175139   6.245   5.760   2.029  1.2748 -1.3519  0.9963
17908TIP3    H275140   6.378   5.781   1.960  0.5506 -1.5806 -0.5010
17909TIP3   OH275141   4.614   2.092   0.542  0.3243 -0.0034  0.5840
17909TIP3    H175142   4.605   2.150   0.617 -0.8067  0.0922  0.3961
17909TIP3    H275143   4.550   2.124   0.479 -0.2236 -1.3586  0.4103
17910TIP3   OH275144   4.807   0.082  16.955 -0.4860  0.8257  0.7076
17910TIP3    H175145   4.902   0.093  16.957 -0.2852 -0.6624  1.5242
17910TIP3    H275146   4.784   0.064  17.046 -1.4425  0.4250  0.3939
17911TIP3   OH275147   0.970   6.178  10.830 -0.2784  0.2352  0.0721
17911TIP3    H175148   0.975   6.274  10.832  0.2820  0.1993  1.0593
17911TIP3    H275149   1.048   6.152  10.779 -0.8039  0.3154 -0.7929
17912TIP3   OH275150   5.670   5.628  14.023 -0.2507  0.8044 -0.0601
17912TIP3    H175151   5.661   5.681  14.102  0.6831  0.5314  0.2420
17912TIP3    H275152   5.763   5.629  14.004 -0.0195 -1.6019  0.5989
17913TIP3   OH275153   1.802   3.889   0.895 -0.3452  0.2391 -0.3669
17913TIP3    H175154   1.759   3.903   0.810 -0.0345 -1.1370 -0.7713
17913TIP3    H275155   1.739   3.923   0.959 -1.5425 -0.6320 -1.0205
17914TIP3   OH275156   1.848   5.614  15.451 -0.3908 -0.3604  0.2149
17914TIP3    H175157   1.876   5.663  15.375  0.7317  0.2304  0.9804
17914TIP3    H275158   1.844   5.678  15.522 -2.4237 -0.6818  0.4678
17915TIP3   OH275159   5.868   5.027   1.002  0.0534  0.3121  0.3208
17915TIP3    H175160   5.908   5.064   1.081  0.4194 -0.4628  0.5081
17915TIP3    H275161   5.911   4.942   0.992 -1.2426 -0.3490  0.2666
17916TIP3   OH275162   4.882   3.247   1.970  0.1764  0.6514 -0.3720
17916TIP3    H175163   4.833   3.169   1.945  0.1401  0.4882  0.1874
17916TIP3    H275164   4.946   3.216   2.034 -0.7165  1.2798  0.8753
17917TIP3   OH275165   0.983   6.230  14.260 -0.2775  0.2856 -0.5770
17917TIP3    H175166   0.937   6.257  14.181 -1.4945  0.3001  0.1166
17917TIP3    H275167   0.928   6.262  14.332  0.8814  0.4087  0.2854
17918TIP3   OH275168   3.669   0.020  12.912  0.4631 -0.0875  1.0972
17918TIP3    H175169   3.675   0.115  12.911  0.8138 -0.1102  1.1879
17918TIP3    H275170   3.640  -0.003  12.823  2.6705 -0.0583  0.3263
17919TIP3   OH275171   1.500   3.353  16.716 -0.0694  0.2928  0.1850
17919TIP3    H175172   1.579   3.328  16.764  0.6440 -0.3504 -1.2718
17919TIP3    H275173   1.484   3.444  16.742  1.5262  0.6469  0.0235
17920TIP3   OH275174   2.375   6.066  11.758  0.1389 -0.0006  0.4497
17920TIP3    H175175   2.381   6.130  11.829  0.2515  0.3685  0.1084
17920TIP3    H275176   2.282   6.059  11.739  0.0606 -0.4841  0.9778
17921TIP3   OH275177   1.473   5.303   0.696 -0.7232  0.0283  0.3167
17921TIP3    H175178   1.386   5.297   0.655 -0.5621  1.1194 -0.2205
17921TIP3    H275179   1.529   5.340   0.628 -0.4152  1.7842  1.4728
17922TIP3   OH275180   0.626   3.486  15.419 -0.6504  0.1988  0.0140
17922TIP3    H175181   0.714   3.488  15.457  0.6637  1.6893 -2.7420
17922TIP3    H275182   0.638   3.445  15.333 -2.7845 -0.0758 -0.2136
17923TIP3   OH275183   5.440   2.154   4.053 -0.4738  0.1138 -1.0408
17923TIP3    H175184   5.525   2.120   4.024  1.0064  2.0481  0.7267
17923TIP3    H275185   5.410   2.209   3.980  0.1909  0.0845 -1.3417
17924TIP3   OH275186   2.601   3.435  12.202 -0.0337 -0.2960 -0.0064
17924TIP3    H175187   2.668   3.370  12.185  1.2090  1.4248 -2.1278
17924TIP3    H275188   2.562   3.454  12.117 -1.4031  0.6560  0.7760
17925TIP3   OH275189   2.365   3.819  11.244  0.5228 -0.7420  0.0236
17925TIP3    H175190   2.399   3.860  11.164 -0.2119 -0.9576 -0.4093
17925TIP3    H275191   2.430   3.841  11.311  0.8489 -0.0460 -0.4984
17926TIP3   OH275192   0.719   4.900   1.153 -0.1642 -0.1900  0.6484
17926TIP3    H175193   0.642   4.843   1.143  0.6591 -1.2289 -0.0347
17926TIP3    H275194   0.759   4.872   1.235  0.0421 -0.3562  0.4927
17927TIP3   OH275195   6.495   5.911  14.627  0.2128 -0.2085  0.0454
17927TIP3    H175196   6.570   5.869  14.668 -0.8764 -0.0433  2.3412
17927TIP3    H275197   6.507   6.005  14.643  0.4935  0.0235 -1.3496
17928TIP3   OH275198   0.266   4.893   1.741 -0.1440 -0.8731 -0.6470
17928TIP3    H175199   0.302   4.977   1.712 -0.7122 -1.1127 -2.1294
17928TIP3    H275200   0.196   4.916   1.802  0.3412 -0.3050 -0.3028
17929TIP3   OH275201   0.689   1.594   2.833  0.0657 -0.0392  0.2481
17929TIP3    H175202   0.675   1.687   2.818 -2.8752 -0.7659 -2.3967
17929TIP3    H275203   0.644   1.576   2.916 -0.4658  0.6604  0.1185
17930TIP3   OH275204   5.465   6.539  14.171 -0.5686 -0.1208  0.1551
17930TIP3    H175205   5.505   6.505  14.251  0.0584 -2.0912 -0.9480
17930TIP3    H275206   5.395   6.597  14.203  1.5291  1.5380  2.1314
17931TIP3   OH275207   4.542   5.982   4.844 -0.2008  0.0159 -0.0332
17931TIP3    H175208   4.582   5.896   4.837 -0.8513 -0.4371  1.4059
17931TIP3    H275209   4.492   5.993   4.763  1.3894 -0.1302 -1.0720
17932TIP3   OH275210   0.062   0.299  15.379 -0.3467 -0.2550  0.0249
17932TIP3    H175211  -0.027   0.264  15.381 -0.7157  0.6864  0.5953
17932TIP3    H275212   0.087   0.295  15.286 -1.5368  0.8050 -0.3687
17933TIP3   OH275213   2.091   3.196  11.814 -0.0621  0.3087  0.1428
17933TIP3    H175214   2.088   3.290  11.826 -2.9708  0.2203  0.9279
17933TIP3    H275215   2.113   3.184  11.722 -0.4039  1.7727 -0.1524
17934TIP3   OH275216   1.476   5.320  13.700 -0.2911  0.0443  0.0114
17934TIP3    H175217   1.523   5.344  13.779 -1.1398  0.7732  0.3159
17934TIP3    H275218   1.386   5.349  13.716 -0.9537 -1.6659 -0.3745
17935TIP3   OH275219   2.378   1.686  12.303  0.2231  0.5170  0.2459
17935TIP3    H175220   2.380   1.782  12.296 -0.4883  0.5683  0.6379
17935TIP3    H275221   2.351   1.669  12.393  1.8803 -0.0778  0.6599
17936TIP3   OH275222   5.287   2.126  16.692 -0.2524 -0.0068 -0.4614
17936TIP3    H175223   5.245   2.118  16.607 -0.9286 -0.4739 -0.0926
17936TIP3    H275224   5.369   2.078  16.683 -1.4687 -2.3021 -0.1207
17937TIP3   OH275225   3.527   5.881   4.335  0.0538 -0.0759  0.5276
17937TIP3    H175226   3.488   5.806   4.380 -0.4497  0.0113  0.2412
17937TIP3    H275227   3.452   5.934   4.308  0.3441 -0.1806 -0.5125
17938TIP3   OH275228   6.231   0.445  12.343 -0.3312  0.2144 -0.5582
17938TIP3    H175229   6.320   0.479  12.352  0.0329 -0.8240  0.0453
17938TIP3    H275230   6.178   0.520  12.316  0.9554  0.5672 -2.2667
17939TIP3   OH275231   5.061   2.352   2.257 -0.5111  0.1929 -0.8615
17939TIP3    H175232   5.101   2.346   2.170  0.6392  0.2135 -0.3394
17939TIP3    H275233   5.057   2.261   2.288 -2.3863 -0.0108 -1.5582
17940TIP3   OH275234   4.165   2.528  14.846  0.1947  0.0776  0.1559
17940TIP3    H175235   4.216   2.606  14.866 -0.5285  0.5772  0.1091
17940TIP3    H275236   4.075   2.561  14.836 -0.0117 -0.6641 -0.4962
17941TIP3   OH275237   1.195   5.377  10.749 -0.1162 -0.0062  0.2410
17941TIP3    H175238   1.249   5.298  10.740  0.5259  0.4455  0.0727
17941TIP3    H275239   1.258   5.449  10.748 -0.7286  0.5313 -0.0072
17942TIP3   OH275240   0.261   4.803   3.741 -0.5273 -0.3136 -0.6622
17942TIP3    H175241   0.216   4.856   3.806 -0.5903 -2.5552  1.2383
17942TIP3    H275242   0.351   4.837   3.740 -0.4079 -0.5379  0.9502
17943TIP3   OH275243   3.375   1.455  16.990  0.2022 -0.2459  0.1210
17943TIP3    H175244   3.425   1.374  17.002  2.6726  1.3983  1.7741
17943TIP3    H275245   3.441   1.524  16.990 -1.8302  1.8271 -1.1245
17944TIP3   OH275246   3.522   1.507  16.610  0.1304  0.6394  0.0804
17944TIP3    H175247   3.441   1.514  16.560 -0.5810 -0.1881  1.0639
17944TIP3    H275248   3.518   1.579  16.673  0.3792  0.8649 -0.1576
17945TIP3   OH275249   1.688   1.910   2.342 -0.1177  0.2061 -0.1890
17945TIP3    H175250   1.718   1.831   2.387  0.0380 -0.2260 -1.0324
17945TIP3    H275251   1.757   1.974   2.358 -0.3610  0.2580  0.7052
17946TIP3   OH275252   4.832   5.499  17.284 -0.2634  0.0654 -0.7862
17946TIP3    H175253   4.875   5.569  17.332  0.2740  0.0529 -1.2391
17946TIP3    H275254   4.802   5.541  17.203 -0.2007 -0.1566 -0.9249
17947TIP3   OH275255   2.394   1.801   1.950  0.1165 -0.7891 -0.6220
17947TIP3    H175256   2.312   1.834   1.913  0.4711 -0.3781 -1.0576
17947TIP3    H275257   2.446   1.880   1.966  0.1239 -0.9879  0.4017
17948TIP3   OH275258   1.252   6.279  15.306  0.1305  0.2932 -0.1471
17948TIP3    H175259   1.275   6.364  15.268 -0.8818  0.0493 -1.3693
17948TIP3    H275260   1.177   6.298  15.362  0.5287  0.3643  0.3650
17949TIP3   OH275261   4.328   3.601  11.731 -0.2208  0.3299 -0.1339
17949TIP3    H175262   4.271   3.646  11.668  0.2142 -1.8999 -2.2672
17949TIP3    H275263   4.413   3.598  11.689  0.7074  0.7517  1.6158
17950TIP3   OH275264   6.659   1.780   1.497  0.3079  0.2554 -0.0073
17950TIP3    H175265   6.707   1.800   1.417  0.0631  2.8858  0.4070
17950TIP3    H275266   6.715   1.718   1.544  1.9489  1.0614 -0.8173
17951TIP3   OH275267   2.915   0.473   5.017 -0.3821 -0.3943  0.2747
17951TIP3    H175268   2.887   0.385   4.994 -0.1209  0.0903 -2.1958
17951TIP3    H275269   2.839   0.512   5.060 -1.9785 -0.5977 -2.1390
17952TIP3   OH275270   2.116   6.458  11.204 -0.1681  0.5468 -0.0860
17952TIP3    H175271   2.161   6.541  11.189  0.4821  0.0358 -1.0835
17952TIP3    H275272   2.178   6.391  11.175 -1.4419 -0.1912 -1.2357
17953TIP3   OH275273   6.554   2.408   2.483 -0.2430  1.1160 -0.4627
17953TIP3    H175274   6.597   2.494   2.490 -0.7467  1.2595  1.3001
17953TIP3    H275275   6.626   2.346   2.470  0.6086  1.3306  2.5975
17954TIP3   OH275276   4.733   0.678   5.900 -1.0668 -0.6059 -0.3079
17954TIP3    H175277   4.784   0.632   5.967 -1.7695 -3.0741 -1.3540
17954TIP3    H275278   4.642   0.653   5.918 -1.4855  0.4204 -0.9147
17955TIP3   OH275279   3.058   6.194   5.447  0.1215 -0.3739  0.0122
17955TIP3    H175280   2.975   6.186   5.493 -0.7808 -0.3221 -1.5379
17955TIP3    H275281   3.087   6.104   5.433  2.2357 -0.4895  3.6504
17956TIP3   OH275282   1.805   6.207  11.059  0.4399 -0.1760  0.2728
17956TIP3    H175283   1.732   6.240  11.006  1.0671  2.2435  0.7886
17956TIP3    H275284   1.883   6.243  11.018  1.0899  0.0026  1.6192
17957TIP3   OH275285   3.787   2.248  17.320 -0.7136  0.7077 -0.2323
17957TIP3    H175286   3.695   2.270  17.307 -0.1877  3.7047  0.2449
17957TIP3    H275287   3.833   2.332  17.312  2.0571 -0.7529 -0.9543
17958TIP3   OH275288   6.343   3.913   3.395  0.2699  0.2632  0.0692
17958TIP3    H175289   6.404   3.851   3.355 -1.2042 -0.7213 -0.7626
17958TIP3    H275290   6.343   3.989   3.336 -1.3976 -0.9118 -1.5789
17959TIP3   OH275291   0.157   2.321   0.777  0.5441 -0.0384  0.5199
17959TIP3    H175292   0.102   2.243   0.770 -0.1407  0.5011 -0.3230
17959TIP3    H275293   0.171   2.332   0.871 -4.1232  2.0298  1.2554
17960TIP3   OH275294   0.063   0.862   5.209 -0.5625  0.2074  0.6870
17960TIP3    H175295   0.094   0.948   5.236  2.9683 -0.2927 -1.1473
17960TIP3    H275296   0.077   0.806   5.285  1.1985  0.4810  0.6084
17961TIP3   OH275297   2.106   5.950  13.747  0.6153  0.6073  0.0502
17961TIP3    H175298   2.033   5.980  13.801  1.9184  1.8303  1.1947
17961TIP3    H275299   2.071   5.948  13.658 -0.5160  2.2135  0.4187
17962TIP3   OH275300   1.046   6.153   0.605 -0.0790 -0.9146  0.4456
17962TIP3    H175301   1.102   6.133   0.680 -0.1818 -0.4165  0.6575
17962TIP3    H275302   1.108   6.174   0.534  0.0302  0.9190  1.0232
17963TIP3   OH275303   4.105   4.197   4.049 -0.0516 -0.5703  0.1318
17963TIP3    H175304   4.173   4.131   4.038 -0.3269 -1.1936  1.7743
17963TIP3    H275305   4.153   4.276   4.074  0.4262  0.4206 -3.4003
17964TIP3   OH275306   6.210   4.042  16.453 -0.7052 -0.2181 -0.1626
17964TIP3    H175307   6.258   4.029  16.371 -1.6375  0.1823 -0.7899
17964TIP3    H275308   6.218   3.958  16.499 -0.7483 -0.6702 -0.9645
17965TIP3   OH275309   1.472   5.433  11.329  0.3671 -0.1478  0.0805
17965TIP3    H175310   1.487   5.528  11.324  1.3942 -0.3763 -1.9753
17965TIP3    H275311   1.377   5.424  11.326  0.1652  0.8503  1.9181
17966TIP3   OH275312   3.390   0.404   2.935  0.5927 -0.3991  0.6499
17966TIP3    H175313   3.428   0.328   2.892  0.1683 -0.2439 -0.0155
17966TIP3    H275314   3.447   0.420   3.011  1.2787 -0.7516  0.2201
17967TIP3   OH275315   1.826   2.898  12.950 -0.0767 -0.1151  0.0357
17967TIP3    H175316   1.829   2.914  12.856 -0.7465 -0.8155 -0.1152
17967TIP3    H275317   1.772   2.819  12.959  0.7446 -0.5905  0.9378
17968TIP3   OH275318   0.083   2.755   4.767 -0.2034 -0.1978  0.8153
17968TIP3    H175319   0.167   2.725   4.731 -0.4369 -0.4739  0.4958
17968TIP3    H275320   0.087   2.851   4.760  0.0371 -0.2162  0.6936
17969TIP3   OH275321   6.615   5.772  15.840  0.5205 -0.2738 -0.4203
17969TIP3    H175322   6.627   5.817  15.924  0.6083  1.5746 -1.3700
17969TIP3    H275323   6.520   5.765  15.830  0.5011 -0.0989 -0.3664
17970TIP3   OH275324   6.012   0.403   4.977 -0.3253  0.0850 -0.4958
17970TIP3    H175325   6.043   0.486   5.013  2.6166 -1.6479  1.3412
17970TIP3    H275326   5.988   0.424   4.887 -1.1817  3.1861  0.3244
17971TIP3   OH275327   3.065   6.034  10.306 -0.0607  0.1867  0.1859
17971TIP3    H175328   3.042   5.980  10.382 -0.2264  0.2153  0.1570
17971TIP3    H275329   3.157   6.054  10.318 -0.6613  2.4169  1.8162
17972TIP3   OH275330   5.145   2.327  12.124 -0.0955 -0.1307  0.0178
17972TIP3    H175331   5.186   2.374  12.051 -1.7685  1.7007  0.1742
17972TIP3    H275332   5.213   2.322  12.191  1.1512 -0.9370 -1.2605
17973TIP3   OH275333   1.365   5.977  17.379 -0.5661  0.1224 -0.8473
17973TIP3    H175334   1.400   6.062  17.404 -1.3306  0.2977 -0.3413
17973TIP3    H275335   1.273   5.994  17.358 -0.6714 -0.5366 -0.9352
17974TIP3   OH275336   0.316   1.368   0.528 -0.1748  0.1486  0.4452
17974TIP3    H175337   0.337   1.276   0.512  1.7721  0.6816 -0.2837
17974TIP3    H275338   0.332   1.380   0.622 -1.7973 -0.5545  0.8444
17975TIP3   OH275339   2.816   6.499   2.157  0.0294  0.3986  0.3444
17975TIP3    H175340   2.750   6.519   2.091 -1.3764 -0.6303  1.3771
17975TIP3    H275341   2.798   6.409   2.183  2.3687 -0.2156  0.1034
17976TIP3   OH275342   6.471   6.188  13.751 -0.0391  0.3123  0.1755
17976TIP3    H175343   6.380   6.161  13.761  0.2270 -0.5154  0.4089
17976TIP3    H275344   6.483   6.255  13.819 -0.7889  1.2703 -0.6093
17977TIP3   OH275345   0.662   5.540   4.043  0.2405  0.3454  0.5049
17977TIP3    H175346   0.700   5.589   4.116  2.3054  0.8118 -0.7937
17977TIP3    H275347   0.735   5.491   4.006 -0.7263  0.1439 -1.2614
17978TIP3   OH275348   4.045   5.858   4.121 -0.2741 -0.0085 -0.0844
17978TIP3    H175349   4.046   5.813   4.205  0.8133 -1.3813 -0.7946
17978TIP3    H275350   4.081   5.794   4.059  0.6062  1.5676 -1.2703
17979TIP3   OH275351   4.056   6.109  11.645 -0.0074 -0.0330  0.3622
17979TIP3    H175352   4.082   6.166  11.573 -2.8229 -1.5059 -2.0654
17979TIP3    H275353   4.138   6.076  11.681  1.5549  1.8327 -1.2421
17980TIP3   OH275354   6.598   4.467  14.250  0.2094  0.5712 -0.5432
17980TIP3    H175355   6.534   4.403  14.217 -0.7341  1.6060 -0.7754
17980TIP3    H275356   6.660   4.414  14.301 -0.7865 -0.4820 -0.3681
17981TIP3   OH275357   3.577   1.312   5.784  0.5403  0.3797 -0.2592
17981TIP3    H175358   3.554   1.302   5.876  0.3087 -0.6097 -0.4117
17981TIP3    H275359   3.563   1.225   5.746  2.7795  0.1764 -0.7604
17982TIP3   OH275360   1.998   0.950  10.952  0.0070  0.1320 -0.0258
17982TIP3    H175361   1.999   1.042  10.925 -5.1781 -0.1564 -2.2875
17982TIP3    H275362   2.029   0.903  10.874 -0.7905 -0.1405 -0.1830
17983TIP3   OH275363   0.452   1.635  16.643 -0.2580  0.8180  0.4456
17983TIP3    H175364   0.469   1.558  16.589 -1.0489 -0.0257  1.3573
17983TIP3    H275365   0.438   1.706  16.580  1.2378  0.4054 -0.3976
17984TIP3   OH275366   5.896   3.737  16.663 -0.1287 -0.5889  0.0904
17984TIP3    H175367   5.971   3.677  16.659  0.7471  0.3727  1.1938
17984TIP3    H275368   5.820   3.680  16.667  0.6019 -1.6089 -0.2041
17985TIP3   OH275369   3.574   6.673   3.830  0.2909 -0.0919 -0.1901
17985TIP3    H175370   3.480   6.660   3.818 -0.1508  1.7978  0.8914
17985TIP3    H275371   3.610   6.673   3.741 -0.6270 -1.2593 -0.5948
17986TIP3   OH275372   4.425   6.680  13.027 -0.0731  0.0931  0.3809
17986TIP3    H175373   4.470   6.606  12.986 -0.4964  0.2016 -0.2871
17986TIP3    H275374   4.469   6.690  13.112  0.5597 -0.3781  0.1204
17987TIP3   OH275375   0.574   2.241   1.126  0.5561 -0.6162 -0.3188
17987TIP3    H175376   0.592   2.212   1.215  0.5555 -1.5638 -0.6108
17987TIP3    H275377   0.567   2.160   1.076  0.3835 -0.1008 -1.1476
17988TIP3   OH275378   2.405   4.666  14.818 -0.7098 -0.2974  0.2212
17988TIP3    H175379   2.458   4.717  14.879  0.2690  0.0491 -0.8954
17988TIP3    H275380   2.409   4.576  14.851  1.4658 -0.4762 -0.4067
17989TIP3   OH275381   3.974   2.255   4.481 -0.2055 -0.7811 -0.1561
17989TIP3    H175382   4.058   2.209   4.482  0.0491 -0.3308 -0.2109
17989TIP3    H275383   3.998   2.348   4.474 -0.5716 -0.3281  3.0245
17990TIP3   OH275384   2.528   5.231   4.088 -0.0338  0.2570  0.3968
17990TIP3    H175385   2.605   5.264   4.134  0.4716 -0.8078  0.3490
17990TIP3    H275386   2.559   5.216   3.998 -0.2955 -0.1555  0.3740
17991TIP3   OH275387   6.652   3.098   4.377 -0.1213  0.6781  0.1400
17991TIP3    H175388   6.585   3.143   4.327  0.1887  0.1931 -0.7264
17991TIP3    H275389   6.638   3.005   4.360 -0.2827  0.4642  1.3093
17992TIP3   OH275390   5.892   5.574   5.472 -0.1732 -0.1260 -0.0820
17992TIP3    H175391   5.884   5.666   5.445  2.0771 -0.0996 -0.8530
17992TIP3    H275392   5.802   5.540   5.469 -0.7151  1.3293 -2.4259
17993TIP3   OH275393   2.768   0.997  15.649  0.2575 -0.5268 -0.1062
17993TIP3    H175394   2.826   1.074  15.646 -0.1240 -0.2780 -1.2508
17993TIP3    H275395   2.823   0.928  15.686  0.0738  0.7341  2.8605
17994TIP3   OH275396   6.548   1.918   2.671 -0.4286 -0.0123  0.0230
17994TIP3    H175397   6.537   2.000   2.719  1.1435 -0.2187  0.8243
17994TIP3    H275398   6.491   1.926   2.595  0.7828  2.4755 -0.7447
17995TIP3   OH275399   4.659   0.500  11.154  0.0262 -0.6555  0.2906
17995TIP3    H175400   4.670   0.414  11.112  0.4900 -1.2645  1.5841
17995TIP3    H275401   4.695   0.487  11.242  0.4227  0.9750  0.3907
17996TIP3   OH275402   2.641   1.924   4.446  0.0824  0.1371 -0.6665
17996TIP3    H175403   2.653   1.937   4.352 -1.5455  2.1637 -0.6594
17996TIP3    H275404   2.590   1.999   4.474  0.6904 -0.3286  1.9027
17997TIP3   OH275405   3.058   5.358  10.893  0.3728 -0.0562 -0.0319
17997TIP3    H175406   3.002   5.436  10.895 -0.4501 -0.5691  3.1123
17997TIP3    H275407   2.999   5.287  10.866 -0.3508 -0.4081  2.2358
17998TIP3   OH275408   3.462   1.034   0.605  0.9034 -0.2836  0.3938
17998TIP3    H175409   3.506   1.078   0.533  3.2425 -0.2339  1.7684
17998TIP3    H275410   3.444   1.103   0.669  0.1088 -0.5600  0.4891
17999TIP3   OH275411   0.901   1.606  13.350  0.3637  0.1075 -0.3770
17999TIP3    H175412   0.838   1.678  13.345  1.1932  0.9971  1.1641
17999TIP3    H275413   0.856   1.539  13.401 -0.2628 -0.3537 -1.4834
18000TIP3   OH275414   0.980   0.795   3.234  0.3022  0.3128 -0.3599
18000TIP3    H175415   1.075   0.796   3.240  0.3990  0.7965 -1.6145
18000TIP3    H275416   0.962   0.772   3.142 -0.7691  1.0727 -0.3600
18001TIP3   OH275417   4.818   6.376  17.368  0.5780  0.1895  0.1216
18001TIP3    H175418   4.796   6.414  17.282 -2.2610 -1.3610  0.0464
18001TIP3    H275419   4.899   6.327  17.352  0.5158  0.5424 -1.4844
18002TIP3   OH275420   2.987   4.532  13.745  0.2175  0.0392 -0.0727
18002TIP3    H175421   2.985   4.437  13.749 -0.3240 -0.2750 -4.1333
18002TIP3    H275422   2.897   4.559  13.763  0.4235 -0.1456  1.3264
18003TIP3   OH275423   3.529   5.440   4.342  0.3098  0.0357  0.1931
18003TIP3    H175424   3.613   5.453   4.298  0.3508  0.3700  0.3609
18003TIP3    H275425   3.548   5.376   4.411 -0.2993 -2.4393 -1.7940
18004TIP3   OH275426   6.370   0.990   3.616  0.0199 -0.0320  0.5971
18004TIP3    H175427   6.363   0.956   3.527 -2.7412  0.9092  0.3645
18004TIP3    H275428   6.442   1.052   3.613 -1.9516  2.3483 -1.9000
18005TIP3   OH275429   5.952   3.515  16.063 -0.4475 -0.0990  0.1117
18005TIP3    H175430   5.912   3.477  15.985 -0.9075  0.3899  0.0999
18005TIP3    H275431   5.888   3.498  16.133 -1.2542  1.6905 -0.1345
18006TIP3   OH275432   1.750   2.084   6.010  0.1170  0.5217  0.0912
18006TIP3    H175433   1.805   2.162   6.019 -0.5660  0.9746  0.4728
18006TIP3    H275434   1.666   2.110   6.048 -0.3414 -0.1732 -0.4278
18007TIP3   OH275435   5.267   2.079   4.264 -0.3120 -0.0501  0.3435
18007TIP3    H175436   5.296   2.149   4.322 -0.9141 -0.2014  0.8418
18007TIP3    H275437   5.321   2.088   4.186  0.3041  0.3390  0.8100
18008TIP3   OH275438   5.413   3.300   4.512  0.2789 -0.4986 -0.3769
18008TIP3    H175439   5.321   3.281   4.495  0.3053  0.1115 -1.2446
18008TIP3    H275440   5.448   3.218   4.548 -1.0611 -0.1444  1.9699
18009TIP3   OH275441   5.601   3.660   6.209 -0.3482  0.2955  0.0031
18009TIP3    H175442   5.508   3.655   6.187 -0.6208  1.0448  0.9357
18009TIP3    H275443   5.624   3.571   6.235 -0.9458  0.2151  0.2852
18010TIP3   OH275444   2.730   2.093  14.254 -0.2558  0.3044 -0.2512
18010TIP3    H175445   2.708   2.136  14.337  0.4933 -0.6134  0.4499
18010TIP3    H275446   2.653   2.039  14.233 -0.7953  1.1993 -0.6162
18011TIP3   OH275447   2.541   2.182   1.192  0.5342  0.4505  0.4946
18011TIP3    H175448   2.605   2.143   1.251 -0.0072  0.7292  1.2949
18011TIP3    H275449   2.483   2.110   1.169 -0.2500  0.6686  1.6811
18012TIP3   OH275450   3.298   4.212  17.366  0.0871  0.1449 -0.0320
18012TIP3    H175451   3.205   4.207  17.345  0.0940 -1.3685  0.1962
18012TIP3    H275452   3.332   4.280  17.308 -1.1109  0.5473 -0.2856
18013TIP3   OH275453   6.524   4.648   2.185  0.2946  0.1013 -0.2538
18013TIP3    H175454   6.483   4.656   2.271 -0.4066 -1.5880 -0.3922
18013TIP3    H275455   6.456   4.611   2.128  1.1514 -0.0953 -1.1951
18014TIP3   OH275456   5.631   2.635  13.088  0.7144 -0.5910  0.0608
18014TIP3    H175457   5.639   2.608  12.997  0.0215  0.0818 -0.2178
18014TIP3    H275458   5.585   2.562  13.130 -0.0543 -0.3884 -0.4062
18015TIP3   OH275459   6.370   3.973  14.469  0.3724 -0.0589  0.6996
18015TIP3    H175460   6.457   3.970  14.508  0.8254  2.6354  0.0651
18015TIP3    H275461   6.322   4.039  14.519 -1.1072 -0.9482  0.5504
18016TIP3   OH275462   6.145   3.062   0.349 -0.0203  0.3459 -0.2350
18016TIP3    H175463   6.152   3.083   0.442 -1.7396 -0.6685  0.1609
18016TIP3    H275464   6.151   3.147   0.305  2.4951  0.6965  0.6342
18017TIP3   OH275465   6.204   2.868   6.514 -0.1522 -0.4498  0.4393
18017TIP3    H175466   6.295   2.874   6.486 -0.2013  0.9804  0.5162
18017TIP3    H275467   6.186   2.774   6.517  1.3240 -0.7554  0.4661
18018TIP3   OH275468   1.320   4.426  13.860 -0.0458  0.2051  0.1410
18018TIP3    H175469   1.254   4.389  13.802 -0.3817  0.5099  0.3249
18018TIP3    H275470   1.313   4.521  13.848  2.0290  0.2102 -1.6803
18019TIP3   OH275471   3.659   5.809   3.394  0.3462  0.0944 -0.3408
18019TIP3    H175472   3.736   5.808   3.451 -0.9094 -3.6608  1.6782
18019TIP3    H275473   3.605   5.881   3.428  1.9174  1.2948 -0.2948
18020TIP3   OH275474   5.368   6.044  11.155  0.5935  0.1212  0.9261
18020TIP3    H175475   5.459   6.043  11.185  0.5763 -2.2130  1.0450
18020TIP3    H275476   5.318   6.068  11.233  1.0654  1.3094  0.8868
18021TIP3   OH275477   3.201   0.992   5.245 -0.0885  0.2593 -0.3846
18021TIP3    H175478   3.250   0.950   5.316  1.1640  1.1332 -0.6840
18021TIP3    H275479   3.183   0.921   5.183 -0.9273 -0.4518  0.6365
18022TIP3   OH275480   5.556   6.578  16.382 -0.1597 -0.4524  0.2973
18022TIP3    H175481   5.556   6.588  16.477 -2.5103 -1.2793  0.4423
18022TIP3    H275482   5.465   6.592  16.356  0.5569  0.5382 -1.9478
18023TIP3   OH275483   4.922   1.447  16.192 -0.5814 -0.0511  0.2914
18023TIP3    H175484   4.838   1.413  16.162 -0.3506 -0.1862 -0.2105
18023TIP3    H275485   4.922   1.539  16.165 -0.7076  0.0395  0.5945
18024TIP3   OH275486   3.497   0.610  16.124 -0.4852  0.0116 -0.2419
18024TIP3    H175487   3.454   0.525  16.108 -1.5079 -0.0093  2.2699
18024TIP3    H275488   3.590   0.588  16.133 -0.5944 -0.6773 -0.6742
18025TIP3   OH275489   6.611   2.550   0.167  0.2793  0.3942  0.2066
18025TIP3    H175490   6.598   2.470   0.217 -0.9046  1.4281  1.6229
18025TIP3    H275491   6.706   2.562   0.164  0.3850  0.5243  2.6208
18026TIP3   OH275492   6.223   3.761   5.541  0.2817 -0.0932 -1.1503
18026TIP3    H175493   6.269   3.689   5.583  0.0097 -0.6340 -1.7639
18026TIP3    H275494   6.178   3.806   5.613  1.2457  0.0759 -0.6304
18027TIP3   OH275495   4.523   1.600  14.760 -1.2610  0.0089 -0.1943
18027TIP3    H175496   4.436   1.585  14.799 -1.2079  1.8987  0.7895
18027TIP3    H275497   4.515   1.685  14.717 -0.6314 -1.0133 -2.4704
18028TIP3   OH275498   1.707   1.222  15.171 -0.3067 -0.0839 -0.0355
18028TIP3    H175499   1.733   1.133  15.144 -2.3950 -0.8149  0.1574
18028TIP3    H275500   1.720   1.223  15.266  1.3455  0.4527 -0.2274
18029TIP3   OH275501   5.921   4.051   3.683 -0.4080  0.6024 -0.5620
18029TIP3    H175502   5.967   3.973   3.714 -1.3872 -0.2621 -1.2138
18029TIP3    H275503   5.982   4.092   3.621 -0.4311 -0.4249 -1.2818
18030TIP3   OH275504   3.650   3.900   4.053  0.5891  0.3375  0.1439
18030TIP3    H175505   3.630   3.966   3.986 -0.7057 -0.4908 -0.3155
18030TIP3    H275506   3.635   3.946   4.136 -0.3865  0.6066 -0.1708
18031TIP3   OH275507   1.405   1.446   4.629 -0.2265 -0.2921  1.0621
18031TIP3    H175508   1.395   1.374   4.691  1.9890 -2.1673 -0.6046
18031TIP3    H275509   1.384   1.408   4.544  2.4032  0.5382 -0.0532
18032TIP3   OH275510   5.631   1.091  17.291 -0.2722  0.3628  0.3812
18032TIP3    H175511   5.718   1.055  17.275  0.2981  1.4607  0.9095
18032TIP3    H275512   5.596   1.039  17.364  1.4040  2.1390  2.6052
18033TIP3   OH275513   1.721   2.269  15.329 -0.6273 -0.4785 -0.1069
18033TIP3    H175514   1.628   2.273  15.304  0.0342 -0.0152 -2.7726
18033TIP3    H275515   1.745   2.360  15.343 -0.7765 -0.6728  1.6288
18034TIP3   OH275516   3.771   5.617  17.053  0.0994 -0.1368  0.1316
18034TIP3    H175517   3.723   5.534  17.065 -1.5165  0.7015 -0.1812
18034TIP3    H275518   3.854   5.591  17.014 -1.3985 -1.4558 -2.4919
18035TIP3   OH275519   4.556   1.376   3.843 -1.0227  0.2616 -0.1047
18035TIP3    H175520   4.476   1.425   3.862  0.5410  2.3500  1.6055
18035TIP3    H275521   4.585   1.409   3.758 -1.5128  0.1284 -0.3242
18036TIP3   OH275522   6.697   2.658   2.523 -0.1260 -0.3472 -0.0374
18036TIP3    H175523   6.680   2.715   2.448 -0.7929 -0.2180  0.2014
18036TIP3    H275524   6.758   2.708   2.577 -0.8456  0.2314  0.2605
18037TIP3   OH275525   2.203   1.818   3.260 -0.0323  0.1566 -0.8324
18037TIP3    H175526   2.240   1.764   3.190  0.8096 -0.1762 -0.1487
18037TIP3    H275527   2.214   1.765   3.339  0.8188  1.3181 -0.1397
18038TIP3   OH275528   1.848   4.809  13.559  0.3339 -0.3090  0.2561
18038TIP3    H175529   1.929   4.810  13.610  1.0984 -0.6815 -0.9162
18038TIP3    H275530   1.857   4.734  13.500  0.1694  0.9693 -1.4808
18039TIP3   OH275531   6.197   1.791   0.905  0.7589  0.3113 -0.0713
18039TIP3    H175532   6.150   1.861   0.951  1.1283  0.9474 -0.6416
18039TIP3    H275533   6.257   1.756   0.971 -1.6077 -1.6815  1.2151
18040TIP3   OH275534   0.900   6.379  13.238 -0.3167 -0.2315  0.0070
18040TIP3    H175535   0.968   6.425  13.287 -0.9391 -0.3155  0.9660
18040TIP3    H275536   0.861   6.319  13.301 -2.6308  1.2313  0.0700
18041TIP3   OH275537   2.955   1.167  17.353 -0.0482  0.8526  0.0279
18041TIP3    H175538   2.933   1.243  17.299  2.8551  1.6624 -0.1951
18041TIP3    H275539   2.964   1.203  17.442 -1.1983  0.2419  0.4049
18042TIP3   OH275540   1.714   6.460   3.129 -0.7939  0.4316 -0.6431
18042TIP3    H175541   1.684   6.467   3.038 -2.4833  2.4643 -0.0257
18042TIP3    H275542   1.691   6.371   3.155  0.3734 -0.4319 -2.3788
18043TIP3   OH275543   2.595   1.085   4.501 -0.6794 -0.3789 -0.0024
18043TIP3    H175544   2.549   1.106   4.420  0.2827  1.1067 -0.1880
18043TIP3    H275545   2.580   0.991   4.513 -4.2264  0.0655  0.2560
18044TIP3   OH275546   5.045   4.201  15.948  0.3503  0.0720 -0.1515
18044TIP3    H175547   5.008   4.225  16.033  1.9734  0.9609  0.3535
18044TIP3    H275548   5.058   4.285  15.904 -0.1516 -0.3618 -1.1624
18045TIP3   OH275549   0.527   0.904  14.235 -0.8874  0.5616  0.1240
18045TIP3    H175550   0.445   0.857  14.222 -0.5698  0.0954 -0.1992
18045TIP3    H275551   0.566   0.909  14.147 -1.2759  2.1001 -0.0006
18046TIP3   OH275552   4.179   6.231  17.052  0.5802  0.1244 -0.3077
18046TIP3    H175553   4.207   6.320  17.074 -0.8945  1.0448 -1.9002
18046TIP3    H275554   4.204   6.179  17.128 -1.7123  2.5751  2.3603
18047TIP3   OH275555   2.247   3.890   4.600  0.0218 -0.0337 -0.3689
18047TIP3    H175556   2.204   3.948   4.536 -0.3236  1.2195  0.9482
18047TIP3    H275557   2.202   3.806   4.590 -1.7522  0.8329 -0.0599
18048TIP3   OH275558   0.292   2.057   4.444 -0.1625  0.5517  0.3406
18048TIP3    H175559   0.211   2.056   4.394 -0.0678 -0.3443  0.1925
18048TIP3    H275560   0.330   1.970   4.431  0.4331  0.6955  1.0374
18049TIP3   OH275561   5.369   5.041   3.004  0.3513  0.7064 -0.3325
18049TIP3    H175562   5.386   4.954   2.968 -0.0018  0.9896 -1.2013
18049TIP3    H275563   5.277   5.038   3.031  0.7605  0.3134  1.1055
18050TIP3   OH275564   2.937   4.140  14.199 -1.0609  0.8732  0.1236
18050TIP3    H175565   2.961   4.195  14.274  2.3119  3.4907 -2.5148
18050TIP3    H275566   2.995   4.065  14.205 -1.0239  0.9141  0.2878
18051TIP3   OH275567   5.748   5.937   2.888  0.1824 -0.1453 -0.1671
18051TIP3    H175568   5.842   5.922   2.874  0.0734  0.2645 -1.4964
18051TIP3    H275569   5.712   5.850   2.905  0.9364 -0.1892  1.3391
18052TIP3   OH275570   2.908   0.614  16.761  0.2170 -0.3060  0.1994
18052TIP3    H175571   2.943   0.572  16.683  0.6486  0.4765 -0.0367
18052TIP3    H275572   2.874   0.698  16.730  0.1010 -0.1239  0.7999
18053TIP3   OH275573   4.212   2.856  15.808 -0.3904 -0.2593  0.2267
18053TIP3    H175574   4.167   2.852  15.724  0.7925 -0.1363 -0.4350
18053TIP3    H275575   4.243   2.946  15.815  2.3408 -1.0481 -0.7644
18054TIP3   OH275576   5.753   5.828   1.241  0.1774  0.4663 -0.1721
18054TIP3    H175577   5.835   5.788   1.211  0.9387  1.2992  0.7297
18054TIP3    H275578   5.690   5.755   1.243  0.6795 -0.0323 -1.6028
18055TIP3   OH275579   0.186   5.708  13.948  0.0572  0.0492  0.0126
18055TIP3    H175580   0.098   5.703  13.913 -0.1183 -0.3300  0.4877
18055TIP3    H275581   0.184   5.652  14.026  0.2932  1.2831  0.9260
18056TIP3   OH275582   1.624   1.253   4.978 -0.0448 -0.1591  0.0394
18056TIP3    H175583   1.635   1.344   4.953 -0.4319 -0.8636 -3.1215
18056TIP3    H275584   1.700   1.208   4.941  1.3368 -0.9507  3.4117
18057TIP3   OH275585   3.765   3.750   2.380  0.6403  0.0252 -0.0594
18057TIP3    H175586   3.746   3.829   2.430  1.5198 -0.3534  0.9119
18057TIP3    H275587   3.682   3.702   2.378 -0.1037  1.2688 -1.2852
18058TIP3   OH275588   3.303   3.612  14.262  0.1496  0.3934 -0.4785
18058TIP3    H175589   3.236   3.675  14.233  0.1888  0.7077  0.0957
18058TIP3    H275590   3.386   3.654  14.238  0.1713  0.4948 -0.2248
18059TIP3   OH275591   5.280   0.180   0.582 -0.1520 -0.0166 -0.1170
18059TIP3    H175592   5.285   0.253   0.520  0.6227  0.0921  0.0685
18059TIP3    H275593   5.189   0.150   0.576  0.2673 -1.0787 -2.5189
18060TIP3   OH275594   3.174   0.446  13.819  0.4169  0.3688  0.5251
18060TIP3    H175595   3.120   0.396  13.880  0.3177  0.2146  0.3128
18060TIP3    H275596   3.240   0.383  13.788  0.6571  0.5293  0.7085
18061TIP3   OH275597   3.830   4.213   4.048  0.0348  0.2871  0.2298
18061TIP3    H175598   3.922   4.191   4.033 -0.6488 -1.4623 -2.0658
18061TIP3    H275599   3.832   4.291   4.103  2.9725  1.8134 -1.7749
18062TIP3   OH275600   4.407   2.781  14.067  0.7788  0.3359  0.5396
18062TIP3    H175601   4.493   2.814  14.093  0.2372 -0.3502  3.6061
18062TIP3    H275602   4.345   2.844  14.105 -0.1345 -0.0344 -0.2848
18063TIP3   OH275603   2.809   3.728   3.938 -0.6100 -0.0228  0.0637
18063TIP3    H175604   2.805   3.654   3.877 -2.1032 -0.6539  0.8540
18063TIP3    H275605   2.883   3.709   3.995 -1.0033 -0.9497  0.2836
18064TIP3   OH275606   3.168   4.713  10.918  0.1378 -0.0076  0.0938
18064TIP3    H175607   3.229   4.653  10.875  0.8376  0.9334 -0.2703
18064TIP3    H275608   3.094   4.718  10.859  0.1824 -0.3212  0.0095
18065TIP3   OH275609   1.422   6.589   3.559  0.0634 -0.1262 -0.6557
18065TIP3    H175610   1.382   6.655   3.503 -1.3000  0.7487  1.2200
18065TIP3    H275611   1.349   6.554   3.610  1.0211 -1.9172 -0.4329
18066TIP3   OH275612   0.417   6.498  14.028 -0.1151 -0.4236 -0.4172
18066TIP3    H175613   0.454   6.410  14.039 -1.5149 -0.8216  1.6022
18066TIP3    H275614   0.345   6.486  13.966 -0.5637 -0.8141  0.1618
18067TIP3   OH275615   4.921   2.621   4.469 -0.4650 -0.6006 -0.3679
18067TIP3    H175616   4.826   2.627   4.480 -0.4140 -0.0225 -0.2039
18067TIP3    H275617   4.936   2.643   4.377 -0.4109  0.3358 -0.1463
18068TIP3   OH275618   0.674   1.306  15.314  0.1928  0.1114  0.1650
18068TIP3    H175619   0.641   1.378  15.260 -0.9473 -0.0119  0.6873
18068TIP3    H275620   0.661   1.228  15.261 -0.5260  0.0445  0.4262
18069TIP3   OH275621   3.248   1.427  11.326 -0.2075  0.2205  0.4544
18069TIP3    H175622   3.200   1.353  11.362  1.4184 -0.0052  2.3289
18069TIP3    H275623   3.282   1.474  11.403  2.3954  0.4343 -0.7053
18070TIP3   OH275624   6.569   0.635  12.635  0.4825 -0.1554 -0.9012
18070TIP3    H175625   6.639   0.570  12.641  0.0169 -0.8353 -2.3930
18070TIP3    H275626   6.593   0.702  12.700  1.1879 -1.5841  0.3768
18071TIP3   OH275627   1.074   1.653  16.001  0.3088 -0.1071 -0.1237
18071TIP3    H175628   1.071   1.726  16.063  1.6674 -0.0905 -0.0433
18071TIP3    H275629   1.057   1.575  16.055  0.4134  0.0093  0.0794
18072TIP3   OH275630   3.105   5.912   1.745 -0.1271 -0.2004 -0.2614
18072TIP3    H175631   3.097   5.948   1.833 -3.2721  0.3861 -0.6820
18072TIP3    H275632   3.038   5.844   1.740 -2.1424  1.7222 -2.9822
18073TIP3   OH275633   2.094   2.512  13.496 -0.0109 -0.0160 -0.4866
18073TIP3    H175634   1.999   2.522  13.506  0.0835  2.0494 -1.1107
18073TIP3    H275635   2.107   2.419  13.481 -1.8034 -0.5405  0.8541
18074TIP3   OH275636   2.988   4.056  11.506 -0.2440  0.2623 -0.1991
18074TIP3    H175637   2.992   4.148  11.531  0.2288  0.2904 -0.3843
18074TIP3    H275638   3.047   4.048  11.432  0.3060 -0.3428  0.2908
18075TIP3   OH275639   3.384   2.366   3.865  0.0046 -0.3393  0.0228
18075TIP3    H175640   3.446   2.390   3.796 -0.2005  0.2000  0.0263
18075TIP3    H275641   3.310   2.327   3.818 -0.1603  0.0815 -0.0646
18076TIP3   OH275642   6.090   3.116  11.685  0.0133  0.5343  0.2761
18076TIP3    H175643   6.155   3.147  11.748  2.7953  0.0615 -2.1455
18076TIP3    H275644   6.071   3.193  11.630 -1.9695  0.7997  1.2154
18077TIP3   OH275645   5.716   5.770   0.020  0.2158 -0.3914 -0.0587
18077TIP3    H175646   5.776   5.706   0.059 -1.9568 -2.0379  0.8298
18077TIP3    H275647   5.666   5.804   0.095  0.0072  0.9143 -0.7673
18078TIP3   OH275648   2.561   6.214  10.889  0.6070 -0.2102  0.0297
18078TIP3    H175649   2.638   6.266  10.908  0.7226 -0.6450  0.7826
18078TIP3    H275650   2.592   6.123  10.891 -0.0722 -0.4309  1.1156
18079TIP3   OH275651   4.625   4.120  11.585 -0.1669  0.4143 -0.4038
18079TIP3    H175652   4.630   4.026  11.567  0.2414 -0.1319  2.1383
18079TIP3    H275653   4.552   4.151  11.532 -0.4359 -1.3786 -1.1463
18080TIP3   OH275654   6.135   4.853  11.046 -0.0313  0.3909  0.1237
18080TIP3    H175655   6.096   4.865  11.132 -0.2028  1.6693 -0.1027
18080TIP3    H275656   6.088   4.915  10.990  1.6138  1.2694 -0.3740
18081TIP3   OH275657   2.885   6.174  17.365  0.6695 -0.5859  0.2494
18081TIP3    H175658   2.954   6.156  17.429  0.3983  1.1392  1.0874
18081TIP3    H275659   2.932   6.186  17.282  1.5382  1.5152  0.9810
18082TIP3   OH275660   4.419   5.729   5.052  0.1000  0.4111  0.0517
18082TIP3    H175661   4.370   5.798   5.007  0.0605  0.4090  0.0920
18082TIP3    H275662   4.355   5.660   5.066  0.3913 -0.0800 -0.9512
18083TIP3   OH275663   2.654   4.720   4.613 -0.2778  0.1014 -0.4634
18083TIP3    H175664   2.588   4.787   4.635  0.9714  1.3788 -0.4441
18083TIP3    H275665   2.642   4.653   4.680  0.8198  2.0577  1.8426
18084TIP3   OH275666   6.139   1.038  13.883  0.4130 -0.3640  0.1349
18084TIP3    H175667   6.128   0.991  13.966  1.3550 -1.2401 -0.2094
18084TIP3    H275668   6.077   1.111  13.888  0.5727 -0.3003  1.6787
18085TIP3   OH275669   4.879   6.427  12.075 -0.5411 -0.0196  0.2682
18085TIP3    H175670   4.955   6.372  12.058 -1.2081 -0.2236 -2.4226
18085TIP3    H275671   4.811   6.365  12.102 -0.4335 -0.1367  0.2750
18086TIP3   OH275672   0.055   4.260  14.890  0.7421  0.2956  0.2422
18086TIP3    H175673   0.134   4.262  14.836  1.4081  0.4156  1.1830
18086TIP3    H275674  -0.006   4.204  14.842  1.2794  0.4713 -0.6617
18087TIP3   OH275675   6.681   4.564   2.567 -0.0828  0.0649 -0.6799
18087TIP3    H175676   6.633   4.640   2.600 -1.0688 -1.0235  0.5049
18087TIP3    H275677   6.614   4.499   2.548  0.6681 -0.1895 -2.6790
18088TIP3   OH275678   2.593   5.427  13.724  0.1714  0.5630 -0.2903
18088TIP3    H175679   2.525   5.402  13.661 -0.0277 -0.5399  0.3371
18088TIP3    H275680   2.663   5.363  13.711 -0.0079  0.1176  0.8077
18089TIP3   OH275681   0.496   4.403  12.243 -0.1890  0.2361  0.4129
18089TIP3    H175682   0.580   4.441  12.268  0.0271 -0.1878  0.3311
18089TIP3    H275683   0.518   4.321  12.199 -0.6586 -0.0722  0.7410
18090TIP3   OH275684   2.176   5.477  17.048  0.0016 -0.2075  0.5130
18090TIP3    H175685   2.121   5.470  17.126  0.6812  0.4967  1.0717
18090TIP3    H275686   2.125   5.532  16.988  0.8055  1.9904  1.7340
18091TIP3   OH275687   2.368   3.143   4.701  0.1706  0.2132 -0.8755
18091TIP3    H175688   2.373   3.237   4.680 -0.6851  0.2790 -0.8222
18091TIP3    H275689   2.280   3.117   4.673  0.0514 -0.3550  0.0009
18092TIP3   OH275690   5.010   0.189  14.850  0.4892  0.8189  0.4320
18092TIP3    H175691   5.078   0.172  14.915  1.8648  1.4665 -0.7556
18092TIP3    H275692   4.931   0.149  14.885  1.3284  0.6404  2.1926
18093TIP3   OH275693   2.528   1.702  15.521  1.0963 -0.4738  0.3018
18093TIP3    H175694   2.597   1.736  15.577  0.3048 -0.9849  1.6465
18093TIP3    H275695   2.504   1.775  15.464  3.7709 -0.7328 -1.3152
18094TIP3   OH275696   2.878   0.260  11.357  0.0166  0.0956  0.5916
18094TIP3    H175697   2.947   0.198  11.383  0.0362  1.3011  3.7961
18094TIP3    H275698   2.912   0.346  11.382 -1.6582  0.9773 -0.0140
18095TIP3   OH275699   4.769   4.050  16.444 -0.2351 -0.5455 -0.7164
18095TIP3    H175700   4.740   4.087  16.528  3.3888 -0.2434  0.5964
18095TIP3    H275701   4.762   3.956  16.455 -1.6287 -0.4702 -0.8598
18096TIP3   OH275702   5.232   3.396   6.362 -0.0453  0.1532 -0.2238
18096TIP3    H175703   5.138   3.389   6.378 -0.4176  1.4038 -1.6550
18096TIP3    H275704   5.271   3.398   6.450 -1.3798  0.0140  0.3911
18097TIP3   OH275705   3.196   6.027  11.981 -0.1797  0.6088  0.2864
18097TIP3    H175706   3.130   6.044  12.048 -1.9000 -0.2631 -1.1057
18097TIP3    H275707   3.173   6.086  11.909  0.1192 -0.1942 -0.4885
18098TIP3   OH275708   5.488   6.254   0.726 -0.5402 -0.4039  0.0780
18098TIP3    H175709   5.527   6.174   0.690 -1.6602 -0.3867 -1.2490
18098TIP3    H275710   5.555   6.321   0.712  0.0815 -0.9361  0.4465
18099TIP3   OH275711   0.761   0.508   5.488 -0.0919 -0.2053  0.3373
18099TIP3    H175712   0.831   0.564   5.522  0.6131 -1.0911  0.3622
18099TIP3    H275713   0.756   0.436   5.550  0.6404 -1.4083 -0.9443
18100TIP3   OH275714   5.013   3.329  11.030  0.1457  0.6597  0.0892
18100TIP3    H175715   4.918   3.329  11.020  0.1656 -0.4043 -0.2413
18100TIP3    H275716   5.037   3.421  11.032 -0.9864  0.9654  1.1287
18101TIP3   OH275717   3.018   4.843   2.251  0.7069 -0.4810  0.1217
18101TIP3    H175718   3.026   4.747   2.258  2.3094 -0.4498 -0.6532
18101TIP3    H275719   3.022   4.860   2.157 -1.5259  0.2471  0.1180
18102TIP3   OH275720   4.190   5.052  14.952  0.3456 -0.0579  0.5607
18102TIP3    H175721   4.130   5.111  14.998  0.2064 -0.5593  1.0435
18102TIP3    H275722   4.134   4.980  14.922  0.6343 -0.3286  0.6606
18103TIP3   OH275723   0.254   0.295  12.924  0.2666  0.2996 -0.2840
18103TIP3    H175724   0.179   0.345  12.956  0.3693  0.6582 -0.5959
18103TIP3    H275725   0.325   0.317  12.983  0.1819  0.1214 -0.1129
18104TIP3   OH275726   0.187   0.038  13.159 -0.7276 -0.2038 -0.2060
18104TIP3    H175727   0.125  -0.035  13.151 -0.3380 -0.5032 -0.5037
18104TIP3    H275728   0.144   0.110  13.112 -1.1677 -0.1965  0.1927
18105TIP3   OH275729   3.674   4.790  12.549  0.2416 -0.7793  0.1625
18105TIP3    H175730   3.751   4.734  12.542  0.0301 -1.0645  0.0967
18105TIP3    H275731   3.628   4.758  12.627 -0.7335 -1.7784 -0.7934
18106TIP3   OH275732   1.543   5.419  14.854  0.4796 -0.4948 -0.0813
18106TIP3    H175733   1.620   5.426  14.797  0.0764  1.2016 -0.4679
18106TIP3    H275734   1.578   5.397  14.940  1.3689 -0.1475 -0.3485
18107TIP3   OH275735   0.479   5.180   2.601 -0.2333  0.4157 -0.9804
18107TIP3    H175736   0.469   5.244   2.671 -1.6014  0.8752 -1.5591
18107TIP3    H275737   0.431   5.103   2.631  0.2821  0.1344 -0.8634
18108TIP3   OH275738   4.539   5.425   5.922  0.1674  0.4332  0.4772
18108TIP3    H175739   4.509   5.475   5.998  0.0799  0.2609  0.5571
18108TIP3    H275740   4.489   5.344   5.926 -0.5259  0.8061 -0.2996
18109TIP3   OH275741   0.643   1.336  10.407  0.8554 -0.4916  0.5881
18109TIP3    H175742   0.560   1.355  10.453  1.6086 -0.6357  2.0806
18109TIP3    H275743   0.678   1.422  10.385  1.4654 -0.3007  2.1599
18110TIP3   OH275744   5.909   5.902  16.429 -0.5564 -0.0355  0.6714
18110TIP3    H175745   5.991   5.948  16.412 -0.9869  0.8533  0.8950
18110TIP3    H275746   5.853   5.925  16.354 -0.5550 -0.7774  0.4295
18111TIP3   OH275747   5.907   6.709  17.445  0.1036  0.1255  0.0645
18111TIP3    H175748   5.982   6.760  17.415  0.0205 -0.2560 -0.8168
18111TIP3    H275749   5.942   6.621  17.458 -0.3703 -0.2820 -1.2559
18112TIP3   OH275750   1.122   3.747  14.859 -0.0139  0.3340  0.5982
18112TIP3    H175751   1.215   3.767  14.872  0.5145 -1.2937 -0.4536
18112TIP3    H275752   1.100   3.688  14.931  0.4750 -1.3193 -0.5659
18113TIP3   OH275753   4.171   2.450   1.907  0.4208  0.1197  0.3013
18113TIP3    H175754   4.231   2.377   1.891 -1.9166 -1.1893 -4.2044
18113TIP3    H275755   4.087   2.409   1.924 -0.2575  1.8433  1.3595
18114TIP3   OH275756   2.368   6.207  13.393 -0.4027  0.9624 -0.7426
18114TIP3    H175757   2.345   6.280  13.451  1.3372  1.4987 -0.6606
18114TIP3    H275758   2.443   6.240  13.343 -0.4900 -0.2793 -1.7330
18115TIP3   OH275759   2.065   1.107  14.768  0.0207 -0.0557 -0.4895
18115TIP3    H175760   2.015   1.120  14.849 -1.1836 -0.7777 -1.0813
18115TIP3    H275761   2.110   1.190  14.754  0.4237  0.0173  1.0223
18116TIP3   OH275762   3.500   2.637  17.465  0.1199 -0.0779 -0.3668
18116TIP3    H175763   3.551   2.561  17.494 -1.2960 -0.6486  0.7376
18116TIP3    H275764   3.536   2.658  17.379  1.5232 -1.0799 -0.0628
18117TIP3   OH275765   3.835   4.647  16.245  0.0313 -0.4345 -0.1450
18117TIP3    H175766   3.848   4.552  16.250 -1.3248 -0.6196  0.3436
18117TIP3    H275767   3.775   4.659  16.171  0.4312  0.0761 -0.3925
18118TIP3   OH275768   2.378   5.144  11.520  0.1361  0.0955  0.3728
18118TIP3    H175769   2.363   5.055  11.551  0.7775  0.1216  0.7784
18118TIP3    H275770   2.297   5.168  11.476 -0.7770 -0.0133  1.9049
18119TIP3   OH275771   3.249   6.309   3.164 -0.2513  0.3945  0.1443
18119TIP3    H175772   3.163   6.330   3.200  0.8014  0.0747  3.1156
18119TIP3    H275773   3.308   6.315   3.239  2.1964 -0.2026 -1.6314
18120TIP3   OH275774   4.206   5.303  13.184  0.2535  0.3426  0.3092
18120TIP3    H175775   4.258   5.263  13.115  0.1816 -0.8093  0.9023
18120TIP3    H275776   4.259   5.376  13.215  1.2970 -0.5104  0.5678
18121TIP3   OH275777   3.570   1.036   5.036 -0.3324  0.8612 -0.3026
18121TIP3    H175778   3.614   1.117   5.062  1.9896 -0.2950 -0.3924
18121TIP3    H275779   3.477   1.057   5.041  0.1804  3.2945  0.4115
18122TIP3   OH275780   5.484   1.495  17.369 -0.4220  0.1742 -0.4863
18122TIP3    H175781   5.442   1.410  17.357  2.0767 -1.3816  1.0640
18122TIP3    H275782   5.433   1.537  17.438 -0.0812 -1.2704  0.6961
18123TIP3   OH275783   2.221   5.714   0.968 -0.1972 -0.1761 -0.0855
18123TIP3    H175784   2.160   5.723   1.041  0.9431  2.6469  0.6397
18123TIP3    H275785   2.192   5.780   0.905 -0.3085 -1.6267 -1.6206
18124TIP3   OH275786   1.991   0.027   0.484 -0.2701 -1.1041 -0.4107
18124TIP3    H175787   2.001   0.084   0.560 -0.9582 -1.9428  0.3288
18124TIP3    H275788   2.019   0.081   0.410  0.5841 -0.3319  0.4435
18125TIP3   OH275789   6.326   4.892   2.160 -0.5616  0.0608  0.4501
18125TIP3    H175790   6.296   4.923   2.246  1.6159 -1.3929  1.8137
18125TIP3    H275791   6.407   4.846   2.177 -0.5249 -1.1225 -2.3099
18126TIP3   OH275792   0.756   0.229   2.433  0.5249  0.0879  0.1305
18126TIP3    H175793   0.759   0.233   2.528  0.6584  0.5428  0.1080
18126TIP3    H275794   0.781   0.317   2.404  0.0369  0.0879 -0.3123
18127TIP3   OH275795   6.373   0.180   3.670  0.1992  0.5394 -0.0612
18127TIP3    H175796   6.414   0.152   3.751  2.8759  1.2046 -1.0668
18127TIP3    H275797   6.343   0.269   3.687  0.4570  0.5566  0.2996
18128TIP3   OH275798   1.547   4.854  11.495  0.0869  0.5272 -0.3923
18128TIP3    H175799   1.619   4.897  11.449  0.3624 -0.3978 -0.8517
18128TIP3    H275800   1.495   4.812  11.426 -1.2287  1.6510 -0.1249
18129TIP3   OH275801   3.210   4.656   4.516 -0.0228 -0.6235  0.2553
18129TIP3    H175802   3.145   4.705   4.567  1.7831  0.3102  1.7779
18129TIP3    H275803   3.239   4.718   4.450  0.1219 -0.6501  0.2938
18130TIP3   OH275804   5.857   4.470   4.635 -0.0979 -0.2781  0.0841
18130TIP3    H175805   5.922   4.401   4.621  0.3905  0.0712  0.5628
18130TIP3    H275806   5.814   4.446   4.717 -0.0780 -0.1351  0.1370
18131TIP3   OH275807   4.135   0.289   5.514  0.3805 -0.2731  0.0258
18131TIP3    H175808   4.046   0.320   5.529 -0.3188 -3.2402  3.3532
18131TIP3    H275809   4.186   0.325   5.586  0.9903 -1.4885  0.2289
18132TIP3   OH275810   1.216   4.264   2.452  0.6530  0.1214 -0.0394
18132TIP3    H175811   1.138   4.297   2.407  1.3278  1.4157 -0.2947
18132TIP3    H275812   1.181   4.202   2.517 -0.5178  0.0813 -0.6726
18133TIP3   OH275813   1.057   0.605   4.898  0.3759  0.4146 -0.1173
18133TIP3    H175814   0.970   0.620   4.861  1.1857  4.1056 -1.0338
18133TIP3    H275815   1.050   0.632   4.990  0.1114 -1.3525  0.4043
18134TIP3   OH275816   4.539   3.170  14.028 -0.2547 -0.1821 -0.8292
18134TIP3    H175817   4.458   3.219  14.011  0.9835  1.4290 -2.3223
18134TIP3    H275818   4.510   3.096  14.082 -2.3466  1.7011  0.8454
18135TIP3   OH275819   0.611   6.164   1.341  0.5076  0.4469  0.0351
18135TIP3    H175820   0.564   6.193   1.262 -0.6482  1.3223  1.0002
18135TIP3    H275821   0.541   6.146   1.404  1.3983 -0.6761  0.7218
18136TIP3   OH275822   5.587   1.297   3.450  0.4199 -0.6623 -0.3929
18136TIP3    H175823   5.618   1.271   3.536  1.3523 -0.1096 -0.5525
18136TIP3    H275824   5.665   1.300   3.395 -0.0713 -0.4099 -1.1059
18137TIP3   OH275825   4.373   1.729  12.570 -0.4975  0.0585 -0.7522
18137TIP3    H175826   4.361   1.793  12.500  0.8697  0.2043 -0.8727
18137TIP3    H275827   4.364   1.780  12.651  0.2596  0.3558 -0.8468
18138TIP3   OH275828   0.409   6.472   3.585  0.6405  0.6569 -0.3774
18138TIP3    H175829   0.351   6.488   3.510 -0.4395  0.5061  0.4068
18138TIP3    H275830   0.464   6.550   3.590 -0.9484  1.7812  0.1682
18139TIP3   OH275831   1.281   3.352   4.547 -0.6362  0.2987  0.2914
18139TIP3    H175832   1.191   3.365   4.578 -0.6917 -1.4869  0.9997
18139TIP3    H275833   1.281   3.264   4.510  0.7472  0.4063 -0.0090
18140TIP3   OH275834   5.676   3.754  11.602  0.1136 -0.1443 -0.2323
18140TIP3    H175835   5.649   3.711  11.520  0.9127  2.0967 -1.7930
18140TIP3    H275836   5.678   3.847  11.579  0.5045  0.5377  2.3504
18141TIP3   OH275837   3.318   2.299   4.605 -0.1252  0.3506  0.0125
18141TIP3    H175838   3.285   2.274   4.519 -0.4410  2.0835 -0.4157
18141TIP3    H275839   3.413   2.310   4.593 -0.4642  3.2153 -0.9030
18142TIP3   OH275840   2.978   3.952   2.271  0.5655  0.1151  0.3593
18142TIP3    H175841   2.994   3.858   2.274  0.7442  0.1569  1.0797
18142TIP3    H275842   3.047   3.990   2.326 -0.0100  0.5866  0.7778
18143TIP3   OH275843   6.456   2.987  14.783  0.1431 -0.6965 -0.0387
18143TIP3    H175844   6.515   2.918  14.812 -0.8450 -2.1534 -1.3270
18143TIP3    H275845   6.503   3.068  14.801  1.8931 -1.7460  0.3503
18144TIP3   OH275846   5.103   5.881   1.310  0.5284  0.6833 -0.0832
18144TIP3    H175847   5.117   5.916   1.222 -3.2742  1.4925 -0.5277
18144TIP3    H275848   5.144   5.794   1.308  2.2285  1.4495 -1.9423
18145TIP3   OH275849   4.943   5.606   2.777  0.4240  0.1602  0.8092
18145TIP3    H175850   4.944   5.552   2.698 -1.2610  1.7831 -0.3956
18145TIP3    H275851   4.886   5.558   2.838 -0.7345  0.3369 -0.1039
18146TIP3   OH275852   5.147   0.145  13.280 -0.3499 -0.3965  0.3857
18146TIP3    H175853   5.083   0.214  13.262 -0.0079  0.5260  2.3585
18146TIP3    H275854   5.185   0.125  13.195 -1.5243  0.7832 -0.4688
18147TIP3   OH275855   2.538   2.375   2.363  0.0216 -0.1647 -0.0692
18147TIP3    H175856   2.558   2.380   2.269 -1.4285 -1.0531 -0.4664
18147TIP3    H275857   2.444   2.391   2.368  0.2807  1.0913  1.3854
18148TIP3   OH275858   0.524   1.987  15.584 -0.8408 -0.3022 -0.4777
18148TIP3    H175859   0.547   1.980  15.492  0.5329 -0.4900 -0.1420
18148TIP3    H275860   0.436   2.025  15.584 -1.0762 -0.8020 -1.8657
18149TIP3   OH275861   6.336   3.223   3.957  0.2190  0.1256  0.3408
18149TIP3    H175862   6.395   3.276   3.903  1.4496 -0.2870  1.2232
18149TIP3    H275863   6.297   3.286   4.018  1.6836  0.0503  1.3957
18150TIP3   OH275864   2.903   2.061  11.867  0.2017  0.1816  0.8594
18150TIP3    H175865   2.927   2.120  11.939 -0.2040 -1.2358  2.2041
18150TIP3    H275866   2.984   2.013  11.848  0.3103  0.5608  0.3411
18151TIP3   OH275867   0.526   5.437  13.517 -0.4900 -0.1290 -0.2761
18151TIP3    H175868   0.585   5.507  13.487  0.2056 -0.9258 -0.8121
18151TIP3    H275869   0.444   5.452  13.470  0.0749 -0.4188 -1.3875
18152TIP3   OH275870   4.119   1.319  11.665  0.2873 -0.5240 -0.0057
18152TIP3    H175871   4.163   1.403  11.650 -0.6695  0.0224  0.1107
18152TIP3    H275872   4.069   1.303  11.585 -2.2391  0.7721  1.1825
18153TIP3   OH275873   1.638   1.510  10.584  0.5150 -0.1376 -0.4084
18153TIP3    H175874   1.639   1.562  10.665  1.1672  0.6502 -0.9002
18153TIP3    H275875   1.591   1.431  10.607 -2.4931  1.5667 -0.2007
18154TIP3   OH275876   6.247   6.552  12.040  0.4801 -0.1446 -0.3114
18154TIP3    H175877   6.317   6.613  12.063 -0.1678  0.1257  1.0307
18154TIP3    H275878   6.167   6.604  12.045  0.0258 -0.8421 -0.2384
18155TIP3   OH275879   4.245   1.820  13.095  0.0466 -0.1140  0.0875
18155TIP3    H175880   4.167   1.788  13.142 -0.4343  1.4194  0.4008
18155TIP3    H275881   4.318   1.777  13.139 -0.5731 -1.0175  0.2734
18156TIP3   OH275882   0.528   4.128  15.843 -0.0548  0.2257  0.3758
18156TIP3    H175883   0.570   4.104  15.760 -0.0924 -1.7438  0.8779
18156TIP3    H275884   0.599   4.130  15.907 -0.4107 -1.3111  0.8665
18157TIP3   OH275885   4.253   5.241  17.108  0.6934  0.3542  0.3027
18157TIP3    H175886   4.169   5.250  17.064  2.0092  2.5520 -2.0154
18157TIP3    H275887   4.279   5.150  17.092 -1.1065 -0.3082  0.9187
18158TIP3   OH275888   1.146   1.688  16.326 -0.2182 -0.2925 -0.3331
18158TIP3    H175889   1.093   1.632  16.382  0.2686 -0.7644 -0.3460
18158TIP3    H275890   1.082   1.739  16.276 -0.6662  0.9335  1.4161
18159TIP3   OH275891   3.183   4.578   2.094 -0.2249 -0.1131 -0.9520
18159TIP3    H175892   3.204   4.670   2.078 -0.6178  0.2889  0.6229
18159TIP3    H275893   3.259   4.530   2.064 -0.8287  0.5180 -3.7057
18160TIP3   OH275894   2.522   5.305  10.661 -0.7248 -0.0329 -0.2400
18160TIP3    H175895   2.611   5.274  10.643 -1.5149 -1.9490 -1.1741
18160TIP3    H275896   2.482   5.315  10.574 -1.4354  0.7613  0.1693
18161TIP3   OH275897   3.100   3.684  15.100 -0.2881 -0.2920 -0.1762
18161TIP3    H175898   3.134   3.769  15.129 -0.0825 -0.4583  0.0671
18161TIP3    H275899   3.008   3.686  15.127 -0.8966  0.7627 -2.1482
18162TIP3   OH275900   0.120   4.077   5.121  0.4079 -0.4916 -0.0701
18162TIP3    H175901   0.122   4.052   5.213  0.4748 -1.4425 -0.3231
18162TIP3    H275902   0.193   4.030   5.081  1.5425  1.3498 -0.2769
18163TIP3   OH275903   1.312   1.686   4.979 -0.2585 -0.2893  0.0131
18163TIP3    H175904   1.307   1.739   5.059 -1.9296  3.1062 -2.1055
18163TIP3    H275905   1.391   1.717   4.935 -1.4534  0.8390 -1.4312
18164TIP3   OH275906   1.560   3.990   1.789  0.4674  0.5297 -0.0843
18164TIP3    H175907   1.474   3.951   1.805  0.7371  0.4245  1.2414
18164TIP3    H275908   1.622   3.925   1.821  1.0541  0.6247 -0.9968
18165TIP3   OH275909   0.608   2.965   2.208 -0.2701 -0.6849  0.0767
18165TIP3    H175910   0.700   2.990   2.219  0.1945 -1.7824 -1.0625
18165TIP3    H275911   0.596   2.892   2.269 -0.4601 -0.3855  0.4000
18166TIP3   OH275912   1.738   3.291   2.217  0.5390 -0.7635 -0.5331
18166TIP3    H175913   1.816   3.309   2.269 -1.2050  1.8228  1.4578
18166TIP3    H275914   1.713   3.202   2.241  0.5859 -0.1448  2.1118
18167TIP3   OH275915   1.442   4.860   4.573  0.1519 -0.3812 -0.0784
18167TIP3    H175916   1.382   4.889   4.642  2.7468  2.2826  1.2805
18167TIP3    H275917   1.487   4.784   4.611 -0.2147 -0.5138  0.0993
18168TIP3   OH275918   6.239   6.185  10.839 -0.1155 -0.3936  0.2952
18168TIP3    H175919   6.237   6.258  10.776 -1.7779  0.9896  1.8385
18168TIP3    H275920   6.153   6.144  10.830  0.6135 -1.9067 -0.1729
18169TIP3   OH275921   6.598   6.629   2.571 -0.3501  0.5003 -0.4614
18169TIP3    H175922   6.659   6.611   2.644 -1.6489 -1.2429  0.2470
18169TIP3    H275923   6.625   6.569   2.502 -0.8137  0.2348 -0.4118
18170TIP3   OH275924   0.768   5.503  17.569  0.0346 -0.1899 -0.1997
18170TIP3    H175925   0.705   5.432  17.556  0.0279 -0.2999  0.4362
18170TIP3    H275926   0.748   5.565  17.499 -0.9833 -0.0731  0.1813
18171TIP3   OH275927   6.637   1.138  16.616 -0.2825 -0.2905  0.0919
18171TIP3    H175928   6.639   1.043  16.629  1.5197 -0.0751  1.9659
18171TIP3    H275929   6.612   1.173  16.702  1.4185  0.9769  0.1182
18172TIP3   OH275930   6.533   6.713  16.553  0.2540 -0.4245 -0.2743
18172TIP3    H175931   6.609   6.768  16.573 -1.0978  1.6357 -0.4846
18172TIP3    H275932   6.557   6.626  16.586  1.4948  0.8377  2.4941
18173TIP3   OH275933   1.989   5.791   2.797 -0.2065 -0.4152  0.4852
18173TIP3    H175934   1.948   5.817   2.879 -0.6263  1.7859 -0.3517
18173TIP3    H275935   1.919   5.800   2.732  0.9937  1.3463 -0.6342
18174TIP3   OH275936   4.989   4.447   1.669  0.1312  0.2463  0.0697
18174TIP3    H175937   4.896   4.424   1.666  0.1571 -0.2857  1.9372
18174TIP3    H275938   4.992   4.539   1.641 -0.9771  0.3582  0.2590
18175TIP3   OH275939   2.504   1.772   5.297 -0.7259  0.5109  0.1698
18175TIP3    H175940   2.462   1.781   5.382  0.3005 -0.0201  0.7461
18175TIP3    H275941   2.443   1.719   5.245  0.1745 -2.2052  1.7093
18176TIP3   OH275942   0.410   1.233  16.814 -0.1638 -0.3773  0.1741
18176TIP3    H175943   0.433   1.318  16.777 -0.6442  0.7191  2.2309
18176TIP3    H275944   0.318   1.242  16.839 -0.1454 -1.3913  0.6854
18177TIP3   OH275945   1.768   5.769   1.291  0.0906  0.0799 -0.2160
18177TIP3    H175946   1.714   5.766   1.369 -0.3367  0.3366 -0.4986
18177TIP3    H275947   1.784   5.677   1.269  1.8521 -0.0227  1.2723
18178TIP3   OH275948   4.281   1.793  15.938  0.4219 -0.6639 -0.1147
18178TIP3    H175949   4.286   1.739  16.016  0.4746  0.2316  0.5166
18178TIP3    H275950   4.337   1.749  15.874 -0.6295 -2.1071 -0.0997
18179TIP3   OH275951   3.535   0.353  14.303 -0.0528 -0.6179  0.1090
18179TIP3    H175952   3.484   0.422  14.346 -0.9551 -0.9603 -0.3812
18179TIP3    H275953   3.605   0.401  14.257  1.8466 -0.3194  3.0071
18180TIP3   OH275954   0.118   4.084   2.980  0.0927 -0.5320  0.3183
18180TIP3    H175955   0.076   4.165   3.011 -0.5266 -0.3224 -0.9815
18180TIP3    H275956   0.204   4.112   2.950 -0.4211 -0.1742 -0.8902
18181TIP3   OH275957   3.118   4.990   5.141 -0.1864 -0.3003 -0.0611
18181TIP3    H175958   3.050   5.011   5.206 -0.4371 -0.1295 -0.3761
18181TIP3    H275959   3.087   4.909   5.100 -0.1371 -0.2891 -0.1194
18182TIP3   OH275960   3.545   2.941   0.714  0.3123 -0.1143  0.5116
18182TIP3    H175961   3.628   2.894   0.721  0.5184  0.2952  0.8514
18182TIP3    H275962   3.503   2.930   0.799  0.6140  0.7727  0.7890
18183TIP3   OH275963   4.146   5.795  12.691  0.7054 -0.1560 -0.2050
18183TIP3    H175964   4.063   5.755  12.663  0.7303  0.7417 -1.6752
18183TIP3    H275965   4.137   5.887  12.667  1.3969  0.3549  1.3750
18184TIP3   OH275966   4.341   4.595  16.359  0.4035  0.5417 -0.2927
18184TIP3    H175967   4.390   4.581  16.440 -0.3286  0.0077  0.0722
18184TIP3    H275968   4.272   4.529  16.361  2.3755 -1.9212 -2.9924
18185TIP3   OH275969   6.275   1.376   0.294  0.8561 -0.0809  0.3354
18185TIP3    H175970   6.227   1.457   0.311  0.5600 -0.3999  1.0825
18185TIP3    H275971   6.360   1.405   0.263 -0.0836  0.4989 -1.9316
18186TIP3   OH275972   4.118   6.279   3.556 -0.0883 -0.5614 -0.2275
18186TIP3    H175973   4.116   6.374   3.548  0.1718 -0.5329  0.0238
18186TIP3    H275974   4.148   6.263   3.645 -0.3297 -0.8782 -0.2004
18187TIP3   OH275975   3.589   3.426  14.246 -0.2233  0.3056 -0.2448
18187TIP3    H175976   3.634   3.384  14.172 -0.0644 -0.5521  0.3177
18187TIP3    H275977   3.620   3.377  14.323 -0.8565  0.7850  0.3235
18188TIP3   OH275978   1.595   3.262   4.424  0.4326  0.3696 -0.3107
18188TIP3    H175979   1.568   3.171   4.432 -1.8764  0.9705 -0.4496
18188TIP3    H275980   1.655   3.276   4.497  1.5447 -1.4748 -0.8295
18189TIP3   OH275981   1.011   3.169  14.919  0.3826  0.1400 -0.6917
18189TIP3    H175982   1.035   3.208  15.004  0.1680 -0.6917 -0.2419
18189TIP3    H275983   0.945   3.228  14.884  0.8083  0.7471 -0.4964
18190TIP3   OH275984   6.384   4.556  11.289  0.2732  0.2407  0.2450
18190TIP3    H175985   6.422   4.504  11.219  0.1255 -0.7403  0.8774
18190TIP3    H275986   6.452   4.560  11.357  0.6854  1.7883 -0.2240
18191TIP3   OH275987   1.472   0.668  14.784 -0.0821  0.4342 -0.5176
18191TIP3    H175988   1.483   0.718  14.865  0.8275 -0.0875 -0.3013
18191TIP3    H275989   1.541   0.702  14.726  0.0385 -0.0221 -0.6437
18192TIP3   OH275990   0.548   4.449   5.159 -0.1290  0.2682  0.8123
18192TIP3    H175991   0.456   4.426   5.144 -0.0064  0.6405 -0.7231
18192TIP3    H275992   0.559   4.447   5.254 -1.3658 -1.1468  0.9602
18193TIP3   OH275993   2.807   3.814   6.745 -0.4877  0.1344  0.1628
18193TIP3    H175994   2.715   3.824   6.722 -1.0804  1.5610  2.7381
18193TIP3    H275995   2.810   3.738   6.802 -0.8012  2.0547  2.9396
18194TIP3   OH275996   1.879   4.403  14.121 -0.0461  0.1274 -0.0400
18194TIP3    H175997   1.935   4.330  14.095  0.9932  0.0797  2.1227
18194TIP3    H275998   1.799   4.362  14.152  0.0129 -0.0033 -0.0592
18195TIP3   OH275999   5.055   4.719  14.234 -0.1321 -0.1678  0.3149
18195TIP3    H176000   5.039   4.640  14.183 -0.6016 -0.6731  1.2325
18195TIP3    H276001   5.101   4.688  14.312  0.4481  0.5822  0.2866
18196TIP3   OH276002   4.871   3.048  15.139  0.1415 -0.1574 -0.2904
18196TIP3    H176003   4.837   3.121  15.088 -1.8029 -1.0669 -0.3869
18196TIP3    H276004   4.873   2.975  15.077 -2.7090 -1.4129  0.8860
18197TIP3   OH276005   4.227   0.020   3.379 -0.9423 -0.1061 -0.3652
18197TIP3    H176006   4.184   0.036   3.294 -1.6553  1.1791  0.2089
18197TIP3    H276007   4.229   0.106   3.421  0.9251 -0.3982  0.2437
18198TIP3   OH276008   6.565   2.738  11.846 -0.0705 -0.1001  0.4439
18198TIP3    H176009   6.581   2.648  11.815  2.8597  0.9775 -1.7019
18198TIP3    H276010   6.521   2.781  11.772  1.1354  0.9065  0.2810
18199TIP3   OH276011   4.165   0.631  12.591  1.0994  0.4673 -0.2084
18199TIP3    H176012   4.076   0.596  12.599  1.2685 -0.0924 -0.6893
18199TIP3    H276013   4.161   0.691  12.517  1.1177  0.4671 -0.2093
18200TIP3   OH276014   2.929   2.135   2.992  0.1723  0.2845 -0.0774
18200TIP3    H176015   2.994   2.155   2.925  1.3883  0.5738  1.1354
18200TIP3    H276016   2.959   2.053   3.031 -0.1760  0.4216  0.5023
18201TIP3   OH276017   3.470   3.779   0.071  0.1951 -0.4377  0.0411
18201TIP3    H176018   3.392   3.777   0.127  0.1081  0.7545 -0.0112
18201TIP3    H276019   3.436   3.761  -0.017  0.1207 -0.8752  0.1586
18202TIP3   OH276020   3.812   0.022  14.271 -0.2565  0.0821 -0.7412
18202TIP3    H176021   3.893   0.061  14.238  0.4373 -1.8326 -1.4136
18202TIP3    H276022   3.769   0.094  14.318  0.6942  1.7663 -2.3243
18203TIP3   OH276023   4.969   5.823  14.201  0.3546 -0.6569  0.1266
18203TIP3    H176024   4.975   5.824  14.297  0.2987  2.1937  0.1701
18203TIP3    H276025   5.054   5.852  14.171  0.4022 -1.6385 -0.7428
18204TIP3   OH276026   2.238   0.115   2.629  0.2182 -0.5612  0.1961
18204TIP3    H176027   2.206   0.112   2.719  0.3111  0.8323  0.2877
18204TIP3    H276028   2.284   0.031   2.617  1.8398 -0.0035  2.0692
18205TIP3   OH276029   4.850   1.788  12.346 -0.1615 -0.0439 -0.9004
18205TIP3    H176030   4.777   1.773  12.286 -1.1176 -1.4469  0.5005
18205TIP3    H276031   4.808   1.804  12.431  1.0824 -1.9922  0.1828
18206TIP3   OH276032   0.989   6.095  14.892  0.1788  0.6599 -0.5821
18206TIP3    H176033   0.908   6.045  14.903  0.3972  0.2981 -0.6053
18206TIP3    H276034   1.043   6.040  14.835  1.1728  0.0456  0.9100
18207TIP3   OH276035   5.167   5.571   4.824  0.3795  0.3578 -0.2004
18207TIP3    H176036   5.088   5.552   4.773  0.9906  0.0800 -1.0685
18207TIP3    H276037   5.239   5.565   4.760  0.9413  2.3601  0.1746
18208TIP3   OH276038   4.255   0.640   3.252 -0.0388 -0.1272  0.0154
18208TIP3    H176039   4.204   0.710   3.211  0.1352  0.1504  0.2733
18208TIP3    H276040   4.190   0.577   3.282 -0.2108  0.0490  0.0131
18209TIP3   OH276041   2.215   0.528   6.006  0.1138 -0.2636 -0.4980
18209TIP3    H176042   2.191   0.567   6.091  1.1113  0.4836 -0.5437
18209TIP3    H276043   2.139   0.475   5.982 -0.4041 -0.0522  0.6061
18210TIP3   OH276044   6.455   0.927   0.968 -0.1106  0.5631 -0.1327
18210TIP3    H176045   6.368   0.928   1.008 -0.5500 -2.1685 -0.8406
18210TIP3    H276046   6.442   0.967   0.882 -0.2305  1.7825  0.4220
18211TIP3   OH276047   1.756   1.550  14.713  0.0281 -0.5072  0.1589
18211TIP3    H176048   1.793   1.462  14.708 -0.9009 -0.8616 -0.9341
18211TIP3    H276049   1.684   1.541  14.776 -0.9032 -0.8689 -0.9297
18212TIP3   OH276050   1.875   3.054  12.021 -0.1208 -0.4784 -0.1883
18212TIP3    H176051   1.890   2.973  12.070 -0.0003 -0.3480 -0.0086
18212TIP3    H276052   1.935   3.118  12.061 -2.1863  0.4887  1.5336
18213TIP3   OH276053   6.501   3.336   5.549 -0.2713  0.4690  0.5458
18213TIP3    H176054   6.595   3.350   5.538 -0.1247 -0.2376  0.8280
18213TIP3    H276055   6.489   3.326   5.644 -0.6102  0.4138  0.4987
18214TIP3   OH276056   1.131   1.518  13.828  0.2692 -0.8201  0.1033
18214TIP3    H176057   1.084   1.457  13.770  0.2023 -0.5880 -0.0864
18214TIP3    H276058   1.111   1.487  13.916 -1.0245 -0.1426  0.0602
18215TIP3   OH276059   4.365   0.310  13.836 -0.0957  0.2892 -0.1754
18215TIP3    H176060   4.328   0.231  13.876  0.0561  0.4295  0.2432
18215TIP3    H276061   4.452   0.282  13.806  0.2144  0.4561  0.5382
18216TIP3   OH276062   0.977   4.454  15.958 -0.7400  0.0893  0.8278
18216TIP3    H176063   0.944   4.367  15.939  1.2543 -0.4880 -0.2605
18216TIP3    H276064   0.932   4.480  16.038 -0.3317 -2.5460  2.0095
18217TIP3   OH276065   4.724   2.554  15.856  1.2838  0.1308 -0.1377
18217TIP3    H176066   4.688   2.514  15.935  1.9757  0.2649  0.2573
18217TIP3    H276067   4.662   2.623  15.834  1.6533  0.8509  0.9593
18218TIP3   OH276068   4.619   6.674   0.129 -0.0509  0.0684 -0.1835
18218TIP3    H176069   4.589   6.764   0.118  0.5386  0.2270 -0.5044
18218TIP3    H276070   4.558   6.622   0.076  0.4013  0.4217 -1.0788
18219TIP3   OH276071   4.983   3.956  11.546 -0.0032 -0.2997  0.6175
18219TIP3    H176072   5.069   3.960  11.504  0.2610 -0.3721  1.1408
18219TIP3    H276073   4.976   3.866  11.578  0.2648  0.0314  1.6666
18220TIP3   OH276074   2.087   0.802   5.193 -0.1015 -0.3363 -0.0378
18220TIP3    H176075   2.028   0.761   5.256  0.5649  2.6668  2.7756
18220TIP3    H276076   2.175   0.782   5.224  0.2603  0.4968 -0.4665
18221TIP3   OH276077   4.688   0.699   4.802  0.0711  0.2744  0.2437
18221TIP3    H176078   4.686   0.708   4.898  1.1221  0.6289  0.2437
18221TIP3    H276079   4.687   0.789   4.770 -0.6048  0.1486 -0.0916
18222TIP3   OH276080   2.059   2.447   6.638  0.2304 -0.0097 -0.4463
18222TIP3    H176081   2.144   2.405   6.649  0.9182  1.5356  0.3786
18222TIP3    H276082   2.076   2.522   6.581 -0.4775  0.6108  0.1427
18223TIP3   OH276083   3.009   0.752   1.250  0.1356  0.2569  0.0557
18223TIP3    H176084   2.943   0.758   1.320 -1.1982  0.9705 -1.2026
18223TIP3    H276085   2.994   0.830   1.197  1.9901  0.4040 -0.3230
18224TIP3   OH276086   1.800   4.918   4.671 -0.7049  0.4598 -0.2904
18224TIP3    H176087   1.891   4.893   4.655  0.6004  3.9855  0.6064
18224TIP3    H276088   1.798   4.942   4.763 -2.8452 -0.4009 -0.0569
18225TIP3   OH276089   5.538   4.325  12.023  0.2173  0.0144  0.3197
18225TIP3    H176090   5.606   4.258  12.015  0.1100  0.0848 -1.5879
18225TIP3    H276091   5.551   4.362  12.110  2.8786  0.2922 -0.1250
18226TIP3   OH276092   2.411   2.770  17.142 -0.0818 -0.4230  0.0419
18226TIP3    H176093   2.373   2.725  17.218  0.4428 -0.6387  0.1837
18226TIP3    H276094   2.497   2.799  17.172 -0.1888  0.1879 -0.2276
18227TIP3   OH276095   2.097   4.523   3.547 -0.0365 -0.3199 -0.0845
18227TIP3    H176096   2.175   4.478   3.580  0.2168  1.1051  1.3571
18227TIP3    H276097   2.127   4.566   3.467  0.7450  0.4052  0.5784
18228TIP3   OH276098   3.729   5.713   1.555  1.0630 -0.4762  0.3828
18228TIP3    H176099   3.752   5.776   1.487 -0.6408 -0.4390 -0.2096
18228TIP3    H276100   3.777   5.634   1.531 -0.8720 -1.0519 -1.9814
18229TIP3   OH276101   6.524   0.428  17.143  0.4982  0.3301 -0.0219
18229TIP3    H176102   6.519   0.336  17.115 -0.0975  0.2139  0.4286
18229TIP3    H276103   6.490   0.477  17.068  0.1779  0.1262 -0.0168
18230TIP3   OH276104   3.828   0.809   2.429 -0.1043  0.0274 -0.2090
18230TIP3    H176105   3.901   0.785   2.485  0.7523  0.6466 -1.0467
18230TIP3    H276106   3.752   0.765   2.469  0.3090  1.1074  1.9052
18231TIP3   OH276107   5.774   1.631   5.684  0.0713  0.0823  0.4160
18231TIP3    H176108   5.846   1.689   5.659  0.3487  0.0242  1.0447
18231TIP3    H276109   5.704   1.689   5.713  0.6356  0.1104  1.8043
18232TIP3   OH276110   2.464   5.064   1.570 -0.4827  0.4532 -0.5722
18232TIP3    H176111   2.388   5.017   1.537 -1.3782  1.1648  0.4030
18232TIP3    H276112   2.430   5.149   1.598  1.1122  1.8522 -2.5016
18233TIP3   OH276113   0.822   6.157  16.704 -0.4705  0.0416  0.3269
18233TIP3    H176114   0.831   6.086  16.768  0.9631  0.1926  0.3219
18233TIP3    H276115   0.855   6.120  16.622 -0.1097  0.5778  0.2260
18234TIP3   OH276116   6.074   4.564   4.921 -0.0027 -0.3014  0.3600
18234TIP3    H176117   6.136   4.534   4.988  1.1407 -2.4197 -1.4777
18234TIP3    H276118   6.006   4.497   4.920 -2.1736  1.7091  1.9509
18235TIP3   OH276119   2.024   1.782  12.848  0.0359 -0.2389 -0.5385
18235TIP3    H176120   2.103   1.813  12.892 -0.5259 -1.5152  1.4929
18235TIP3    H276121   1.979   1.729  12.913 -3.1590  1.4135 -1.1776
18236TIP3   OH276122   0.691   1.134   5.707 -0.0673 -0.6181  0.1599
18236TIP3    H176123   0.688   1.162   5.616  3.3225  0.1656  0.1582
18236TIP3    H276124   0.647   1.049   5.707 -1.4213  0.0034 -1.8729
18237TIP3   OH276125   1.485   2.975   6.278  0.6154 -0.5117  0.4549
18237TIP3    H176126   1.550   2.910   6.249  2.3345  1.9635 -1.7001
18237TIP3    H276127   1.535   3.037   6.330  0.1136  1.5177 -1.3479
18238TIP3   OH276128   3.045   1.727  12.418  0.9179  0.2070 -0.3887
18238TIP3    H176129   3.065   1.782  12.495 -0.7000  1.3769 -0.7617
18238TIP3    H276130   3.120   1.668  12.412  2.2340  1.6645  0.6767
18239TIP3   OH276131   2.836   2.498   1.712 -0.1509 -0.3132  0.0420
18239TIP3    H176132   2.848   2.513   1.618 -0.9706  0.9524  0.1257
18239TIP3    H276133   2.919   2.460   1.741 -0.0140 -1.0541 -1.2451
18240TIP3   OH276134   4.558   1.156   6.454  0.2813  0.3382 -0.0258
18240TIP3    H176135   4.498   1.134   6.383  0.6656 -1.1159  0.0816
18240TIP3    H276136   4.511   1.222   6.505 -1.5952 -1.3316  0.5330
18241TIP3   OH276137   5.881   1.161  16.679  0.1160  0.0154 -0.0001
18241TIP3    H176138   5.855   1.232  16.738  0.9672  0.8577 -0.6005
18241TIP3    H276139   5.801   1.111  16.665 -0.5937  1.0770  0.1469
18242TIP3   OH276140   6.481   4.528  14.832  0.7766 -0.0622 -0.6765
18242TIP3    H176141   6.479   4.582  14.911 -0.0642  0.1246 -0.8092
18242TIP3    H276142   6.392   4.492  14.826  1.3838 -1.6968 -0.4414
18243TIP3   OH276143   0.623   1.337   2.459  0.2081 -0.5387  0.2174
18243TIP3    H176144   0.553   1.400   2.477  1.1046  0.5741 -0.0907
18243TIP3    H276145   0.673   1.376   2.388  0.4939 -1.8562 -0.3330
18244TIP3   OH276146   4.510   2.238   5.357  0.6797  0.5794  0.2226
18244TIP3    H176147   4.532   2.263   5.447  0.9111 -0.4898  0.4826
18244TIP3    H276148   4.584   2.185   5.328  0.4936  0.7128 -0.5163
18245TIP3   OH276149   3.437   6.110  12.945  0.4862 -0.2205 -0.2012
18245TIP3    H176150   3.499   6.046  12.912  1.5680 -0.5977  2.3169
18245TIP3    H276151   3.363   6.057  12.976 -0.0398  0.0409 -0.9729
18246TIP3   OH276152   5.689   2.889  11.567 -0.3193 -0.0276  0.1434
18246TIP3    H176153   5.617   2.870  11.507 -1.1199 -0.6806  1.2728
18246TIP3    H276154   5.740   2.957  11.522 -1.1197 -0.1886 -1.0711
18247TIP3   OH276155   5.913   1.990   0.119 -0.5519 -0.9215  0.5455
18247TIP3    H176156   5.868   1.937   0.053 -0.9148  0.5382 -0.4317
18247TIP3    H276157   5.988   2.028   0.072 -2.2685  2.2662  0.1166
18248TIP3   OH276158   5.695   6.161   2.052 -0.4754 -0.0550  0.5540
18248TIP3    H176159   5.743   6.126   2.127 -1.9482  0.6371  1.8764
18248TIP3    H276160   5.677   6.085   1.997 -1.0494 -0.9047  1.8842
18249TIP3   OH276161   1.920   6.248   1.564  0.4614  0.3716 -0.1817
18249TIP3    H176162   1.857   6.318   1.581  0.7831  0.8838 -1.0341
18249TIP3    H276163   1.970   6.241   1.645  1.2059  1.9679 -0.4582
18250TIP3   OH276164   3.945   4.250   5.783  0.3074 -0.3124  0.0709
18250TIP3    H176165   4.039   4.232   5.781  0.5161  0.7480 -0.3061
18250TIP3    H276166   3.925   4.259   5.877  0.7506  0.2190  0.1236
18251TIP3   OH276167   1.592   0.766  11.248 -0.0747 -0.3976 -0.0308
18251TIP3    H176168   1.683   0.770  11.219  0.0500 -0.8179  0.2972
18251TIP3    H276169   1.574   0.853  11.284  0.2342 -0.3517  0.0164
18252TIP3   OH276170   2.833   5.739   3.044  0.0945 -0.2526 -0.1515
18252TIP3    H176171   2.906   5.735   3.105  0.7974  1.7069 -0.8120
18252TIP3    H276172   2.869   5.705   2.962  1.2212  3.2258 -1.2640
18253TIP3   OH276173   1.522   2.681  17.599  0.2800  0.3881  0.1724
18253TIP3    H176174   1.458   2.734  17.551  0.1364  1.6134  1.6380
18253TIP3    H276175   1.494   2.591  17.586 -0.5717  0.7844 -0.8599
18254TIP3   OH276176   0.589   4.990  13.816  0.0353 -0.1979  0.0154
18254TIP3    H176177   0.652   4.954  13.755  1.8121  1.3538  0.8254
18254TIP3    H276178   0.581   5.082  13.792 -2.1050 -0.3733 -0.1675
18255TIP3   OH276179   3.270   2.408   6.791 -0.3949 -0.0472 -0.5469
18255TIP3    H176180   3.225   2.388   6.709 -1.1407  1.1016 -0.4338
18255TIP3    H276181   3.363   2.399   6.770 -0.6017 -3.0523 -0.6292
18256TIP3   OH276182   5.796   2.650   4.017 -0.6963 -0.2351 -0.0249
18256TIP3    H176183   5.855   2.588   4.059  0.6126  0.3297 -0.9333
18256TIP3    H276184   5.770   2.607   3.936 -1.0265 -0.2179  0.0712
18257TIP3   OH276185   6.529   3.135  16.799 -1.0273 -0.1391 -0.1979
18257TIP3    H176186   6.509   3.090  16.881  1.7520 -0.5816  0.3415
18257TIP3    H276187   6.541   3.227  16.824 -1.8550  0.0473 -0.4455
18258TIP3   OH276188   2.062   0.053   0.932 -0.2541  0.3385 -0.2585
18258TIP3    H176189   2.128   0.008   0.879  1.0539  0.4299  1.2271
18258TIP3    H276190   2.034   0.126   0.877 -1.1574 -1.2246 -2.0037
18259TIP3   OH276191   2.853   6.487  12.555  0.5992 -0.1845  0.5885
18259TIP3    H176192   2.849   6.409  12.610 -0.5639 -0.1440  0.5919
18259TIP3    H276193   2.890   6.555  12.611  0.2812 -0.3768  1.0361
18260TIP3   OH276194   3.510   5.513   6.099  0.3029 -0.4427  0.5096
18260TIP3    H176195   3.529   5.420   6.116  0.9856 -0.3436  0.3173
18260TIP3    H276196   3.596   5.555   6.101  0.2326 -0.1294 -1.3587
18261TIP3   OH276197   2.658   0.065  11.506  1.2215  0.0275  0.2570
18261TIP3    H176198   2.617  -0.017  11.533 -0.7879  0.5911 -0.9122
18261TIP3    H276199   2.707   0.042  11.426 -0.3843  0.1686 -0.8078
18262TIP3   OH276200   1.020   0.716  13.586  0.3663 -0.3805 -0.4047
18262TIP3    H176201   1.050   0.667  13.663  0.3419  0.2797  0.0347
18262TIP3    H276202   1.004   0.649  13.520 -1.5018 -1.2033  0.7811
18263TIP3   OH276203   2.867   2.767  11.546 -0.4948  0.0036  0.1163
18263TIP3    H176204   2.911   2.747  11.464 -0.6840 -2.5758  0.5476
18263TIP3    H276205   2.851   2.861  11.543 -0.1908  0.0428 -2.6252
18264TIP3   OH276206   1.896   1.534  17.518 -0.0542 -0.0396  0.1521
18264TIP3    H176207   1.937   1.621  17.520 -1.9991  0.9687 -0.8628
18264TIP3    H276208   1.802   1.553  17.514 -0.4742 -2.1558 -2.3306
18265TIP3   OH276209   5.638   5.347   4.356  0.0684  0.1193 -0.0017
18265TIP3    H176210   5.683   5.413   4.409 -0.4322 -0.2753  0.9504
18265TIP3    H276211   5.686   5.346   4.273 -0.3264  2.1539 -0.3065
18266TIP3   OH276212   0.518   0.370   0.051 -0.3062  0.5761  0.3374
18266TIP3    H176213   0.555   0.456   0.030  1.4643 -0.2809 -0.2131
18266TIP3    H276214   0.439   0.365  -0.003  1.0122  0.7999 -1.7236
18267TIP3   OH276215   5.562   2.937   6.503 -0.5645  0.4052 -0.0164
18267TIP3    H176216   5.517   3.017   6.531 -1.2936  0.1533 -0.4236
18267TIP3    H276217   5.492   2.873   6.492  0.0924 -0.5283  1.0868
18268TIP3   OH276218   2.608   6.151   0.239 -0.0122 -0.0812 -0.6069
18268TIP3    H176219   2.675   6.113   0.296 -1.6822  0.5629  1.9449
18268TIP3    H276220   2.613   6.245   0.254  0.0796  0.2074 -2.2524
18269TIP3   OH276221   0.099   0.509   1.186 -0.0025  0.3640  0.1696
18269TIP3    H176222   0.120   0.587   1.238 -0.3631  0.0055  0.8659
18269TIP3    H276223   0.183   0.462   1.178 -0.1540 -0.1690  1.4405
18270TIP3   OH276224   1.436   4.962  14.558 -0.0856 -0.1751  0.0655
18270TIP3    H176225   1.420   5.051  14.588  1.2536  0.5109 -1.1569
18270TIP3    H276226   1.531   4.956  14.549  0.0509 -2.3731  1.9710
18271TIP3   OH276227   0.503   4.113  12.883 -0.2706  0.9022  0.6281
18271TIP3    H176228   0.411   4.132  12.865  0.4515  2.1405 -2.4049
18271TIP3    H276229   0.530   4.058  12.810  1.7292  1.8309  0.6027
18272TIP3   OH276230   3.223   5.238   1.319  0.3276 -0.1693  0.3915
18272TIP3    H176231   3.266   5.191   1.247 -0.2759 -0.5343  0.2602
18272TIP3    H276232   3.130   5.217   1.309  0.1502  0.3863  0.8342
18273TIP3   OH276233   2.193   3.054  12.416 -0.4897 -0.1553  0.5424
18273TIP3    H176234   2.131   3.101  12.361 -0.0088  0.3753  0.4408
18273TIP3    H276235   2.151   2.970  12.433 -1.4821  0.3911  0.9228
18274TIP3   OH276236   3.523   3.927   5.195  0.8162 -0.0131  0.3617
18274TIP3    H176237   3.502   3.909   5.104 -0.8236  0.3414  0.6412
18274TIP3    H276238   3.589   3.861   5.218  0.5382 -0.7183 -0.7911
18275TIP3   OH276239   5.964   0.118  16.376 -0.0162  0.1014 -0.8644
18275TIP3    H176240   5.992   0.033  16.410  0.4218  0.4432 -0.3705
18275TIP3    H276241   5.868   0.112  16.371 -0.1030  0.1082  0.5918
18276TIP3   OH276242   1.106   6.298  14.571  0.3475  0.3155 -0.2958
18276TIP3    H176243   1.158   6.371  14.538  3.3652 -0.6273  1.9459
18276TIP3    H276244   1.122   6.228  14.507  1.8680  0.0634  0.3203
18277TIP3   OH276245   2.920   1.687   4.087  0.5906 -0.4295  0.2025
18277TIP3    H176246   2.966   1.766   4.114  0.1919 -0.0194 -0.3059
18277TIP3    H276247   2.987   1.633   4.046  0.4569  0.5643 -1.3835
18278TIP3   OH276248   0.488   5.168   0.396 -0.6674  0.3152 -0.3945
18278TIP3    H176249   0.525   5.145   0.481  0.5296  0.0192 -0.9858
18278TIP3    H276250   0.563   5.186   0.340 -1.3195 -1.3162 -1.9221
18279TIP3   OH276251   2.352   6.208  11.387  0.0553 -0.1625  0.4925
18279TIP3    H176252   2.304   6.237  11.464  2.0793  4.2197  0.4189
18279TIP3    H276253   2.290   6.218  11.314 -1.1629 -2.1690  1.1773
18280TIP3   OH276254   5.148   5.600  10.459 -0.0940  0.0925 -0.0423
18280TIP3    H176255   5.190   5.560  10.383 -0.9804  2.0606 -1.6531
18280TIP3    H276256   5.058   5.570  10.455  0.0179 -0.3686  0.6787
18281TIP3   OH276257   5.342   4.950   1.901 -0.6019  0.1786  0.1958
18281TIP3    H176258   5.249   4.958   1.883 -0.6276 -0.7605 -0.1465
18281TIP3    H276259   5.385   4.980   1.821 -0.6941 -2.5971 -1.0068
18282TIP3   OH276260   2.774   6.394  10.994 -0.2706  0.4380  0.1616
18282TIP3    H176261   2.840   6.338  11.035  0.9088  1.2238 -0.5885
18282TIP3    H276262   2.823   6.445  10.929 -1.1577  2.7324  1.1712
18283TIP3   OH276263   3.990   0.924  14.873  0.4829  0.1613 -0.2384
18283TIP3    H176264   4.046   0.983  14.822  2.1315 -2.3118 -1.4832
18283TIP3    H276265   3.901   0.953  14.853  1.1679  1.0370 -2.3053
18284TIP3   OH276266   6.609   6.639   5.032  0.6680 -0.5859 -0.3789
18284TIP3    H176267   6.587   6.564   5.087  1.0638 -1.5893 -1.5481
18284TIP3    H276268   6.626   6.710   5.094 -2.0092 -0.7699  0.7002
18285TIP3   OH276269   2.946   4.876  15.297  0.4719 -0.0634  0.0221
18285TIP3    H176270   3.029   4.923  15.285  0.0336  1.0687  1.1881
18285TIP3    H276271   2.895   4.932  15.356 -1.5053 -0.2293 -1.3931
18286TIP3   OH276272   1.751   1.392   2.797  0.0475  1.2058  0.5362
18286TIP3    H176273   1.801   1.474   2.795  0.0811  1.1874  0.6260
18286TIP3    H276274   1.660   1.420   2.804  0.0933  1.2281  1.0844
18287TIP3   OH276275   0.831   0.883   5.263 -0.3912 -0.1763  0.3000
18287TIP3    H176276   0.751   0.898   5.313 -0.3626  0.7471  0.0879
18287TIP3    H276277   0.813   0.920   5.177  0.5445  0.8074  0.4995
18288TIP3   OH276278   3.818   3.230   3.504 -0.2212 -0.0987  0.0619
18288TIP3    H176279   3.834   3.147   3.548  1.8978 -0.0270 -0.4615
18288TIP3    H276280   3.870   3.225   3.424  0.0707  1.7732  0.0919
18289TIP3   OH276281   4.147   0.578  15.888  0.2073 -0.1085 -0.3950
18289TIP3    H176282   4.153   0.579  15.983 -1.0540 -1.8422 -0.2540
18289TIP3    H276283   4.060   0.612  15.869  0.1920 -0.4113 -0.8905
18290TIP3   OH276284   1.506   1.510   3.800 -0.3113  0.2576 -0.1919
18290TIP3    H176285   1.563   1.446   3.757  0.1275  1.7427 -1.9112
18290TIP3    H276286   1.429   1.459   3.826 -0.0811 -0.9486 -1.7048
18291TIP3   OH276287   5.768   1.601  11.426  0.1234 -0.0902 -0.5121
18291TIP3    H176288   5.786   1.692  11.400 -0.8508  0.0683 -0.6830
18291TIP3    H276289   5.811   1.591  11.510  0.6546  0.3837 -0.7227
18292TIP3   OH276290   0.821   5.524   5.532 -0.1513 -0.0821 -0.2065
18292TIP3    H176291   0.773   5.464   5.589 -0.5419 -0.2629 -0.7181
18292TIP3    H276292   0.753   5.573   5.486  0.1636  0.6675  0.1115
18293TIP3   OH276293   5.572   3.501  16.807  0.2510  0.2989 -0.1607
18293TIP3    H176294   5.517   3.422  16.812  0.5703  0.1258  1.0531
18293TIP3    H276295   5.520   3.563  16.757  0.0239 -0.7028 -1.2083
18294TIP3   OH276296   0.837   3.076   0.383  0.4817  0.1710  0.5585
18294TIP3    H176297   0.881   3.159   0.401  1.1089  0.0282 -0.2628
18294TIP3    H276298   0.904   3.021   0.341 -0.4742 -0.0329 -0.7741
18295TIP3   OH276299   1.891   1.474  10.896  0.0346  0.1968 -0.3804
18295TIP3    H176300   1.950   1.548  10.911  1.3693 -0.8009 -0.5169
18295TIP3    H276301   1.811   1.497  10.943  0.4409  1.6882 -0.3731
18296TIP3   OH276302   3.097   5.068   4.608 -0.5162 -0.1732 -0.4868
18296TIP3    H176303   3.119   5.070   4.514 -0.8399 -0.7376 -0.5797
18296TIP3    H276304   3.121   5.155   4.640  1.7484 -0.7118 -0.5978
18297TIP3   OH276305   3.764   5.144   4.494 -0.2261  0.5954  0.2669
18297TIP3    H176306   3.671   5.134   4.517  0.0647 -1.0362  0.8998
18297TIP3    H276307   3.810   5.146   4.578  0.4955 -1.2238 -0.0281
18298TIP3   OH276308   4.268   5.745   3.650  0.4083  0.1373  0.0247
18298TIP3    H176309   4.230   5.818   3.601  1.5070  0.5158 -0.2994
18298TIP3    H276310   4.299   5.685   3.583  0.3565 -0.1718  0.2789
18299TIP3   OH276311   1.264   6.009  14.051  0.6797 -0.1167 -0.1396
18299TIP3    H176312   1.220   5.977  14.129 -0.2029  0.4028 -0.4089
18299TIP3    H276313   1.249   5.941  13.985  1.8662 -0.8016  0.2594
18300TIP3   OH276314   2.456   1.148   0.924  0.1029 -0.7123  0.3228
18300TIP3    H176315   2.387   1.130   0.987  0.0814 -1.2491  0.1529
18300TIP3    H276316   2.413   1.144   0.839 -0.2539  1.7135  0.3009
18301TIP3   OH276317   2.984   5.098   1.278  0.2197 -0.2085  0.0154
18301TIP3    H176318   3.037   5.021   1.258  0.4328 -0.2476  0.7165
18301TIP3    H276319   2.919   5.067   1.341 -0.9184 -0.2600 -1.1287
18302TIP3   OH276320   4.136   4.111  17.536 -0.0896  0.6260 -0.4400
18302TIP3    H176321   4.162   4.145  17.450 -0.0403  1.1282 -0.2300
18302TIP3    H276322   4.042   4.093  17.527  0.3779 -1.6470 -1.3532
18303TIP3   OH276323   0.476   2.848   4.538  0.5336 -0.9429 -0.3660
18303TIP3    H176324   0.436   2.875   4.455  1.2260 -1.0746 -0.7530
18303TIP3    H276325   0.565   2.882   4.534  0.7014 -1.3020  0.1447
18304TIP3   OH276326   1.206   4.568  14.731 -0.1993 -0.5688  0.3648
18304TIP3    H176327   1.197   4.572  14.827 -0.1330 -0.2276  0.3571
18304TIP3    H276328   1.297   4.540  14.717 -0.6546 -2.1742  0.4188
18305TIP3   OH276329   2.435   6.344   5.296 -0.0688 -0.0148  0.0781
18305TIP3    H176330   2.527   6.340   5.268 -0.4256  0.8544 -1.3247
18305TIP3    H276331   2.418   6.437   5.309 -0.3801 -0.2763  1.7644
18306TIP3   OH276332   2.713   3.948   1.957 -0.0274  0.1061 -0.1671
18306TIP3    H176333   2.744   3.866   1.916  2.2741 -0.4560  2.3866
18306TIP3    H276334   2.676   3.921   2.041  0.1432  1.6216  0.4296
18307TIP3   OH276335   5.701   1.836   5.054  0.0127 -0.2785 -0.0139
18307TIP3    H176336   5.731   1.872   4.971 -1.0626  1.7601  0.4257
18307TIP3    H276337   5.781   1.802   5.095  1.0330  1.2594 -0.6474
18308TIP3   OH276338   3.578   4.948  11.525 -0.3465  0.2564 -1.0022
18308TIP3    H176339   3.504   4.952  11.464 -1.0432  0.0941 -0.1868
18308TIP3    H276340   3.537   4.936  11.611  0.6573 -0.3384 -0.5971
18309TIP3   OH276341   3.610   2.474   1.835 -0.3581  0.5281  0.0507
18309TIP3    H176342   3.522   2.437   1.834 -0.3093  0.4253 -0.8540
18309TIP3    H276343   3.655   2.432   1.762 -0.1511  2.0072 -0.7072
18310TIP3   OH276344   0.690   6.604  12.627  0.0859  0.0619 -0.1593
18310TIP3    H176345   0.745   6.656  12.569 -0.9187  1.3130 -0.0240
18310TIP3    H276346   0.697   6.645  12.713 -0.9868  0.2192 -0.1229
18311TIP3   OH276347   3.413   1.373   0.143 -0.3178  0.5136  0.2068
18311TIP3    H176348   3.403   1.451   0.198  0.8062 -0.0474  1.2709
18311TIP3    H276349   3.506   1.371   0.121  0.2138 -1.7220  2.1657
18312TIP3   OH276350   3.462   4.072  13.224 -0.1541 -0.0373 -0.1747
18312TIP3    H176351   3.448   3.978  13.232  0.4643 -0.0070  1.7477
18312TIP3    H276352   3.502   4.083  13.137 -1.6529 -1.3287 -1.0860
18313TIP3   OH276353   3.121   2.782   2.393  0.3817 -0.3072  0.8345
18313TIP3    H176354   3.081   2.801   2.308 -0.4245  1.1654  1.5053
18313TIP3    H276355   3.047   2.774   2.453  0.8731 -2.5168  1.2232
18314TIP3   OH276356   5.370   4.849   2.162 -0.4258 -0.0050  0.5177
18314TIP3    H176357   5.373   4.782   2.094  1.1417 -0.0917  0.6201
18314TIP3    H276358   5.278   4.855   2.187 -0.9518 -0.3680 -1.2090
18315TIP3   OH276359   5.699   1.706  13.354  0.0816  0.2407  0.9786
18315TIP3    H176360   5.698   1.644  13.281 -1.3742  1.3851 -0.0300
18315TIP3    H276361   5.707   1.792  13.313  0.7058  0.8344  2.2709
18316TIP3   OH276362   3.086   2.915  17.022 -0.2207 -0.4852  0.3369
18316TIP3    H176363   3.131   2.878  17.098  1.2340 -0.9418 -0.6888
18316TIP3    H276364   3.155   2.923  16.956 -0.7598  2.7557  0.0109
18317TIP3   OH276365   0.478   5.719   5.194  0.3963 -0.1757  0.1440
18317TIP3    H176366   0.434   5.725   5.109 -0.2323  0.0427  0.4789
18317TIP3    H276367   0.540   5.792   5.194  0.1171  0.0642  0.0322
18318TIP3   OH276368   5.516   4.965  16.683  0.2178  0.4976 -0.4713
18318TIP3    H176369   5.508   4.909  16.760  1.5192  1.1258  0.1418
18318TIP3    H276370   5.567   4.913  16.621 -1.0898 -0.1291 -1.0585
18319TIP3   OH276371   1.718   3.152  13.238 -0.9464  0.0608  0.4706
18319TIP3    H176372   1.633   3.179  13.202  0.4057  0.2168 -2.9862
18319TIP3    H276373   1.761   3.233  13.262 -0.5634  0.2773 -0.8788
18320TIP3   OH276374   6.393   3.249   5.844 -0.1762 -0.8423  0.2846
18320TIP3    H176375   6.411   3.302   5.922 -0.0100 -0.4428 -0.0275
18320TIP3    H276376   6.308   3.280   5.813  1.2326  1.3718 -1.6429
18321TIP3   OH276377   5.040   1.455   5.829  0.4118 -0.0990 -0.3054
18321TIP3    H176378   4.994   1.538   5.845  0.3810 -0.1128 -0.3248
18321TIP3    H276379   4.987   1.409   5.765  0.7292  0.1137 -0.7233
18322TIP3   OH276380   5.471   4.996  17.359  0.5085 -0.0777  0.2691
18322TIP3    H176381   5.382   5.000  17.394 -0.2513 -1.8709 -1.3198
18322TIP3    H276382   5.471   5.060  17.288  0.4061 -0.2561  0.1081
18323TIP3   OH276383   1.452   3.543   3.437  0.1891 -0.6668  0.1935
18323TIP3    H176384   1.495   3.628   3.424 -1.2266  0.1834  0.8551
18323TIP3    H276385   1.497   3.504   3.511  0.9878 -0.6014 -0.2464
18324TIP3   OH276386   2.346   0.672  17.265  0.1257 -0.4207  0.3373
18324TIP3    H176387   2.272   0.727  17.239  0.4531 -0.3811 -0.5325
18324TIP3    H276388   2.423   0.726  17.249  0.5015 -1.3481 -1.1868
18325TIP3   OH276389   4.904   6.676  12.186 -0.0298 -0.5087  0.2429
18325TIP3    H176390   4.914   6.606  12.122  1.1759 -0.5267  0.4226
18325TIP3    H276391   4.924   6.636  12.270  2.1229  0.3240  0.1978
18326TIP3   OH276392   3.996   5.052  17.033  0.2689 -0.1447 -0.0004
18326TIP3    H176393   3.986   5.146  17.020  1.8266 -0.0130 -0.4943
18326TIP3    H276394   3.995   5.015  16.945 -0.2215 -0.5765  0.1848
18327TIP3   OH276395   0.473   6.036   3.835 -0.0939 -0.3245  0.0333
18327TIP3    H176396   0.392   5.989   3.855 -0.4212  0.4221  0.5107
18327TIP3    H276397   0.444   6.122   3.805  0.5383  0.4748  1.6165
18328TIP3   OH276398   5.941   3.112  14.758 -0.4691  0.0647 -0.4410
18328TIP3    H176399   5.962   3.028  14.718 -0.4806  0.5642 -1.5085
18328TIP3    H276400   6.026   3.148  14.784 -0.5991 -1.4397  2.5229
18329TIP3   OH276401   6.074   0.874   5.046  0.1471 -0.0020 -0.4808
18329TIP3    H176402   6.143   0.894   4.983 -0.5820  2.0065 -0.7011
18329TIP3    H276403   6.015   0.816   4.999  0.9860 -0.6876 -0.7214
18330TIP3   OH276404   1.792   6.128  16.892  0.6801 -0.3338  0.2323
18330TIP3    H176405   1.758   6.094  16.975  1.5713 -2.4693 -0.2293
18330TIP3    H276406   1.857   6.193  16.918 -0.7840  0.8584  1.1343
18331TIP3   OH276407   4.407   4.709   3.974 -0.3111  0.1560 -0.2209
18331TIP3    H176408   4.320   4.684   3.942 -0.2601  0.3727 -0.5288
18331TIP3    H276409   4.424   4.794   3.933 -0.2931  0.4884  0.4699
18332TIP3   OH276410   1.416   2.191   2.047 -0.2843  0.3399  0.3673
18332TIP3    H176411   1.416   2.173   2.141 -2.5414 -0.2533  0.3297
18332TIP3    H276412   1.452   2.279   2.040  0.6358  0.1071  1.7043
18333TIP3   OH276413   1.541   5.778  12.573 -0.0944  0.1830  0.4000
18333TIP3    H176414   1.593   5.700  12.594  0.9380  0.7738  0.1346
18333TIP3    H276415   1.455   5.745  12.549  0.1373 -0.8249  0.9366
18334TIP3   OH276416   2.719   5.803  11.533 -0.3108  0.0848 -0.2662
18334TIP3    H176417   2.735   5.860  11.458 -0.9604 -1.5722 -1.7363
18334TIP3    H276418   2.625   5.809  11.548 -0.2817 -0.1044 -0.0085
18335TIP3   OH276419   5.079   0.587   4.345 -0.0093  0.2342  0.2884
18335TIP3    H176420   5.043   0.541   4.269  0.8244  1.9142 -1.2042
18335TIP3    H276421   5.003   0.604   4.401 -0.5930 -1.3139  0.0014
18336TIP3   OH276422   5.557   2.249  17.464  0.0028 -0.1653 -0.0628
18336TIP3    H176423   5.509   2.167  17.474 -0.1895 -0.5426 -2.9916
18336TIP3    H276424   5.647   2.228  17.489 -0.2183 -1.0650 -0.0117
18337TIP3   OH276425   0.756   0.508   2.705 -0.7025  0.1499  0.0030
18337TIP3    H176426   0.772   0.414   2.709 -0.7033  0.1746  0.9814
18337TIP3    H276427   0.685   0.518   2.642  0.7522 -0.2851 -1.7793
18338TIP3   OH276428   3.803   4.125   4.757  0.1990 -0.3177 -0.0066
18338TIP3    H176429   3.837   4.202   4.803 -1.1555 -0.5688  1.4805
18338TIP3    H276430   3.874   4.061   4.762  0.3269 -0.1001  1.1663
18339TIP3   OH276431   0.095   1.867   2.048  0.0140 -0.2297 -0.3073
18339TIP3    H176432   0.154   1.923   1.999  0.0412  0.1981  0.2169
18339TIP3    H276433   0.084   1.910   2.132  1.2422 -1.7543  0.7031
18340TIP3   OH276434   3.524   2.674  13.733 -0.5470 -0.0516 -0.3036
18340TIP3    H176435   3.489   2.600  13.783  2.0793 -1.0939  0.1250
18340TIP3    H276436   3.607   2.696  13.776  0.3591  0.9733 -2.4335
18341TIP3   OH276437   1.021   0.772   0.569 -0.0237 -0.0942  0.1629
18341TIP3    H176438   0.970   0.712   0.624  0.5865  0.2447  1.1280
18341TIP3    H276439   1.067   0.828   0.632 -0.0303  0.9202 -0.7149
18342TIP3   OH276440   3.225   1.269  14.051  0.2008 -0.0951  0.1955
18342TIP3    H176441   3.163   1.322  14.000  1.3526 -0.3676 -1.6114
18342TIP3    H276442   3.171   1.207  14.098 -0.9877  0.6915 -0.0892
18343TIP3   OH276443   3.475   0.456   4.853  0.4217 -0.1195 -0.1725
18343TIP3    H176444   3.541   0.496   4.797 -0.9547  1.2602 -0.8725
18343TIP3    H276445   3.426   0.397   4.796 -0.0989  0.2417 -0.1126
18344TIP3   OH276446   2.519   4.600   4.310  0.6388 -0.2790 -0.6737
18344TIP3    H176447   2.559   4.620   4.226 -0.4280  0.1343 -1.0924
18344TIP3    H276448   2.463   4.675   4.329  0.7753 -0.4218  0.3457
18345TIP3   OH276449   2.957   4.674  13.087  0.0223  0.1021  0.6690
18345TIP3    H176450   2.924   4.605  13.029  1.1722  0.1792 -0.1155
18345TIP3    H276451   2.890   4.742  13.083  0.0082  0.0489 -0.5037
18346TIP3   OH276452   4.498   0.520  15.506  0.2485 -0.1548  0.3974
18346TIP3    H176453   4.588   0.547  15.522  0.7994 -0.9641 -1.1853
18346TIP3    H276454   4.489   0.437  15.552 -0.2948  0.7613  2.0694
18347TIP3   OH276455   2.329   5.429   2.445  0.2233 -0.0502 -0.5210
18347TIP3    H176456   2.421   5.411   2.427 -0.2415 -0.7123 -2.4770
18347TIP3    H276457   2.322   5.425   2.541  1.8871 -1.7886 -0.4092
18348TIP3   OH276458   3.714   4.097   5.474  0.0043 -0.4704  0.7527
18348TIP3    H176459   3.702   4.047   5.394 -0.3778 -0.5506  0.8595
18348TIP3    H276460   3.746   4.034   5.538 -3.0104 -1.2336  1.6571
18349TIP3   OH276461   5.649   2.600   6.694 -0.4367 -0.3521 -0.2443
18349TIP3    H176462   5.688   2.517   6.724 -1.0763 -0.6564 -0.2449
18349TIP3    H276463   5.590   2.574   6.623 -2.1890 -0.1625  1.0698
18350TIP3   OH276464   4.467   0.189   0.247  0.2596  0.7873  0.1454
18350TIP3    H176465   4.548   0.215   0.291 -0.2120  1.5630  0.5717
18350TIP3    H276466   4.448   0.102   0.281  0.4833  0.9360  0.6589
18351TIP3   OH276467   0.562   3.406   4.765 -0.6169 -0.7319  0.1850
18351TIP3    H176468   0.508   3.362   4.699 -1.1757  0.5421 -0.2286
18351TIP3    H276469   0.636   3.346   4.779 -0.8582 -1.3480 -1.0587
18352TIP3   OH276470   2.870   0.886  14.089 -0.0770  0.3037  0.9867
18352TIP3    H176471   2.943   0.832  14.059 -1.3124  0.9600 -4.1472
18352TIP3    H276472   2.801   0.823  14.112 -0.5899 -0.4931 -2.3147
18353TIP3   OH276473   0.124   1.201   2.460  0.1214  0.6116 -0.3514
18353TIP3    H176474   0.106   1.113   2.492  0.9391  0.4175 -0.3886
18353TIP3    H276475   0.085   1.259   2.525 -1.3313  0.2441 -0.8448
18354TIP3   OH276476   6.455   4.825   1.543  0.5521 -0.1074  0.2697
18354TIP3    H176477   6.465   4.831   1.448 -2.0178 -1.2431 -0.1702
18354TIP3    H276478   6.444   4.915   1.572 -1.5678  0.0989 -0.9853
18355TIP3   OH276479   0.818   3.286  16.117 -0.1566 -0.1296  0.7625
18355TIP3    H176480   0.899   3.335  16.131 -0.8789  1.4732 -0.3755
18355TIP3    H276481   0.772   3.335  16.049 -2.5718 -0.3959  2.1117
18356TIP3   OH276482   2.727   3.105  17.506  0.3334  0.7910 -0.4779
18356TIP3    H176483   2.802   3.154  17.473 -0.8594  2.4873 -0.8405
18356TIP3    H276484   2.691   3.062  17.429 -0.3475  1.8345 -0.7769
18357TIP3   OH276485   0.400   1.957  14.309  0.3030 -0.6291  0.4345
18357TIP3    H176486   0.375   1.987  14.397 -0.4154 -0.5273  0.1997
18357TIP3    H276487   0.319   1.924  14.271  0.0838  1.4282 -1.0330
18358TIP3   OH276488   6.206   6.192   2.373 -1.1459  0.1497 -0.0537
18358TIP3    H176489   6.249   6.258   2.318  2.2967  0.5276  2.7511
18358TIP3    H276490   6.184   6.121   2.312 -0.7627  1.9356 -2.4280
18359TIP3   OH276491   3.258   3.350  15.069  0.1896 -0.4275 -0.2135
18359TIP3    H176492   3.193   3.408  15.030 -0.6456 -0.4183  1.1156
18359TIP3    H276493   3.332   3.352  15.009 -0.1708  1.3012 -0.6548
18360TIP3   OH276494   1.946   5.624   3.199 -0.3230  0.6408 -0.3843
18360TIP3    H176495   1.918   5.547   3.248  1.3822 -1.2998 -2.2261
18360TIP3    H276496   2.005   5.670   3.257  1.4065 -1.4226 -0.4031
18361TIP3   OH276497   4.781   4.657  16.179 -0.5212  0.8899  0.0431
18361TIP3    H176498   4.732   4.731  16.143 -1.6178  0.3244  0.2965
18361TIP3    H276499   4.717   4.585  16.180  0.5700 -0.1262 -0.4244
18362TIP3   OH276500   4.770   4.795  11.183 -0.3890 -0.4061  0.1590
18362TIP3    H176501   4.829   4.729  11.146  0.0970 -0.2234  0.5978
18362TIP3    H276502   4.690   4.787  11.131  0.0500 -0.5947 -0.5041
18363TIP3   OH276503   4.627   4.784   1.243 -0.3891  0.8041 -0.2494
18363TIP3    H176504   4.707   4.768   1.193 -1.1610  1.5579 -1.7866
18363TIP3    H276505   4.634   4.726   1.319  0.6843 -0.6166 -1.3883
18364TIP3   OH276506   5.113   1.204   4.441 -0.0454 -0.2729  0.3543
18364TIP3    H176507   5.164   1.147   4.498 -0.7482 -1.9069 -0.5586
18364TIP3    H276508   5.115   1.159   4.356  1.8993  2.6078 -1.2663
18365TIP3   OH276509   0.346   0.888   4.506  0.0668  0.2829  0.5420
18365TIP3    H176510   0.411   0.866   4.439 -1.7631 -1.6190 -0.7649
18365TIP3    H276511   0.377   0.845   4.585  1.8332  1.8510  0.7615
18366TIP3   OH276512   1.355   4.254   2.972  0.1485  0.1864  0.4780
18366TIP3    H176513   1.440   4.213   2.986 -0.3159 -1.1593 -0.4703
18366TIP3    H276514   1.292   4.185   2.992 -0.6680  0.4847 -0.9704
18367TIP3   OH276515   1.847   1.659  17.251  0.6245 -0.2084 -0.4392
18367TIP3    H176516   1.828   1.668  17.344 -1.3334 -0.0980 -0.8001
18367TIP3    H276517   1.764   1.681  17.207  1.4631 -0.3432 -2.2042
18368TIP3   OH276518   0.464   3.707  13.832  0.7726  0.2402  0.3775
18368TIP3    H176519   0.375   3.737  13.849  0.1977  0.6853 -2.6880
18368TIP3    H276520   0.458   3.612  13.835 -0.0399  0.2400 -0.5687
18369TIP3   OH276521   3.419   4.931  17.045  0.1810  0.3423  0.1108
18369TIP3    H176522   3.392   4.847  17.081  2.1278 -1.1479 -1.6485
18369TIP3    H276523   3.346   4.958  16.989  0.2864 -1.1752 -0.8113
18370TIP3   OH276524   1.291   6.190   1.587 -0.1708 -0.0722  0.2244
18370TIP3    H176525   1.208   6.222   1.621  0.2669  0.9923  0.3368
18370TIP3    H276526   1.308   6.245   1.510  0.0218 -0.8501 -0.3076
18371TIP3   OH276527   5.736   5.553   3.105 -0.6605 -0.3742 -0.3399
18371TIP3    H176528   5.727   5.508   3.189  0.9614  0.6908  0.4605
18371TIP3    H276529   5.818   5.518   3.068 -0.7734 -0.0033 -0.9548
18372TIP3   OH276530   1.655   1.664   1.365  0.7600 -0.7416  0.5283
18372TIP3    H176531   1.701   1.636   1.444  0.7200 -2.0119  0.1253
18372TIP3    H276532   1.723   1.671   1.298  0.8436  0.6487  0.7337
18373TIP3   OH276533   1.872   3.183  16.623 -0.2991  0.3370  0.2862
18373TIP3    H176534   1.809   3.213  16.689 -0.6036 -0.1848  0.2323
18373TIP3    H276535   1.870   3.251  16.556 -1.8817 -0.3685 -0.4284
18374TIP3   OH276536   6.564   1.701  11.506 -0.0584  0.1471  0.1900
18374TIP3    H176537   6.567   1.667  11.595 -0.8756  0.2337  0.2618
18374TIP3    H276538   6.631   1.651  11.459 -0.6843 -1.0248  0.4895
18375TIP3   OH276539   0.105   0.735  11.273  0.4200 -0.5054  0.0101
18375TIP3    H176540   0.104   0.748  11.368  0.7609  1.9271 -0.2670
18375TIP3    H276541   0.015   0.708  11.252  0.5764 -1.9837  1.0980
18376TIP3   OH276542   5.940   6.446  12.983 -0.4141 -0.0273 -0.1398
18376TIP3    H176543   5.850   6.440  13.015 -0.7741  1.2471 -0.8399
18376TIP3    H276544   5.932   6.434  12.889  0.1193  0.3304 -0.2311
18377TIP3   OH276545   1.013   1.902  13.769 -0.2681  0.6066  0.3223
18377TIP3    H176546   0.976   1.975  13.721  0.9361 -0.1996 -1.9653
18377TIP3    H276547   0.937   1.857  13.807 -1.4443  0.5123 -1.9776
18378TIP3   OH276548   4.705   2.486  14.159  0.8513 -0.2236  0.5323
18378TIP3    H176549   4.679   2.506  14.249  0.4291 -1.4002  0.6973
18378TIP3    H276550   4.624   2.463  14.115  0.9360  1.2044 -0.4157
18379TIP3   OH276551   3.856   6.498   1.697  0.2520 -0.4046 -0.3867
18379TIP3    H176552   3.948   6.496   1.670 -0.0116 -2.7605 -1.4104
18379TIP3    H276553   3.855   6.461   1.785  0.3740  0.6203  0.0546
18380TIP3   OH276554   3.001   3.711   6.003  0.0557  0.3006  0.3044
18380TIP3    H176555   2.932   3.647   6.020 -0.2399  0.1314 -1.3515
18380TIP3    H276556   3.042   3.680   5.922  1.0899  1.2371  0.4514
18381TIP3   OH276557   4.727   4.062  13.074 -0.4261 -0.7692  0.0573
18381TIP3    H176558   4.782   3.985  13.060 -0.9628 -1.1986  0.2445
18381TIP3    H276559   4.727   4.074  13.169 -0.0741 -0.3338  0.0023
18382TIP3   OH276560   4.833   0.422  17.132  0.0300 -0.0637  0.3700
18382TIP3    H176561   4.876   0.490  17.080 -0.4362  0.0580  0.1375
18382TIP3    H276562   4.885   0.343  17.115 -0.8896 -0.3478 -1.3856
18383TIP3   OH276563   3.778   0.210   2.747  0.1587 -0.7696 -0.0481
18383TIP3    H176564   3.737   0.290   2.716  2.3699 -0.1926 -1.7525
18383TIP3    H276565   3.773   0.216   2.843 -0.0038  1.2664 -0.1460
18384TIP3   OH276566   5.492   3.813   5.072 -1.0428  0.0336  0.5125
18384TIP3    H176567   5.421   3.855   5.024  0.0820 -0.3753 -1.6350
18384TIP3    H276568   5.542   3.766   5.005  0.2373 -1.1384  2.2079
18385TIP3   OH276569   2.647   2.966   5.089 -0.4385 -0.7651  0.1120
18385TIP3    H176570   2.567   3.017   5.076 -0.8639 -0.6757  2.6456
18385TIP3    H276571   2.654   2.912   5.010 -1.0029  1.7625 -1.8060
18386TIP3   OH276572   4.228   4.459  17.342  0.1502  0.7335  0.0360
18386TIP3    H176573   4.234   4.365  17.324  0.7787  0.7350  0.2216
18386TIP3    H276574   4.190   4.497  17.263  1.3865  0.5344 -0.6700
18387TIP3   OH276575   4.009   1.364  11.428  0.1211 -0.0678  0.1231
18387TIP3    H176576   4.030   1.300  11.360  1.7943  0.9049 -0.3426
18387TIP3    H276577   3.923   1.398  11.405 -0.9148 -2.2507  0.5008
18388TIP3   OH276578   1.287   0.709  12.916  0.6037 -0.5321  0.3664
18388TIP3    H176579   1.259   0.618  12.928  0.7637 -0.4763  1.1852
18388TIP3    H276580   1.380   0.702  12.894 -0.0119 -0.7303 -2.5564
18389TIP3   OH276581   6.220   1.454  16.920 -0.1718  0.0021  0.1150
18389TIP3    H176582   6.175   1.370  16.927 -0.4914  0.1897  0.3298
18389TIP3    H276583   6.158   1.518  16.956  0.2781  0.2585  0.4424
18390TIP3   OH276584   2.298   0.110  13.664  0.7008  0.2931 -0.3596
18390TIP3    H176585   2.246   0.052  13.608  1.8774 -0.2133 -0.9569
18390TIP3    H276586   2.285   0.076  13.752  0.2582 -0.0055 -0.5369
18391TIP3   OH276587   5.238   5.477   5.886  0.1910  0.2294  0.0312
18391TIP3    H176588   5.310   5.417   5.909  0.1409 -0.0637 -0.5572
18391TIP3    H276589   5.274   5.532   5.816  0.1562  0.7294  0.4017
18392TIP3   OH276590   1.567   6.300  11.906 -0.1292  0.0869  0.6315
18392TIP3    H176591   1.478   6.270  11.889 -0.6067  1.9076 -0.4186
18392TIP3    H276592   1.619   6.220  11.912 -1.7717 -1.0008  0.9765
18393TIP3   OH276593   3.418   0.783   0.339  0.0962 -0.1069  0.0323
18393TIP3    H176594   3.325   0.773   0.318  0.1855 -3.2399  0.5759
18393TIP3    H276595   3.463   0.763   0.257  0.3235  1.1567 -0.1652
18394TIP3   OH276596   5.918   2.279   3.245 -0.2637  0.0752 -0.2128
18394TIP3    H176597   5.946   2.370   3.235 -1.3962  0.3015 -1.5792
18394TIP3    H276598   5.961   2.233   3.173  2.2976 -1.0409  1.8419
18395TIP3   OH276599   4.942   1.629  14.180 -0.0505 -0.2678 -0.1462
18395TIP3    H176600   5.021   1.624  14.235 -1.3865  1.4247  2.0889
18395TIP3    H276601   4.947   1.715  14.139  0.5770 -1.2436 -2.3136
18396TIP3   OH276602   2.370   6.282   4.844 -0.5368 -0.8873  0.3543
18396TIP3    H176603   2.421   6.327   4.910  0.9631 -1.8478 -0.1033
18396TIP3    H276604   2.279   6.300   4.868 -0.0157  0.5404  1.4160
18397TIP3   OH276605   0.279   5.457   6.337 -0.5141 -0.0659  0.1079
18397TIP3    H176606   0.198   5.460   6.287 -0.2724  1.2816 -0.2351
18397TIP3    H276607   0.315   5.545   6.330 -0.7436  0.3556  3.1260
18398TIP3   OH276608   5.491   0.352   3.834 -0.8313  0.4129  0.7115
18398TIP3    H176609   5.574   0.304   3.829 -1.8355 -1.4875  1.1657
18398TIP3    H276610   5.513   0.433   3.878  1.1211  0.8322 -0.8591
18399TIP3   OH276611   4.774   4.102  13.687 -0.0878  0.3426 -0.0776
18399TIP3    H176612   4.695   4.148  13.661  0.1792  2.5841  2.5960
18399TIP3    H276613   4.838   4.122  13.619 -1.6657 -1.4640 -2.2550
18400TIP3   OH276614   5.634   1.594  16.910  0.5774 -1.1239  0.2884
18400TIP3    H176615   5.563   1.571  16.969 -0.7009  1.4881 -0.0766
18400TIP3    H276616   5.601   1.572  16.823  0.1166  0.1390  0.1140
18401TIP3   OH276617   1.085   5.573   5.083  0.3028  0.3901  0.3188
18401TIP3    H176618   1.075   5.630   5.160 -1.0055  3.3010 -1.8039
18401TIP3    H276619   1.167   5.603   5.043 -0.3254  0.7068 -0.7485
18402TIP3   OH276620   6.668   4.530   1.629 -0.1395 -0.3602  0.7815
18402TIP3    H176621   6.629   4.582   1.699 -0.4109 -0.1849  0.4990
18402TIP3    H276622   6.759   4.518   1.656  0.5687  2.1640 -0.2065
18403TIP3   OH276623   3.546   1.364  14.426 -0.1589  0.5775 -0.0799
18403TIP3    H176624   3.600   1.443  14.417 -1.6872  1.6424 -0.4291
18403TIP3    H276625   3.583   1.302  14.364  0.5640  1.3346 -0.4276
18404TIP3   OH276626   4.091   4.667   2.245 -0.1805  0.3242  0.6276
18404TIP3    H176627   4.184   4.687   2.250  0.0248 -0.3706 -0.2807
18404TIP3    H276628   4.074   4.611   2.321  1.0392 -2.9077 -1.2878
18405TIP3   OH276629   1.987   5.636  13.221  0.4913 -0.2467 -0.3924
18405TIP3    H176630   2.042   5.612  13.296 -0.9820  0.6670  1.0393
18405TIP3    H276631   2.026   5.717  13.188  0.5349 -0.0834  0.0532
18406TIP3   OH276632   6.278   4.983   4.476 -0.9600  0.2567  0.1979
18406TIP3    H176633   6.206   5.014   4.531 -3.2598  0.0641 -2.4654
18406TIP3    H276634   6.236   4.924   4.413  1.9800 -1.8598  0.0234
18407TIP3   OH276635   1.714   3.658  11.589  0.6733 -0.1482  0.5144
18407TIP3    H176636   1.721   3.753  11.602  1.6957 -0.0256 -0.7013
18407TIP3    H276637   1.804   3.630  11.571  0.4091 -1.3878  1.0566
18408TIP3   OH276638   3.275   3.556   4.371 -0.1453  0.5922 -0.1788
18408TIP3    H176639   3.277   3.597   4.457 -0.2752  1.0264 -0.3826
18408TIP3    H276640   3.183   3.529   4.360 -0.5800  2.3075 -1.0060
18409TIP3   OH276641   5.488   2.021  16.530  0.3180  0.6171 -0.3164
18409TIP3    H176642   5.555   1.969  16.575 -0.0960  1.5557  1.4432
18409TIP3    H276643   5.418   1.959  16.512  0.9309 -0.0006 -0.6416
18410TIP3   OH276644   5.376   2.731   6.413  0.2816 -0.3307  0.4303
18410TIP3    H176645   5.289   2.741   6.452  0.7961  1.3885  1.2457
18410TIP3    H276646   5.415   2.657   6.460 -1.4933 -2.6369 -1.4926
18411TIP3   OH276647   0.497   0.013  14.604 -0.5287  0.0242  0.5362
18411TIP3    H176648   0.510   0.056  14.519  1.6569  0.4314  1.0309
18411TIP3    H276649   0.445   0.075  14.655 -2.9727 -0.7429 -0.8386
18412TIP3   OH276650   1.333   4.575  12.757 -0.1432  0.3823  0.0660
18412TIP3    H176651   1.392   4.599  12.828 -0.4704  0.4323  0.3219
18412TIP3    H276652   1.260   4.530  12.800 -0.9485  1.4962 -0.1003
18413TIP3   OH276653   0.944   0.730   5.823 -0.1205 -0.0964  0.0387
18413TIP3    H176654   0.878   0.761   5.761  0.4643  0.5961 -0.2607
18413TIP3    H276655   0.922   0.773   5.905 -0.3163 -0.2265  0.0530
18414TIP3   OH276656   2.290   4.100   3.058  0.3935  0.0716  0.0814
18414TIP3    H176657   2.345   4.151   2.998  0.5474  0.0117  0.1724
18414TIP3    H276658   2.268   4.162   3.128 -0.0244  0.2266 -0.1822
18415TIP3   OH276659   3.985   3.317  11.912  0.5269 -0.5624  0.3338
18415TIP3    H176660   4.078   3.330  11.897  0.2561  1.0452 -0.1328
18415TIP3    H276661   3.960   3.386  11.974 -0.6632  0.1798 -0.8922
18416TIP3   OH276662   3.830   3.157  16.863 -0.0819 -0.0101  0.1292
18416TIP3    H176663   3.832   3.066  16.833 -1.4517  0.1527 -0.5477
18416TIP3    H276664   3.903   3.199  16.818 -0.8727 -0.2420 -1.4361
18417TIP3   OH276665   3.547   6.609  13.175  0.1625 -0.5042  0.4231
18417TIP3    H176666   3.545   6.638  13.266  1.2527 -0.3998  0.4339
18417TIP3    H276667   3.542   6.513  13.181  1.2928 -0.5711  0.6805
18418TIP3   OH276668   1.102   4.512  11.252  0.2220  0.1051 -0.7610
18418TIP3    H176669   1.040   4.572  11.208  1.3046  0.6461 -1.5981
18418TIP3    H276670   1.092   4.429  11.205 -1.3375 -0.4318  0.4494
18419TIP3   OH276671   0.561   5.001   3.558 -0.0560  0.8046  0.2208
18419TIP3    H176672   0.484   4.951   3.529  1.5691 -2.1738  0.7095
18419TIP3    H276673   0.580   4.968   3.646  1.8399  1.3719  0.0694
18420TIP3   OH276674   5.519   2.612  16.706 -0.5254 -0.0460  0.0785
18420TIP3    H176675   5.521   2.584  16.798  2.1177 -2.0360 -0.4504
18420TIP3    H276676   5.433   2.584  16.674 -1.4336  0.5400  1.8498
18421TIP3   OH276677   2.100   6.504   6.216 -0.1860 -0.2358 -0.1783
18421TIP3    H176678   2.081   6.592   6.250 -1.5165 -1.1037  1.5237
18421TIP3    H276679   2.184   6.513   6.171 -1.2074  2.3349 -1.8515
18422TIP3   OH276680   1.644   4.485   3.885 -0.7302  0.2588  0.1725
18422TIP3    H176681   1.569   4.433   3.913 -0.5030  0.9158  2.1468
18422TIP3    H276682   1.632   4.570   3.927  0.4815  0.7777 -0.4843
18423TIP3   OH276683   0.146   0.338   1.553 -0.4460 -0.3750 -0.0294
18423TIP3    H176684   0.088   0.410   1.530  0.4946 -0.1790 -1.9575
18423TIP3    H276685   0.112   0.305   1.636 -1.0915  2.0511  0.7319
18424TIP3   OH276686   4.185   3.289  12.270  0.3644  0.1688 -0.2413
18424TIP3    H176687   4.238   3.325  12.198 -0.0429 -1.3021 -1.3135
18424TIP3    H276688   4.201   3.349  12.343 -0.6815  2.8339 -2.0446
18425TIP3   OH276689   0.358   5.491   5.039  0.0443  0.2419 -0.3349
18425TIP3    H176690   0.427   5.508   4.975  1.4035  0.1736  1.0727
18425TIP3    H276691   0.299   5.566   5.030  0.7595  0.7491 -0.9617
18426TIP3   OH276692   2.519   2.925   0.168 -0.4120  0.1540 -0.3033
18426TIP3    H176693   2.610   2.953   0.159 -0.0331 -1.2990 -1.4371
18426TIP3    H276694   2.476   2.956   0.088 -0.5568 -0.4019 -0.4450
18427TIP3   OH276695   1.325   5.038   5.164  0.4020  0.5650  0.3759
18427TIP3    H176696   1.399   5.093   5.137 -0.3882  0.7861 -1.4589
18427TIP3    H276697   1.359   4.987   5.238  2.2437  0.9945 -0.1235
18428TIP3   OH276698   6.055   5.177  17.451 -1.1668 -0.0928 -0.5148
18428TIP3    H176699   6.007   5.132  17.382 -0.7330 -0.6763 -0.4415
18428TIP3    H276700   6.087   5.257  17.410 -0.9954 -0.3899 -0.9618
18429TIP3   OH276701   6.558   6.585   1.228 -0.2121  0.1949 -0.0512
18429TIP3    H176702   6.625   6.519   1.249 -0.3012  0.2589  0.4440
18429TIP3    H276703   6.540   6.628   1.312 -0.9464  0.1160 -0.1625
18430TIP3   OH276704   0.597   6.536   2.428  0.5446 -0.3530 -0.0112
18430TIP3    H176705   0.673   6.533   2.370  1.2340 -0.4226  0.8680
18430TIP3    H276706   0.534   6.592   2.382  1.2627 -0.0121 -0.6026
18431TIP3   OH276707   5.753   3.715  12.763 -0.3720  0.2467 -0.9193
18431TIP3    H176708   5.763   3.659  12.685  1.3469 -0.3300 -0.3310
18431TIP3    H276709   5.797   3.666  12.833 -0.6019  1.4276  0.0780
18432TIP3   OH276710   0.232   2.551   3.385  0.3959 -0.2757 -0.1598
18432TIP3    H176711   0.321   2.584   3.379 -0.1552  1.1707 -0.6675
18432TIP3    H276712   0.206   2.568   3.476  0.6712 -0.8187  0.0247
18433TIP3   OH276713   4.633   5.792  12.412 -0.0519 -0.9291  0.5773
18433TIP3    H176714   4.702   5.847  12.448  0.3471 -1.1363  0.1415
18433TIP3    H276715   4.554   5.845  12.416  0.0573 -0.8285  1.4365
18434TIP3   OH276716   2.855   6.628   2.461 -0.4478 -0.1166 -0.7977
18434TIP3    H176717   2.872   6.548   2.510  0.5710 -1.0473 -2.5649
18434TIP3    H276718   2.781   6.669   2.506  2.1127  0.6038  3.2219
18435TIP3   OH276719   6.618   0.791  10.954  0.9196 -0.4715  0.4001
18435TIP3    H176720   6.545   0.834  10.999  1.0944  0.9840 -0.6298
18435TIP3    H276721   6.583   0.705  10.930 -0.4347  0.1548  0.0184
18436TIP3   OH276722   3.994   1.698   4.046 -0.5696  0.0793  0.2377
18436TIP3    H176723   3.900   1.685   4.062 -0.7165  0.8152 -0.0359
18436TIP3    H276724   4.032   1.705   4.134 -0.8656  0.4598  0.3346
18437TIP3   OH276725   3.916   2.315  14.869 -0.0458  0.0191  0.7197
18437TIP3    H176726   3.973   2.309  14.792  1.6727  0.8705  1.8684
18437TIP3    H276727   3.879   2.403  14.864 -1.2403 -0.4827  0.0528
18438TIP3   OH276728   0.775   2.086   2.414 -0.2518 -0.1416  0.2288
18438TIP3    H176729   0.816   2.131   2.341 -0.3856  1.3987  1.0712
18438TIP3    H276730   0.844   2.076   2.479 -0.6754  0.5515  0.7981
18439TIP3   OH276731   2.660   1.687   0.988  0.0195  0.1030 -0.1794
18439TIP3    H176732   2.580   1.727   0.953 -0.8581 -0.7346  0.7871
18439TIP3    H276733   2.705   1.652   0.912 -0.7019  0.3137 -0.7133
18440TIP3   OH276734   4.011   5.442  13.658 -0.7097  0.1937 -0.5486
18440TIP3    H176735   3.953   5.518  13.646 -2.2762 -0.7794  0.5562
18440TIP3    H276736   3.954   5.366  13.646  0.6077 -0.8250 -0.6009
18441TIP3   OH276737   5.753   0.609  15.446  0.2125  0.2444  0.1770
18441TIP3    H176738   5.680   0.631  15.504 -1.1088 -0.8510 -0.9979
18441TIP3    H276739   5.738   0.518  15.422  2.1860 -0.1389  0.1603
18442TIP3   OH276740   3.050   2.847   5.008  0.2669 -0.0537  0.4759
18442TIP3    H176741   3.047   2.782   4.938  0.9292 -0.0364  0.4305
18442TIP3    H276742   3.116   2.911   4.979  0.0064  0.3535  0.7672
18443TIP3   OH276743   6.444   2.877   1.358 -0.3952  0.1780 -0.2560
18443TIP3    H176744   6.449   2.788   1.391 -1.2436 -0.3207 -1.3842
18443TIP3    H276745   6.532   2.896   1.325 -0.1849 -0.2004  0.0917
18444TIP3   OH276746   4.314   2.634  12.689  0.0147  0.6062  0.5345
18444TIP3    H176747   4.331   2.629  12.783 -1.9761 -1.1453  0.8759
18444TIP3    H276748   4.317   2.727  12.669  0.9850  0.9774  2.2199
18445TIP3   OH276749   1.401   2.222  14.290  0.3548 -0.1464 -0.1131
18445TIP3    H176750   1.337   2.152  14.301  1.0206 -0.7814 -0.1257
18445TIP3    H276751   1.483   2.184  14.322  0.4328  1.1524  1.3081
18446TIP3   OH276752   3.435   3.174  11.317 -0.7001  0.3126 -0.4352
18446TIP3    H176753   3.373   3.106  11.289 -1.5895  0.5193  0.9632
18446TIP3    H276754   3.381   3.236  11.365  0.6336  0.3715  1.0354
18447TIP3   OH276755   2.819   6.060  11.915  0.5854 -0.6584  0.0191
18447TIP3    H176756   2.813   6.154  11.897 -1.1055 -0.7585 -0.1077
18447TIP3    H276757   2.882   6.053  11.987  0.7806  0.5587 -0.0196
18448TIP3   OH276758   6.598   3.934   4.603  0.1321  0.0901 -0.3273
18448TIP3    H176759   6.680   3.888   4.589  0.8790  0.9054  1.1177
18448TIP3    H276760   6.553   3.931   4.518  1.4430 -0.7471 -1.0125
18449TIP3   OH276761   4.669   4.273  12.544  0.4616  0.2610  0.4305
18449TIP3    H176762   4.691   4.273  12.637  0.7588 -0.5312  0.3664
18449TIP3    H276763   4.691   4.185  12.514  0.4884  0.5488 -0.4199
18450TIP3   OH276764   0.296   6.216  11.646 -0.7622 -0.4387  0.3482
18450TIP3    H176765   0.346   6.270  11.707 -1.3320  0.4792  0.0299
18450TIP3    H276766   0.358   6.152  11.613  0.2150  0.6532 -0.0119
18451TIP3   OH276767   1.339   5.575   4.934 -0.0340  0.3473  0.2036
18451TIP3    H176768   1.390   5.494   4.940 -0.8156 -0.0616  2.1416
18451TIP3    H276769   1.405   5.644   4.936  0.5824 -0.2200 -0.0738
18452TIP3   OH276770   4.152   2.954  16.808 -0.4253 -0.7332 -0.5324
18452TIP3    H176771   4.195   2.883  16.759  0.2050 -0.2680 -0.6695
18452TIP3    H276772   4.137   2.916  16.895  2.8393 -0.0851  0.4652
18453TIP3   OH276773   2.582   0.107  13.665 -0.1430  0.6209 -0.0859
18453TIP3    H176774   2.613   0.144  13.583 -0.1688  0.2301 -0.2737
18453TIP3    H276775   2.495   0.145  13.678 -0.8589 -0.6185 -1.1089
18454TIP3   OH276776   0.197   2.439   4.787  0.2350  0.0456 -1.0691
18454TIP3    H176777   0.170   2.377   4.719 -0.0085  0.5499 -1.4369
18454TIP3    H276778   0.222   2.518   4.739 -0.8229  0.7276 -0.5265
18455TIP3   OH276779   5.067   6.181  10.835  0.0000  0.3531  0.9410
18455TIP3    H176780   5.152   6.192  10.794 -0.2542 -1.2362 -0.1233
18455TIP3    H276781   5.081   6.115  10.903 -0.8368 -2.0349 -1.0581
18456TIP3   OH276782   3.254   4.967  11.004  0.1868  0.5876  0.3154
18456TIP3    H176783   3.341   4.928  11.013  0.8060  2.2410  1.9399
18456TIP3    H276784   3.195   4.892  10.992  1.7638 -0.5785 -0.5304
18457TIP3   OH276785   2.997   5.585  13.756  0.0455 -0.5235  0.5794
18457TIP3    H176786   3.026   5.551  13.840  1.1168 -0.4077  0.2723
18457TIP3    H276787   3.069   5.567  13.696 -0.5380 -0.2559 -0.2350
18458TIP3   OH276788   0.124   5.575  15.171 -0.0257  0.5453 -0.3644
18458TIP3    H176789   0.066   5.649  15.190 -1.7014 -0.5060 -1.1410
18458TIP3    H276790   0.138   5.533  15.256 -2.9844 -0.9433 -0.4787
18459TIP3   OH276791   4.570   3.001  13.678  0.0948 -0.7182  0.3541
18459TIP3    H176792   4.633   3.001  13.606 -0.4450 -1.5558 -0.1308
18459TIP3    H276793   4.524   2.917  13.670 -1.1224 -0.1032  0.6601
18460TIP3   OH276794   3.371   2.110  17.175 -0.0880  0.4240  0.3011
18460TIP3    H176795   3.430   2.182  17.196  0.9542 -0.0024 -1.0415
18460TIP3    H276796   3.366   2.059  17.256  0.6124  1.0143  0.7255
18461TIP3   OH276797   2.222   5.248  12.080 -0.4927 -0.6661 -0.3550
18461TIP3    H176798   2.221   5.311  12.007 -0.3118 -0.3161 -0.0568
18461TIP3    H276799   2.310   5.211  12.078 -0.6872 -1.1175 -0.7032
18462TIP3   OH276800   5.592   2.165  15.089  0.1935 -0.3219 -0.1806
18462TIP3    H176801   5.637   2.165  15.173 -1.0972  0.2796  0.5422
18462TIP3    H276802   5.595   2.073  15.061  2.9083 -0.1387 -0.8033
18463TIP3   OH276803   6.471   6.072   1.183 -0.0735  0.0071 -0.1263
18463TIP3    H176804   6.445   6.113   1.265  0.0268  2.4487 -1.2230
18463TIP3    H276805   6.561   6.103   1.168 -0.1308 -0.3137 -1.2080
18464TIP3   OH276806   3.671   5.179   1.227 -0.1046  0.3394 -0.3021
18464TIP3    H176807   3.710   5.097   1.198  2.0291  0.0696  2.8768
18464TIP3    H276808   3.626   5.158   1.309 -2.8815  1.6755 -1.3425
18465TIP3   OH276809   2.244   4.511  15.894 -0.7225 -0.3222  0.2068
18465TIP3    H176810   2.269   4.581  15.834  0.0717  0.0865  0.9879
18465TIP3    H276811   2.315   4.508  15.959 -1.3424 -1.0358  0.8851
18466TIP3   OH276812   3.215   2.511   4.418 -0.0766  0.6956 -0.0544
18466TIP3    H176813   3.171   2.575   4.473 -2.6643 -0.0022 -1.1486
18466TIP3    H276814   3.185   2.426   4.451 -1.1174  0.2458 -1.9813
18467TIP3   OH276815   3.178   2.174   4.082  0.7335  0.1171 -0.4445
18467TIP3    H176816   3.090   2.202   4.054  0.2472 -2.3134 -1.6161
18467TIP3    H276817   3.236   2.205   4.013  0.7404  1.1618  0.0065
18468TIP3   OH276818   0.677   6.716  12.891 -0.4699  0.4902 -0.0131
18468TIP3    H176819   0.733   6.667  12.952 -0.1787  1.3882  0.4603
18468TIP3    H276820   0.605   6.748  12.944 -2.1957 -1.6877 -0.8434
18469TIP3   OH276821   2.883   2.915   3.616  0.6236 -0.4962  0.3998
18469TIP3    H176822   2.841   2.851   3.674  0.3528  0.7757  1.6552
18469TIP3    H276823   2.824   2.990   3.616 -0.3662 -1.1323 -3.0936
18470TIP3   OH276824   3.764   3.067   0.943  0.1609 -0.0414  0.0417
18470TIP3    H176825   3.701   3.029   0.882 -0.1612  0.8331 -0.1763
18470TIP3    H276826   3.755   3.014   1.022 -0.4443 -0.2739 -0.1774
18471TIP3   OH276827   4.740   5.777   4.815  0.3546  0.6044  0.2862
18471TIP3    H176828   4.810   5.843   4.819 -0.3541  1.4485 -0.7411
18471TIP3    H276829   4.766   5.719   4.743 -0.0584  0.9913 -0.1769
18472TIP3   OH276830   4.874   2.878  15.582 -0.6383 -0.6006 -0.0305
18472TIP3    H176831   4.820   2.957  15.591  0.8127  0.7509 -2.2701
18472TIP3    H276832   4.818   2.816  15.536 -0.4333  0.7545 -2.2528
18473TIP3   OH276833   5.997   5.398   2.549 -0.6471 -0.2643 -0.2110
18473TIP3    H176834   5.945   5.432   2.622 -1.2007 -0.8040 -0.3417
18473TIP3    H276835   5.936   5.345   2.498 -0.4445  0.6575 -1.4708
18474TIP3   OH276836   4.582   3.158  16.214  0.0216  0.1191  0.7407
18474TIP3    H176837   4.617   3.122  16.296 -0.0901  1.0050  1.1836
18474TIP3    H276838   4.582   3.083  16.154  0.8854 -0.3458  1.2951
18475TIP3   OH276839   3.694   5.002   5.243 -0.1475 -0.1730 -0.2172
18475TIP3    H176840   3.739   5.041   5.317  0.5756 -1.2443 -0.0662
18475TIP3    H276841   3.602   4.997   5.270  0.3075 -1.7942  1.1775
18476TIP3   OH276842   5.364   2.463   0.907  0.3932 -0.4534  0.5174
18476TIP3    H176843   5.413   2.543   0.925 -1.8042  1.3251 -0.9364
18476TIP3    H276844   5.279   2.477   0.948 -1.1280 -0.6239 -2.3749
18477TIP3   OH276845   2.278   3.958  16.776  0.0674  0.4087  0.2884
18477TIP3    H176846   2.278   3.950  16.872  0.6842  1.5926  0.4146
18477TIP3    H276847   2.242   4.045  16.760 -2.8192 -0.8431 -0.7261
18478TIP3   OH276848   2.793   3.592  12.689 -0.1426 -0.4078 -0.7115
18478TIP3    H176849   2.797   3.688  12.688  1.5439 -0.4381 -0.7920
18478TIP3    H276850   2.791   3.569  12.782 -1.5312 -0.2890 -0.7018
18479TIP3   OH276851   2.979   3.199   0.739  0.4700 -0.3299 -0.4838
18479TIP3    H176852   3.062   3.177   0.780  0.7790 -0.1689 -1.0047
18479TIP3    H276853   2.920   3.128   0.765  0.5128  0.0339  0.6346
18480TIP3   OH276854   3.176   2.574  16.527 -0.1139  1.2988 -0.1530
18480TIP3    H176855   3.247   2.601  16.467  0.9618  3.6203  1.9979
18480TIP3    H276856   3.098   2.615  16.491  0.0110  0.5284 -1.3569
18481TIP3   OH276857   6.689   3.193   6.314  0.5513  0.1423 -0.6223
18481TIP3    H176858   6.627   3.148   6.256  0.6832 -0.4838 -0.2828
18481TIP3    H276859   6.720   3.125   6.373  3.7179 -0.2646 -2.5062
18482TIP3   OH276860   2.467   0.613  15.719  0.2958  0.5209  0.1999
18482TIP3    H176861   2.506   0.629  15.633 -1.1356  0.5536 -0.4820
18482TIP3    H276862   2.449   0.519  15.721  0.2568  0.5320  0.4394
18483TIP3   OH276863   4.978   3.043  14.498 -0.9928 -0.2837 -0.2354
18483TIP3    H176864   5.044   2.999  14.445  0.7052  2.4603 -0.5433
18483TIP3    H276865   4.975   2.992  14.579  2.8785  0.4615  0.5580
18484TIP3   OH276866   5.869   2.873  15.972 -0.4364  0.4282  0.3104
18484TIP3    H176867   5.841   2.878  15.880  1.0371  2.2216 -0.1107
18484TIP3    H276868   5.789   2.889  16.022 -1.2041 -0.2645 -0.6538
18485TIP3   OH276869   3.235   1.462  16.205 -0.1835  0.4040  0.2195
18485TIP3    H176870   3.303   1.492  16.144 -0.4661  0.1325 -0.2318
18485TIP3    H276871   3.252   1.511  16.285  0.7771  0.0863  0.2344
18486TIP3   OH276872   4.608   1.650  16.600 -0.1065 -0.5626  0.1952
18486TIP3    H176873   4.662   1.685  16.529 -1.3460  0.9861 -0.0349
18486TIP3    H276874   4.521   1.688  16.586 -0.3844 -0.1420  2.5411
18487TIP3   OH276875   6.147   1.351   4.850 -0.1255  0.5429  0.0942
18487TIP3    H176876   6.133   1.445   4.835  1.4763  0.6143 -1.3721
18487TIP3    H276877   6.147   1.313   4.762 -0.6385 -0.8349  0.6608
18488TIP3   OH276878   3.436   1.426   2.722  0.0932 -0.3642 -0.0634
18488TIP3    H176879   3.411   1.501   2.668  1.6478  0.6322  0.5240
18488TIP3    H276880   3.366   1.363   2.709 -1.2546  1.1718 -0.5975
18489TIP3   OH276881   4.611   3.623   2.389 -0.2644  0.4620  0.3582
18489TIP3    H176882   4.596   3.601   2.297  0.4046  1.0475  0.0975
18489TIP3    H276883   4.528   3.602   2.432 -0.3326 -0.5628 -0.2321
18490TIP3   OH276884   0.343   1.073   4.135 -0.3606 -0.5437 -0.4593
18490TIP3    H176885   0.261   1.025   4.133 -0.7882  0.1061  0.6858
18490TIP3    H276886   0.402   1.018   4.188 -1.4636  1.0119  2.6410
18491TIP3   OH276887   1.660   5.812   5.547 -0.0016 -0.5900  0.3921
18491TIP3    H176888   1.628   5.864   5.621 -0.9443 -1.4365  0.6112
18491TIP3    H276889   1.665   5.723   5.581 -1.1519 -1.1291 -0.7312
18492TIP3   OH276890   1.391   0.501  14.485  0.1848 -0.3613  0.5194
18492TIP3    H176891   1.352   0.422  14.447 -0.4208  0.3813 -0.4620
18492TIP3    H276892   1.477   0.473  14.516 -0.0118 -1.3967  0.1618
18493TIP3   OH276893   1.982   6.293  10.826 -0.3471  0.1301 -0.2166
18493TIP3    H176894   1.987   6.217  10.768  1.3532  0.7123 -0.9034
18493TIP3    H276895   2.054   6.350  10.797  0.2586  0.6684  2.1408
18494TIP3   OH276896   5.764   1.934   4.800 -0.0371  0.6175  0.1651
18494TIP3    H176897   5.858   1.945   4.786  0.2314 -0.4874  0.9538
18494TIP3    H276898   5.732   1.895   4.718 -0.0053  1.8638 -0.4674
18495TIP3   OH276899   4.912   5.855   2.705 -0.8735 -0.9532 -0.1125
18495TIP3    H176900   4.817   5.868   2.700 -1.0584 -2.0958  0.1558
18495TIP3    H276901   4.922   5.764   2.733  0.3021 -0.5441  0.8696
18496TIP3   OH276902   0.074   6.229  14.730  0.1721  0.7929 -0.3478
18496TIP3    H176903   0.086   6.137  14.750  0.2816  0.8952  0.0650
18496TIP3    H276904   0.039   6.267  14.810 -1.0362  0.8820 -0.8866
18497TIP3   OH276905   1.988   5.537   2.919  0.0471  0.2932 -0.5871
18497TIP3    H176906   1.988   5.627   2.886 -0.1983  0.6561  0.3608
18497TIP3    H276907   1.988   5.547   3.014 -3.4535 -0.6644 -0.3512
18498TIP3   OH276908   2.223   4.012   6.384  0.0160  0.3099 -0.3665
18498TIP3    H176909   2.148   4.071   6.381 -1.7509 -1.6332  2.0514
18498TIP3    H276910   2.196   3.936   6.333 -0.1373 -0.8211  1.3292
18499TIP3   OH276911   2.524   5.548   5.041  0.6601 -0.1435  0.0423
18499TIP3    H176912   2.537   5.508   5.127 -1.2531  0.9599  0.9181
18499TIP3    H276913   2.572   5.491   4.981  0.9960 -1.6817  1.6693
18500TIP3   OH276914   1.301   3.253   3.525  0.1868  0.4508  0.1233
18500TIP3    H176915   1.355   3.317   3.572 -0.3698  0.8934  0.1738
18500TIP3    H276916   1.224   3.302   3.498  0.1713  0.0166 -0.6416
18501TIP3   OH276917   4.010   0.292   1.386  0.0791  0.3112 -0.7413
18501TIP3    H176918   4.085   0.333   1.430  0.1979  0.4563 -1.0763
18501TIP3    H276919   4.045   0.211   1.350  0.0143  0.2581 -0.6854
18502TIP3   OH276920   0.604   3.867  15.171 -0.3548  0.0251 -0.1474
18502TIP3    H176921   0.589   3.952  15.212  0.6593 -0.9381  2.3881
18502TIP3    H276922   0.536   3.810  15.206 -0.4959 -0.4474 -1.1468
18503TIP3   OH276923   4.956   1.672   4.199 -0.3558  0.0099 -0.2991
18503TIP3    H176924   4.891   1.692   4.266  0.5759 -1.4963  1.1275
18503TIP3    H276925   4.959   1.750   4.144 -1.6613  1.0169  1.0019
18504TIP3   OH276926   5.621   1.721   6.733  0.4379 -0.4362  0.3321
18504TIP3    H176927   5.614   1.795   6.793 -2.6233 -1.5475  1.5225
18504TIP3    H276928   5.693   1.668   6.769  0.0433 -0.0124  1.8053
18505TIP3   OH276929   2.234   2.343  14.731  0.0304 -0.3526 -0.1428
18505TIP3    H176930   2.233   2.336  14.636 -2.5493 -2.4640 -0.0915
18505TIP3    H276931   2.303   2.283  14.759  1.6360  1.1816 -0.6293
18506TIP3   OH276932   1.764   2.958   4.793  0.5658 -0.1912 -0.4915
18506TIP3    H176933   1.672   2.948   4.816  1.2842 -1.6393  2.2140
18506TIP3    H276934   1.779   2.896   4.722 -0.8942  1.4824 -2.3671
18507TIP3   OH276935   0.051   3.916  10.948  0.5231 -0.3827 -0.1981
18507TIP3    H176936  -0.039   3.949  10.945  0.8919  0.6152 -0.6633
18507TIP3    H276937   0.104   3.989  10.916  1.4957 -0.9812  0.0282
18508TIP3   OH276938   2.214   0.640   0.462  0.0401  0.1399 -0.3559
18508TIP3    H176939   2.253   0.683   0.538  1.3538 -1.8238  0.1582
18508TIP3    H276940   2.253   0.553   0.461 -1.1854 -0.4568 -2.3528
18509TIP3   OH276941   3.161   5.639   3.692  0.1365  0.0091  0.2535
18509TIP3    H176942   3.146   5.544   3.683 -0.2434  0.2038 -1.5419
18509TIP3    H276943   3.174   5.652   3.786  1.8372 -2.0645  0.4032
18510TIP3   OH276944   1.365   0.262  17.167  0.1525  0.1588  0.7864
18510TIP3    H176945   1.376   0.192  17.103 -1.3849 -0.7592  1.4694
18510TIP3    H276946   1.455   0.291  17.187  0.7864 -1.2801  0.1417
18511TIP3   OH276947   6.123   5.329  13.221 -0.6343  0.0254 -0.0748
18511TIP3    H176948   6.145   5.302  13.310  0.2804 -0.8188 -0.5408
18511TIP3    H276949   6.100   5.248  13.176  0.1843  0.2600 -0.9523
18512TIP3   OH276950   5.727   1.342   4.654 -0.0178 -0.0459 -0.5137
18512TIP3    H176951   5.774   1.344   4.738  0.1375  2.4289 -0.5759
18512TIP3    H276952   5.637   1.366   4.677 -0.3339 -0.8730 -0.8769
18513TIP3   OH276953   3.386   3.654   3.373 -0.1376  0.3663 -0.1773
18513TIP3    H176954   3.351   3.720   3.433 -0.3444  0.9559 -0.9291
18513TIP3    H276955   3.360   3.571   3.411 -1.4508  0.7635 -0.1559
18514TIP3   OH276956   0.599   3.535   0.283  0.1591 -0.4204 -0.0135
18514TIP3    H176957   0.620   3.487   0.364 -1.3745 -0.4267  0.4147
18514TIP3    H276958   0.654   3.613   0.286  0.7741 -0.8655  0.5920
18515TIP3   OH276959   5.173   6.133  16.935 -0.2172  0.1706 -0.1157
18515TIP3    H176960   5.121   6.185  16.997  0.4652  0.0942  0.5383
18515TIP3    H276961   5.214   6.066  16.990  1.2166  0.7252 -0.4677
18516TIP3   OH276962   3.117   4.515  16.278  0.0989 -0.7978  0.1202
18516TIP3    H176963   3.130   4.570  16.201  1.0328  0.5675  1.2074
18516TIP3    H276964   3.022   4.515  16.292 -0.1636 -1.6746 -1.4185
18517TIP3   OH276965   6.218   0.938   5.442  0.2979  0.1161 -0.2257
18517TIP3    H176966   6.225   1.033   5.435 -0.9740  0.0870 -2.7755
18517TIP3    H276967   6.272   0.904   5.371  0.4424 -1.0847  0.4312
18518TIP3   OH276968   2.898   3.645   3.609 -0.2996  0.2094  0.1404
18518TIP3    H176969   2.854   3.610   3.687 -1.5137 -2.2967 -1.5338
18518TIP3    H276970   2.991   3.627   3.625 -0.6098 -1.0320  0.6871
18519TIP3   OH276971   5.234   5.826  14.106 -0.1862 -0.2751 -0.4947
18519TIP3    H176972   5.313   5.800  14.153  0.6711  0.1882 -1.6216
18519TIP3    H276973   5.227   5.761  14.036 -0.3558  0.1321 -0.8582
18520TIP3   OH276974   0.169   3.488   5.785 -0.2082  0.0671  0.5107
18520TIP3    H176975   0.113   3.442   5.848  0.8572  0.3081  1.6754
18520TIP3    H276976   0.118   3.489   5.704 -0.5314 -2.6307  0.5796
18521TIP3   OH276977   4.724   2.844  12.669  0.3313 -0.0101  0.2655
18521TIP3    H176978   4.724   2.927  12.717  0.5694  1.0899 -1.5718
18521TIP3    H276979   4.728   2.778  12.738  3.8214  1.4969  1.7969
18522TIP3   OH276980   3.324   2.635   3.442 -0.0405 -0.1457  0.0951
18522TIP3    H176981   3.329   2.660   3.534  0.1804 -1.0828  0.3436
18522TIP3    H276982   3.357   2.712   3.395  0.5166  0.0833  0.8331
18523TIP3   OH276983   2.862   2.769  12.501  0.0503  0.2349 -0.3160
18523TIP3    H176984   2.818   2.823  12.435 -1.9374  1.1134  1.5975
18523TIP3    H276985   2.868   2.826  12.578  2.2119 -0.7726  0.3392
18524TIP3   OH276986   2.153   3.581  15.228  0.7075  0.6120 -0.7794
18524TIP3    H176987   2.118   3.644  15.292  0.0184  1.5528 -2.0533
18524TIP3    H276988   2.078   3.555  15.176  1.4490  0.6584 -1.8968
18525TIP3   OH276989   2.474   0.333   5.128  0.1358  0.2056 -0.0857
18525TIP3    H176990   2.474   0.418   5.085 -2.2880  0.9325  1.1548
18525TIP3    H276991   2.554   0.332   5.180  0.7726  1.2219 -1.0227
18526TIP3   OH276992   5.608   4.385   3.153 -0.6649 -0.3504 -0.3176
18526TIP3    H176993   5.696   4.351   3.167 -0.1058  1.1410 -0.0256
18526TIP3    H276994   5.560   4.361   3.232  0.9878  3.3699  2.1032
18527TIP3   OH276995   3.592   3.473   6.625  0.1034 -0.1880  0.3389
18527TIP3    H176996   3.673   3.524   6.622  0.4652 -0.7853 -1.0383
18527TIP3    H276997   3.527   3.528   6.582  0.6680 -1.1181 -1.8120
18528TIP3   OH276998   5.441   1.841   4.982  0.5604 -0.4902  0.4305
18528TIP3    H176999   5.531   1.821   5.009  0.7781  0.6188  0.5525
18528TIP3    H277000   5.439   1.823   4.888  0.5077 -1.8731  0.6691
18529TIP3   OH277001   0.867   3.415  17.540 -0.0789 -0.3855 -0.2510
18529TIP3    H177002   0.916   3.365  17.475  0.7733  1.1186 -0.8106
18529TIP3    H277003   0.826   3.349  17.595  0.6646 -1.6916 -1.2131
18530TIP3   OH277004   6.050   4.139  15.125  0.3169 -0.2766  0.0386
18530TIP3    H177005   6.002   4.157  15.045  0.1415  1.2835  0.4547
18530TIP3    H277006   6.135   4.181  15.112 -0.1158  1.0083  1.0745
18531TIP3   OH277007   1.852   6.460   2.231 -0.0243  0.3048  0.2470
18531TIP3    H177008   1.908   6.452   2.309 -0.9655  2.3062  1.2059
18531TIP3    H277009   1.862   6.551   2.204 -2.2443  0.5512  0.0493
18532TIP3   OH277010   4.328   6.635  16.712  0.3527 -0.1754  0.4306
18532TIP3    H177011   4.281   6.661  16.633  0.6795 -1.1795 -0.1102
18532TIP3    H277012   4.387   6.565  16.684 -0.5635 -1.5913  1.8229
18533TIP3   OH277013   0.878   5.727   1.347  0.3652  0.5973  0.3310
18533TIP3    H177014   0.846   5.667   1.414  2.1783  0.6849  1.3369
18533TIP3    H277015   0.894   5.670   1.271  1.4674 -0.1334  1.0740
18534TIP3   OH277016   0.868   2.176  11.948 -0.2368 -0.0073  0.2079
18534TIP3    H177017   0.947   2.208  11.991 -0.3542 -1.0580  1.2409
18534TIP3    H277018   0.803   2.169  12.018 -1.2469  0.8015 -0.6210
18535TIP3   OH277019   2.283   6.463  12.087  0.0995  0.0293 -0.6631
18535TIP3    H177020   2.240   6.393  12.137 -0.1434 -0.3193 -1.3389
18535TIP3    H277021   2.304   6.530  12.152 -0.8976 -0.0743 -0.2149
18536TIP3   OH277022   6.440   1.551  11.758  0.3814  0.2347  0.2785
18536TIP3    H177023   6.414   1.483  11.696  1.1242  1.0237 -0.9590
18536TIP3    H277024   6.487   1.505  11.827  1.3495 -0.4573 -0.8094
18537TIP3   OH277025   4.761   0.534   6.376  0.4639  0.3456 -0.2442
18537TIP3    H177026   4.746   0.512   6.468 -2.3437 -1.0427 -0.9105
18537TIP3    H277027   4.720   0.620   6.364  1.3783  0.8145 -0.0989
18538TIP3   OH277028   1.946   5.284   3.624 -0.5176 -0.2231 -0.4012
18538TIP3    H177029   1.890   5.248   3.692 -0.2241  0.1129  0.0273
18538TIP3    H277030   2.023   5.227   3.624 -0.2695  0.1037 -0.0590
18539TIP3   OH277031   2.189   1.448  15.634 -0.3373 -0.1049 -0.1404
18539TIP3    H177032   2.209   1.516  15.571 -1.0311  1.7182  1.4922
18539TIP3    H277033   2.240   1.373  15.606 -1.8066  0.0504 -3.7350
18540TIP3   OH277034   1.175   1.374  12.933 -0.3489  0.2892 -0.3942
18540TIP3    H177035   1.239   1.374  13.003 -0.9002 -0.4290  0.1244
18540TIP3    H277036   1.134   1.288  12.937 -2.7061  1.3454  0.5805
18541TIP3   OH277037   0.930   5.366   4.076  0.6813 -0.2424  0.3545
18541TIP3    H177038   0.874   5.326   4.142  0.6517 -1.1923 -0.2421
18541TIP3    H277039   1.004   5.306   4.067  0.6229 -0.1776 -0.5757
18542TIP3   OH277040   4.087   0.883   3.196 -0.7016  0.3627  0.2895
18542TIP3    H177041   4.078   0.913   3.106 -0.7571  2.1078  0.8339
18542TIP3    H277042   4.144   0.948   3.237  1.0090 -1.4859  1.0263
18543TIP3   OH277043   3.067   4.047   4.647 -0.0902  0.2077  0.2777
18543TIP3    H177044   3.155   4.037   4.684  0.4794 -1.0319 -1.2942
18543TIP3    H277045   3.033   3.958   4.642 -1.7444  0.7224  1.4742
18544TIP3   OH277046   4.112   5.175   5.493  0.1749 -0.1067  0.2345
18544TIP3    H177047   4.202   5.147   5.477  1.0037  1.0631  2.3662
18544TIP3    H277048   4.109   5.192   5.587 -1.6292  2.0380 -0.1309
18545TIP3   OH277049   3.540   3.046  13.635 -0.5965 -0.3071  0.1448
18545TIP3    H177050   3.523   3.069  13.726 -1.3060  0.0109 -0.0647
18545TIP3    H277051   3.460   3.002  13.605 -0.1444 -0.9555 -0.1529
18546TIP3   OH277052   0.003   3.826  14.373  0.5127  0.1377 -0.6254
18546TIP3    H177053  -0.063   3.852  14.438  0.4439  2.0462 -1.3878
18546TIP3    H277054   0.052   3.756  14.416 -0.6713  0.0975  0.7685
18547TIP3   OH277055   3.316   6.693  15.872  0.3817  0.1825 -0.8306
18547TIP3    H177056   3.337   6.627  15.938  0.7599  0.2455 -0.8866
18547TIP3    H277057   3.231   6.665  15.837  1.1820 -1.0593 -1.8367
18548TIP3   OH277058   4.400   3.245  13.647 -0.6482  0.1819  0.1893
18548TIP3    H177059   4.325   3.220  13.593  0.8160 -1.3133 -1.2767
18548TIP3    H277060   4.452   3.165  13.654  2.0663  1.7217 -0.9555
18549TIP3   OH277061   2.561   0.531   4.773 -0.8898 -0.6019  0.6463
18549TIP3    H177062   2.477   0.558   4.735 -1.1368 -1.6365  0.4113
18549TIP3    H277063   2.543   0.521   4.867 -0.9616 -0.5689  0.6361
18550TIP3   OH277064   3.211   2.368   6.502 -0.0788 -0.0245 -0.1926
18550TIP3    H177065   3.133   2.337   6.455  0.3415 -0.0051 -0.9098
18550TIP3    H277066   3.217   2.461   6.479 -0.8926  0.4491  1.3339
18551TIP3   OH277067   1.791   6.180   3.485  0.0885 -0.2195 -0.0856
18551TIP3    H177068   1.726   6.242   3.451  0.6198 -0.1260 -0.9577
18551TIP3    H277069   1.788   6.191   3.579 -0.0342  0.9301 -0.2138
18552TIP3   OH277070   1.463   4.954  15.701  0.0593  0.2863  0.1931
18552TIP3    H177071   1.470   4.996  15.787  0.9404  0.9682 -0.1944
18552TIP3    H277072   1.515   4.874  15.709  1.5773  1.2064 -0.2004
18553TIP3   OH277073   6.074   4.695  12.281 -0.3368  0.3555 -0.2403
18553TIP3    H177074   6.159   4.650  12.282 -0.9380 -0.8230  0.1984
18553TIP3    H277075   6.054   4.708  12.189  0.2424  0.4834 -0.3510
18554TIP3   OH277076   5.526   4.679   4.801  0.5571  0.4759 -0.0342
18554TIP3    H177077   5.586   4.606   4.785  1.0268  0.8243  0.1491
18554TIP3    H277078   5.451   4.638   4.845  1.3016  0.2583  1.0879
18555TIP3   OH277079   6.056   3.656  14.747  0.0931 -0.1528  0.1397
18555TIP3    H177080   6.021   3.567  14.745  0.9352 -0.5088  0.7155
18555TIP3    H277081   6.010   3.698  14.820  0.3569 -0.3974  0.4474
18556TIP3   OH277082   1.480   5.392   3.986  0.2179 -0.8354  0.0964
18556TIP3    H177083   1.413   5.460   3.973  0.0879 -0.8747  0.5532
18556TIP3    H277084   1.557   5.440   4.017  0.4537 -0.7704 -0.5802
18557TIP3   OH277085   2.860   5.179  10.803  0.2297  0.0886  0.3091
18557TIP3    H177086   2.830   5.197  10.714  1.8134 -0.0623 -0.2826
18557TIP3    H277087   2.793   5.119  10.839 -0.7700  0.6685 -0.5229
18558TIP3   OH277088   2.991   1.999  11.096  0.3684  0.1822 -0.0813
18558TIP3    H177089   3.067   1.959  11.054  0.5509 -0.8257  1.1412
18558TIP3    H277090   2.917   1.972  11.042  0.6775 -0.4384 -0.2015
18559TIP3   OH277091   0.023   5.009   4.907 -0.3546 -0.2797  0.5879
18559TIP3    H177092   0.028   4.945   4.836  0.4567  0.2762  0.1219
18559TIP3    H277093   0.104   4.995   4.956  0.6395  1.4465 -0.4653
18560TIP3   OH277094   3.512   0.129   6.246 -0.2895 -0.4575 -0.4150
18560TIP3    H177095   3.581   0.144   6.311  0.1416 -0.4204 -0.8813
18560TIP3    H277096   3.498   0.034   6.248  0.9248 -0.6786 -1.4839
18561TIP3   OH277097   4.958   5.134  16.437 -0.2602  0.0125 -0.3755
18561TIP3    H177098   4.917   5.074  16.499  0.4096  1.4001  1.4976
18561TIP3    H277099   5.045   5.151  16.474 -0.1272  1.4854 -1.2871
18562TIP3   OH277100   3.577   4.269   2.874  0.0082  0.0512 -0.5385
18562TIP3    H177101   3.604   4.357   2.899  0.3230 -0.2209  0.1030
18562TIP3    H277102   3.646   4.238   2.816  0.7559 -0.3752  0.5362
18563TIP3   OH277103   4.270   5.829   3.301 -0.1663  0.3169  0.8774
18563TIP3    H177104   4.272   5.860   3.211  0.6877  1.5717  1.3085
18563TIP3    H277105   4.305   5.740   3.296  0.0445  0.4378 -0.0004
18564TIP3   OH277106   3.654   4.090  15.310  0.1273  0.0522  0.9187
18564TIP3    H177107   3.659   4.003  15.271  2.9914  0.3928  0.3451
18564TIP3    H277108   3.595   4.139  15.251 -2.7613 -1.7814  2.0748
18565TIP3   OH277109   4.599   4.305   2.706  0.2938  0.2966  0.2176
18565TIP3    H177110   4.596   4.247   2.782  0.9990 -0.6732 -0.4770
18565TIP3    H277111   4.682   4.351   2.714  0.8609 -0.5605 -0.4777
18566TIP3   OH277112   5.704   1.715   0.205  0.0468 -0.3433  0.1269
18566TIP3    H177113   5.759   1.755   0.272 -1.4240 -0.6137  1.5397
18566TIP3    H277114   5.743   1.630   0.188 -0.1977 -0.7409  1.4866
18567TIP3   OH277115   4.254   1.075   5.223  0.0157  0.1055  0.0093
18567TIP3    H177116   4.297   1.010   5.278 -0.2269  0.7600  1.0081
18567TIP3    H277117   4.264   1.157   5.271  2.4343  1.3399 -2.3051
18568TIP3   OH277118   1.100   1.390  14.441  0.3988  0.1161 -0.3476
18568TIP3    H177119   1.127   1.458  14.378 -0.2929  0.8582  0.1466
18568TIP3    H277120   1.182   1.346  14.464  0.9690  1.2553 -0.1300
18569TIP3   OH277121   0.391   2.864   5.455  0.0180  0.2937  0.3719
18569TIP3    H177122   0.429   2.933   5.401  1.6405 -1.0657 -0.3160
18569TIP3    H277123   0.466   2.827   5.502 -0.5683 -1.8001 -0.2246
18570TIP3   OH277124   6.678   4.157   2.146  0.6186  0.0649 -0.2487
18570TIP3    H177125   6.665   4.087   2.210  2.5567 -0.7754 -0.6990
18570TIP3    H277126   6.646   4.236   2.190 -3.1142 -1.2068 -0.2996
18571TIP3   OH277127   3.088   0.444   1.954 -0.1401 -0.5326 -0.1284
18571TIP3    H177128   3.178   0.463   1.930 -0.5828  0.6904 -0.9145
18571TIP3    H277129   3.093   0.416   2.045  1.1958 -1.9922 -0.6142
18572TIP3   OH277130   5.571   3.772  14.849  0.1845 -0.3002 -0.1161
18572TIP3    H177131   5.626   3.830  14.903 -1.2103  0.2555  0.7914
18572TIP3    H277132   5.570   3.689  14.896 -1.0822  0.2030  0.8157
18573TIP3   OH277133   1.147   3.904  13.141  0.1426 -0.4416 -0.0926
18573TIP3    H177134   1.129   3.908  13.235 -0.0658  0.3942 -0.1650
18573TIP3    H277135   1.242   3.913  13.133  0.0008  1.4037 -0.0566
18574TIP3   OH277136   0.575   5.004  16.315  0.1726  0.3643 -0.1839
18574TIP3    H177137   0.503   5.020  16.254 -0.4907  0.5786  0.6369
18574TIP3    H277138   0.563   5.069  16.384  2.2106  1.6234 -0.9246
18575TIP3   OH277139   3.535   1.776  11.250 -0.1664 -0.1985  0.5055
18575TIP3    H177140   3.443   1.753  11.231 -0.0278 -1.2479  1.0612
18575TIP3    H277141   3.583   1.693  11.239  0.8681  0.5146 -0.6508
18576TIP3   OH277142   2.938   5.129  12.749 -0.2576  0.1198  0.5639
18576TIP3    H177143   2.945   5.089  12.663 -2.3027 -1.1129  0.9045
18576TIP3    H277144   2.881   5.070  12.799  0.4425  1.0640  2.6020
18577TIP3   OH277145   5.556   2.461   4.778  0.0672 -0.2917 -0.0109
18577TIP3    H177146   5.496   2.386   4.783  0.1600 -0.3980 -0.4703
18577TIP3    H277147   5.611   2.443   4.702  1.2898 -0.6443  0.9132
18578TIP3   OH277148   0.221   6.639   2.592 -0.1025 -0.1374 -0.0701
18578TIP3    H177149   0.310   6.637   2.627 -0.7346 -0.1118  1.6220
18578TIP3    H277150   0.212   6.727   2.555  0.8117 -0.3999 -0.9568
18579TIP3   OH277151   3.188   0.704   0.210  0.3646  0.3738  0.5705
18579TIP3    H177152   3.223   0.734   0.126 -0.5737 -2.1756 -0.8757
18579TIP3    H277153   3.094   0.700   0.196  0.0355  1.4294  2.3334
18580TIP3   OH277154   4.950   5.536   1.522 -0.5688  0.4756  0.1704
18580TIP3    H177155   4.960   5.629   1.500  0.1656  0.9548  2.2545
18580TIP3    H277156   5.021   5.519   1.585 -1.4476 -1.1624  0.7709
18581TIP3   OH277157   4.753   1.379   0.807  0.2982  0.4320  0.4935
18581TIP3    H177158   4.818   1.373   0.736 -0.1955 -0.3791  0.1054
18581TIP3    H277159   4.674   1.410   0.764  0.3453  1.1954  0.9309
18582TIP3   OH277160   4.414   4.612   4.270 -1.0181  0.2390 -0.4530
18582TIP3    H177161   4.428   4.684   4.331 -1.3443 -0.8137  0.9060
18582TIP3    H277162   4.473   4.630   4.197 -0.6629  1.5574  0.1354
18583TIP3   OH277163   2.280   1.708   2.977  0.3528  0.6772 -0.5466
18583TIP3    H177164   2.281   1.704   2.881  1.9871  0.3448 -0.5416
18583TIP3    H277165   2.232   1.630   3.003  1.4710 -0.2420 -1.1001
18584TIP3   OH277166   2.538   2.733  15.581 -0.2492  0.0280  0.1624
18584TIP3    H177167   2.499   2.659  15.627  2.0877 -1.2766  0.2031
18584TIP3    H277168   2.531   2.711  15.488  0.6291 -0.3905  0.1805
18585TIP3   OH277169   5.980   5.281   0.100 -0.1896 -0.5657 -0.6399
18585TIP3    H177170   5.995   5.253   0.010 -0.8420 -0.7355 -0.7004
18585TIP3    H277171   6.059   5.255   0.147 -0.6179 -2.1907 -0.7589
18586TIP3   OH277172   6.407   3.916   3.682  0.5406 -0.5423 -0.1849
18586TIP3    H177173   6.391   3.926   3.588 -1.4264  1.2992  0.2695
18586TIP3    H277174   6.433   4.003   3.711  2.0949 -1.3261  0.8422
18587TIP3   OH277175   1.805   3.617   0.967  0.0985  0.0581 -0.3885
18587TIP3    H177176   1.801   3.711   0.980  0.0239  0.1598 -1.1144
18587TIP3    H277177   1.762   3.602   0.883 -1.8437 -0.8568  0.6903
18588TIP3   OH277178   3.745   4.648   3.183  0.0592 -0.8730 -0.7377
18588TIP3    H177179   3.780   4.682   3.265 -1.8161 -0.9075  0.1413
18588TIP3    H277180   3.786   4.563   3.172  0.1907 -0.9524  0.2804
18589TIP3   OH277181   1.282   4.696  13.931 -0.3820  0.4994 -0.6593
18589TIP3    H177182   1.308   4.786  13.950 -1.5675  1.2323 -2.2062
18589TIP3    H277183   1.199   4.705  13.884 -1.3539 -1.4903  0.5314
18590TIP3   OH277184   1.316   0.059  12.254  0.5502  0.8274 -0.0768
18590TIP3    H177185   1.306   0.062  12.159  0.2368  0.3850 -0.0631
18590TIP3    H277186   1.238   0.103  12.288 -0.4382 -0.9160  0.0004
18591TIP3   OH277187   1.600   5.905  12.193 -0.2657  0.2386 -0.1659
18591TIP3    H177188   1.652   5.826  12.208 -0.4671 -0.1375 -1.2862
18591TIP3    H277189   1.635   5.940  12.111 -0.8524  0.7545 -0.1996
18592TIP3   OH277190   6.483   6.267  12.509 -0.2088  0.4441  0.5141
18592TIP3    H177191   6.572   6.296  12.525  0.4308  0.7310 -2.8135
18592TIP3    H277192   6.492   6.191  12.452 -2.0618  0.5422  0.0049
18593TIP3   OH277193   6.551   4.079   6.745 -0.2285  0.1511  0.3109
18593TIP3    H177194   6.496   4.009   6.781 -0.4543  0.5764  0.8100
18593TIP3    H277195   6.627   4.034   6.710 -0.5193 -0.3758  0.3470
18594TIP3   OH277196   2.369   1.413   0.857  0.1960 -0.3587  0.0198
18594TIP3    H177197   2.369   1.493   0.909  1.6805 -0.8716  0.8696
18594TIP3    H277198   2.318   1.350   0.908 -1.5082  0.1866 -0.9442
18595TIP3   OH277199   2.531   4.645  13.680  0.1520 -0.4464  0.3502
18595TIP3    H177200   2.506   4.622  13.591  0.1810 -0.2807  0.2987
18595TIP3    H277201   2.450   4.676  13.721  0.5937  1.8857 -0.3847
18596TIP3   OH277202   2.468   6.702   1.531 -0.1669 -0.1760 -0.0777
18596TIP3    H177203   2.452   6.608   1.531  0.3423 -0.3016  1.6434
18596TIP3    H277204   2.536   6.715   1.597 -1.5674  1.5937  1.1465
18597TIP3   OH277205   0.349   4.704  15.888  0.8618 -0.3176 -0.1068
18597TIP3    H177206   0.400   4.753  15.824  0.9720  0.4750  0.5712
18597TIP3    H277207   0.283   4.766  15.920 -0.6054 -1.3348 -1.0111
18598TIP3   OH277208   3.893   4.294   4.518 -0.2099  0.0039 -0.2076
18598TIP3    H177209   3.892   4.236   4.595 -0.3619 -0.8832 -0.8558
18598TIP3    H277210   3.978   4.278   4.477 -0.5252 -0.2880 -0.7677
18599TIP3   OH277211   4.703   0.338   1.363 -0.2369  0.1709 -0.1377
18599TIP3    H177212   4.779   0.383   1.326 -0.8864 -0.1298 -1.9337
18599TIP3    H277213   4.740   0.264   1.411  0.7027  1.2288  0.8260
18600TIP3   OH277214   2.463   5.162   5.663  0.9340 -0.7854  0.2102
18600TIP3    H177215   2.434   5.077   5.697 -1.4394 -0.2556 -0.2966
18600TIP3    H277216   2.468   5.218   5.740  0.9161 -0.9780  0.3517
18601TIP3   OH277217   6.397   6.246  15.149  0.2746 -0.0486  0.2836
18601TIP3    H177218   6.305   6.222  15.149  0.5778 -1.3609 -0.9245
18601TIP3    H277219   6.398   6.341  15.139 -0.9441 -0.1310 -0.8237
18602TIP3   OH277220   5.086   1.683   1.252  0.0874  0.0954  0.0394
18602TIP3    H177221   5.094   1.642   1.338  0.4090  1.7355  0.8256
18602TIP3    H277222   5.009   1.643   1.213 -0.0319 -0.7098  1.0633
18603TIP3   OH277223   5.892   3.516   0.811  0.1092  0.2104  0.0626
18603TIP3    H177224   5.876   3.607   0.786 -0.8505  0.5387  1.7145
18603TIP3    H277225   5.960   3.522   0.878  0.8542 -0.4120 -0.6216
18604TIP3   OH277226   6.510   6.028   2.676 -0.4574 -0.2955 -0.2108
18604TIP3    H177227   6.563   6.035   2.756 -0.6429 -2.1880  0.1328
18604TIP3    H277228   6.421   6.014   2.708 -0.4723 -1.4639 -0.7241
18605TIP3   OH277229   2.930   4.674   4.243 -0.5814 -0.1313 -0.3294
18605TIP3    H177230   2.853   4.725   4.268 -0.5806 -0.7491  0.9725
18605TIP3    H277231   2.924   4.593   4.293  0.9305 -0.1855 -0.1724
18606TIP3   OH277232   2.142   1.930   0.730 -0.2519 -0.1697 -0.1420
18606TIP3    H177233   2.148   2.024   0.750 -2.1117  0.0698 -0.4942
18606TIP3    H277234   2.232   1.898   0.737  0.2457  1.3717  1.2851
18607TIP3   OH277235   3.361   6.430  17.174 -0.5411 -0.5165  0.2693
18607TIP3    H177236   3.446   6.388  17.157 -0.5456 -0.1170 -0.8087
18607TIP3    H277237   3.314   6.424  17.090 -0.8621  0.9086  0.3235
18608TIP3   OH277238   3.477   0.752  14.898 -0.0407  0.5140 -0.2850
18608TIP3    H177239   3.426   0.716  14.825 -0.0370 -0.7468  0.3145
18608TIP3    H277240   3.488   0.679  14.958  0.8272  1.2780  0.5148
18609TIP3   OH277241   5.051   3.731   4.532  0.4543 -0.6761  0.1776
18609TIP3    H177242   5.119   3.674   4.568 -0.0879  0.3825  3.1653
18609TIP3    H277243   4.969   3.688   4.556  0.0602 -0.2942 -0.4838
18610TIP3   OH277244   4.103   2.102   2.316 -0.1164 -0.0253 -0.3760
18610TIP3    H177245   4.154   2.154   2.378 -0.8844  2.2196 -1.5276
18610TIP3    H277246   4.042   2.053   2.371  0.2287  0.7442  0.7455
18611TIP3   OH277247   0.506   6.342  10.547 -0.3704  0.3303 -0.6883
18611TIP3    H177248   0.505   6.246  10.540  1.3549  0.3508 -1.7515
18611TIP3    H277249   0.593   6.362  10.581 -1.0862  1.4969  0.5395
18612TIP3   OH277250   2.015   5.207  11.641 -0.1453 -0.1819  0.6347
18612TIP3    H177251   2.063   5.279  11.601  1.0612 -1.1225  0.3116
18612TIP3    H277252   1.954   5.249  11.701 -1.4649  1.2493 -1.5813
18613TIP3   OH277253   0.503   5.569  13.241  0.6042 -0.3931 -0.1062
18613TIP3    H177254   0.581   5.604  13.199  0.8512 -0.8388 -0.0275
18613TIP3    H277255   0.465   5.510  13.176 -0.8083  1.3337 -0.9407
18614TIP3   OH277256   5.077   0.043  15.253  0.1467  0.4135 -0.3204
18614TIP3    H177257   5.072   0.085  15.339 -0.6205  0.2715 -0.2871
18614TIP3    H277258   5.136   0.099  15.203  1.1152  0.1531  0.4812
18615TIP3   OH277259   4.475   6.595  14.258 -0.2550  0.3276 -0.5223
18615TIP3    H177260   4.562   6.624  14.232 -0.4361 -0.1311 -1.7129
18615TIP3    H277261   4.469   6.505  14.225  0.0751 -0.9448  2.5690
18616TIP3   OH277262   6.160   6.487  14.875  0.1565  0.0609  0.1601
18616TIP3    H177263   6.148   6.462  14.966  0.7190 -0.4520  0.0982
18616TIP3    H277264   6.255   6.491  14.863  0.1558 -1.9557 -0.9473
18617TIP3   OH277265   0.496   0.028  14.183 -0.0345 -0.6195  0.1547
18617TIP3    H177266   0.579  -0.014  14.206 -0.4995 -1.7592 -0.1862
18617TIP3    H277267   0.448  -0.039  14.136 -1.3941 -0.1704  0.8614
18618TIP3   OH277268   6.344   3.792  12.405  0.6246 -0.3583 -0.5253
18618TIP3    H177269   6.316   3.818  12.318  1.6448 -1.2150 -1.1334
18618TIP3    H277270   6.299   3.852  12.464 -1.7698 -1.1211 -1.4742
18619TIP3   OH277271   4.147   0.411  13.621  0.2253 -0.2304  0.2313
18619TIP3    H177272   4.124   0.320  13.643  1.2674 -0.9767 -1.5226
18619TIP3    H277273   4.235   0.422  13.656 -0.0206  0.2497  0.7263
18620TIP3   OH277274   3.164   3.515  14.604 -0.1171  0.0827 -0.3173
18620TIP3    H177275   3.144   3.550  14.517  0.0091 -0.9681 -0.7876
18620TIP3    H277276   3.098   3.447  14.619  0.3959 -0.3462  0.0321
18621TIP3   OH277277   2.781   3.462   3.783 -0.0620  0.3629 -0.3110
18621TIP3    H177278   2.804   3.393   3.720 -2.7703 -0.1782 -0.8426
18621TIP3    H277279   2.754   3.414   3.861  2.9572  1.0258  1.2854
18622TIP3   OH277280   0.333   5.513  13.036  0.4626 -0.0340 -0.1280
18622TIP3    H177281   0.369   5.589  12.990  1.5415 -0.1484  0.4923
18622TIP3    H277282   0.242   5.537  13.054  0.5923  0.8251 -0.5541
18623TIP3   OH277283   4.498   1.009  14.057  0.7464 -0.5019  0.1104
18623TIP3    H177284   4.418   0.989  14.106  1.0450 -1.0227  0.3880
18623TIP3    H277285   4.480   1.095  14.017  0.2818 -0.3332  0.6611
18624TIP3   OH277286   2.793   3.745  16.212 -0.6933 -0.3312 -0.1850
18624TIP3    H177287   2.865   3.807  16.226  0.2643 -1.3949 -0.2628
18624TIP3    H277288   2.835   3.666  16.180 -1.8017 -1.3065  0.6739
18625TIP3   OH277289   5.675   4.140   4.915  0.1358 -0.9447  0.8561
18625TIP3    H177290   5.597   4.191   4.938  0.0540 -0.4341 -0.4648
18625TIP3    H277291   5.643   4.070   4.858  0.2937 -2.3401  2.4089
18626TIP3   OH277292   6.187   0.653  11.070 -0.1702 -0.3955  0.4463
18626TIP3    H177293   6.132   0.704  11.011  1.4970  0.0238 -0.8192
18626TIP3    H277294   6.240   0.598  11.013 -0.6053 -2.2267  1.7136
18627TIP3   OH277295   3.805   0.664   3.863  0.3962 -0.0554  0.1382
18627TIP3    H177296   3.733   0.714   3.902 -0.2932  1.1232 -2.4235
18627TIP3    H277297   3.769   0.633   3.780  1.9158 -2.0438  0.1718
18628TIP3   OH277298   2.601   1.862   3.430  0.4537  0.8459  0.6637
18628TIP3    H177299   2.692   1.847   3.406 -0.4676 -1.6126 -1.8717
18628TIP3    H277300   2.561   1.898   3.351 -1.1100  0.2801  1.1599
18629TIP3   OH277301   2.789   0.050   1.645 -0.0817 -0.0872 -0.2590
18629TIP3    H177302   2.819   0.108   1.715 -1.6207  0.4108  0.0280
18629TIP3    H277303   2.850  -0.024   1.648  1.0695  0.8485  0.2857
18630TIP3   OH277304   1.755   3.604   2.262 -0.3632 -0.3898 -0.1785
18630TIP3    H177305   1.718   3.515   2.260 -1.4508 -0.0696  2.1518
18630TIP3    H277306   1.755   3.627   2.355 -0.1797  2.0968 -0.7390
18631TIP3   OH277307   5.990   4.596  14.298 -0.0681  0.3416 -0.3102
18631TIP3    H177308   5.963   4.629  14.212 -2.1224  1.0371  0.5341
18631TIP3    H277309   6.071   4.643  14.318  0.1726  0.5276 -1.6422
18632TIP3   OH277310   6.670   3.128  16.360  0.6072 -0.2019 -0.2919
18632TIP3    H177311   6.695   3.109  16.451  0.4798 -0.2859 -0.2741
18632TIP3    H277312   6.663   3.224  16.357 -2.7679 -0.2698  0.7172
18633TIP3   OH277313   3.987   3.658   2.244  0.1628  0.3127 -0.3864
18633TIP3    H177314   3.896   3.670   2.272  0.7113  3.1777  0.5970
18633TIP3    H277315   3.986   3.678   2.150 -0.3539 -0.6440 -0.5920
18634TIP3   OH277316   0.739   0.254  11.442 -0.0029  0.1970 -0.3756
18634TIP3    H177317   0.672   0.203  11.487 -0.4089  1.1482  0.1236
18634TIP3    H277318   0.814   0.195  11.437 -0.3506 -0.3385  0.4699
18635TIP3   OH277319   2.589   0.833   2.610  0.3516  0.3028 -0.3843
18635TIP3    H177320   2.674   0.848   2.568  0.0277  0.6198 -0.9459
18635TIP3    H277321   2.569   0.916   2.652  0.7683 -0.0768  0.5933
18636TIP3   OH277322   1.286   6.543  13.088  0.1100 -0.6661 -0.3221
18636TIP3    H177323   1.194   6.546  13.063  0.5489 -0.1993 -2.0787
18636TIP3    H277324   1.333   6.541  13.005  1.7181  0.3756  0.4925
18637TIP3   OH277325   0.383   3.932  17.538 -0.2353 -0.4617  0.3674
18637TIP3    H177326   0.476   3.955  17.529 -0.7368  1.9027  0.5747
18637TIP3    H277327   0.370   3.923  17.632 -0.1957 -0.8650  0.3330
18638TIP3   OH277328   2.829   3.671  15.180  0.3448  0.6156 -0.2619
18638TIP3    H177329   2.784   3.641  15.102 -0.3041  0.7965  0.0299
18638TIP3    H277330   2.771   3.738  15.216  1.2092  1.3898 -0.2778
18639TIP3   OH277331   5.026   2.677   4.215  0.0570 -0.5313  0.4035
18639TIP3    H177332   5.088   2.612   4.181 -1.3826 -1.7823  0.0784
18639TIP3    H277333   5.033   2.750   4.154  2.6743  0.2791  1.5019
18640TIP3   OH277334   2.714   4.479  13.172 -0.3555  0.1596 -0.2094
18640TIP3    H177335   2.707   4.573  13.183 -1.4548  0.1362 -0.6082
18640TIP3    H277336   2.756   4.468  13.086 -1.4844  0.2978 -0.7985
18641TIP3   OH277337   1.435   6.223  11.206  0.0579 -0.3165  0.0134
18641TIP3    H177338   1.450   6.253  11.117  0.3702 -0.3839  0.0424
18641TIP3    H277339   1.512   6.251  11.255 -0.9379  1.4053  0.7013
18642TIP3   OH277340   4.017   2.793  14.840  0.3899 -0.0480 -0.3199
18642TIP3    H177341   4.072   2.797  14.918  1.7120  0.2016 -1.2241
18642TIP3    H277342   3.951   2.861  14.853  1.3546  0.8438  0.0330
18643TIP3   OH277343   0.002   3.426  14.988 -0.5083  0.8257 -0.0898
18643TIP3    H177344  -0.047   3.362  15.041  1.3490 -1.5059 -0.9871
18643TIP3    H277345  -0.057   3.500  14.979 -2.8792 -0.8196  0.9090
18644TIP3   OH277346   0.064   1.298   3.386  0.6174  0.2822 -0.1011
18644TIP3    H177347   0.153   1.305   3.421  0.6269  0.1198 -0.0907
18644TIP3    H277348   0.069   1.341   3.300  0.5130  0.9735  0.2359
18645TIP3   OH277349   1.025   4.773  15.192 -0.3075  0.3325  0.6739
18645TIP3    H177350   1.050   4.866  15.184  3.4103 -0.5141  0.6827
18645TIP3    H277351   1.097   4.733  15.240 -1.0327 -2.8708 -0.6703
18646TIP3   OH277352   2.320   1.636   2.702 -0.2787  0.2359  0.7929
18646TIP3    H177353   2.361   1.557   2.666 -0.8392 -0.9800  2.6870
18646TIP3    H277354   2.238   1.644   2.653 -0.5395 -0.7671  1.0413
18647TIP3   OH277355   6.546   0.727  14.535  0.4871 -0.5352  0.2089
18647TIP3    H177356   6.528   0.641  14.499 -3.0970  0.7049 -1.3959
18647TIP3    H277357   6.532   0.718  14.630  0.7959 -1.8068  0.1443
18648TIP3   OH277358   0.047   5.071   2.865  0.7779  0.9806  0.6496
18648TIP3    H177359   0.120   5.017   2.895  2.4478  2.0603 -1.2089
18648TIP3    H277360   0.046   5.061   2.770 -2.5080 -0.1461  0.6788
18649TIP3   OH277361   0.042   3.739  13.152 -0.5338 -0.2656 -0.3343
18649TIP3    H177362  -0.041   3.788  13.155 -1.0878 -1.1611 -0.5388
18649TIP3    H277363   0.072   3.738  13.242 -1.8291 -1.6947  0.1284
18650TIP3   OH277364   2.824   3.965   2.636 -0.1561 -0.0327  1.1600
18650TIP3    H177365   2.879   3.925   2.703  0.0766  0.4361  1.2509
18650TIP3    H277366   2.759   3.898   2.615  1.1610 -1.0606  0.1918
18651TIP3   OH277367   5.165   5.310   5.159 -0.1547  0.1351  0.8643
18651TIP3    H177368   5.108   5.234   5.156  0.8095 -0.7005  2.3712
18651TIP3    H277369   5.202   5.309   5.248  1.6596  1.0249  0.1691
18652TIP3   OH277370   5.701   4.518  12.790 -0.3383  0.5656 -0.3778
18652TIP3    H177371   5.780   4.493  12.839  0.0145 -0.0567 -1.2346
18652TIP3    H277372   5.634   4.530  12.858 -0.1113 -1.2145  0.2156
18653TIP3   OH277373   1.048   5.097   5.907 -0.5690 -0.1369 -0.3130
18653TIP3    H177374   1.138   5.107   5.936 -0.5658 -0.1444 -0.3201
18653TIP3    H277375   1.005   5.180   5.929 -0.8243 -0.5130  0.6265
18654TIP3   OH277376   1.693   1.258  15.443 -0.6463 -0.2073  0.1059
18654TIP3    H177377   1.692   1.180  15.500 -0.0107 -0.8158 -0.6889
18654TIP3    H277378   1.638   1.322  15.489 -0.8918 -0.9985  0.9507
18655TIP3   OH277379   5.807   0.145  17.074 -0.2254  0.1633  0.0419
18655TIP3    H177380   5.861   0.196  17.135 -0.4872  1.0437 -0.4517
18655TIP3    H277381   5.863   0.130  16.999 -0.0586 -0.5277  0.2959
18656TIP3   OH277382   6.010   6.312   1.391  0.0852  0.5482  0.1617
18656TIP3    H177383   6.021   6.302   1.297  2.4819 -0.8711  0.4971
18656TIP3    H277384   6.080   6.373   1.417  0.6432 -0.4663  1.1912
18657TIP3   OH277385   0.528   6.025  14.666  0.3669  0.4642  0.1532
18657TIP3    H177386   0.444   5.981  14.679  0.5417 -0.6470 -1.9609
18657TIP3    H277387   0.505   6.117  14.655 -0.5480  0.2338  0.0603
18658TIP3   OH277388   4.726   0.842  11.290 -0.2294 -0.4256 -0.2708
18658TIP3    H177389   4.751   0.826  11.199 -0.5551 -1.6780 -0.1477
18658TIP3    H277390   4.809   0.847  11.337 -0.0883 -0.6587 -0.4924
18659TIP3   OH277391   3.353   2.515  15.478 -0.2258  0.1079  0.4322
18659TIP3    H177392   3.345   2.423  15.501 -0.2820  0.5221  2.1555
18659TIP3    H277393   3.421   2.517  15.410 -0.9244 -1.2787 -0.3448
18660TIP3   OH277394   2.980   1.326   2.416  0.2701 -0.0581  0.1757
18660TIP3    H177395   3.034   1.385   2.363  1.1283 -2.5441 -1.9295
18660TIP3    H277396   2.892   1.334   2.379  0.5459 -0.6293 -0.6303
18661TIP3   OH277397   4.973   5.312   1.339  0.2474 -0.0867 -0.7474
18661TIP3    H177398   4.908   5.382   1.337 -0.6774 -0.9472 -2.2113
18661TIP3    H277399   5.057   5.356   1.324  0.1244  1.0868  1.5136
18662TIP3   OH277400   0.141   4.865  17.176 -0.4095  0.1481  0.0954
18662TIP3    H177401   0.100   4.901  17.254 -1.6905  1.9295 -1.3202
18662TIP3    H277402   0.087   4.788  17.155 -0.0966 -0.3066  0.8918
18663TIP3   OH277403   3.715   6.401  16.693 -0.0989 -0.0943 -0.1503
18663TIP3    H177404   3.668   6.317  16.690  0.8920 -0.6757  0.0547
18663TIP3    H277405   3.679   6.451  16.620 -1.7009 -0.1361  0.5574
18664TIP3   OH277406   6.472   6.289  13.510  0.1050  0.3390 -0.2031
18664TIP3    H177407   6.464   6.257  13.599 -0.6668 -0.1517 -0.4335
18664TIP3    H277408   6.483   6.211  13.456 -0.8083  0.5058 -0.6679
18665TIP3   OH277409   2.314   0.219   3.168  0.6197 -0.0278 -0.1833
18665TIP3    H177410   2.306   0.132   3.207 -2.3428 -0.2090 -0.9033
18665TIP3    H277411   2.329   0.277   3.243  2.3278 -1.0581  0.3395
18666TIP3   OH277412   0.041   1.016   3.326  0.1410 -0.2336  0.0459
18666TIP3    H177413   0.019   1.027   3.234  0.1797 -0.1428  0.0473
18666TIP3    H277414   0.064   1.104   3.356  2.0447 -0.5464 -0.3460
18667TIP3   OH277415   2.890   5.221   0.106 -0.2315  0.1468  0.3499
18667TIP3    H177416   2.803   5.259   0.122 -0.0260  0.5204  0.5837
18667TIP3    H277417   2.882   5.180   0.020 -0.8058 -0.2934  0.6067
18668TIP3   OH277418   2.168   0.976  12.972 -0.2790  0.0315 -0.3851
18668TIP3    H177419   2.078   0.998  12.996  0.6043  1.0795  2.3482
18668TIP3    H277420   2.196   1.048  12.917 -0.9397 -0.0511 -0.8434
18669TIP3   OH277421   5.966   0.568  17.416  0.3430  0.4277  0.2438
18669TIP3    H177422   6.043   0.560  17.359 -0.6500 -1.4399 -0.9297
18669TIP3    H277423   6.003   0.573  17.505  1.8320  0.0948 -0.3286
18670TIP3   OH277424   2.771   4.173  13.583  0.3550  0.0371  0.1757
18670TIP3    H177425   2.774   4.137  13.494  1.3655  0.5252 -0.0018
18670TIP3    H277426   2.741   4.100  13.637 -0.3965 -0.2276 -0.5765
18671TIP3   OH277427   1.987   0.751  17.502 -0.0390  0.2392  0.1157
18671TIP3    H177428   1.908   0.763  17.555  0.0670 -0.3974  0.4254
18671TIP3    H277429   1.997   0.656  17.496  0.2827  0.3115 -0.5547
18672TIP3   OH277430   2.591   1.340   2.043  0.3805  0.3219  0.1522
18672TIP3    H177431   2.577   1.385   1.960 -0.7334 -1.2164 -0.5372
18672TIP3    H277432   2.547   1.396   2.108 -0.7332  0.3920 -0.6371
18673TIP3   OH277433   4.345   2.877  10.288 -0.4928 -0.4862 -0.5561
18673TIP3    H177434   4.430   2.912  10.261 -0.9033  0.4681 -0.6640
18673TIP3    H277435   4.334   2.905  10.379 -1.6168  1.2931 -1.1886
18674TIP3   OH277436   0.512   1.475  15.177  0.3251 -0.2519 -0.5671
18674TIP3    H177437   0.516   1.565  15.210  0.7400 -0.2341 -0.6671
18674TIP3    H277438   0.441   1.477  15.111  0.0853 -0.0871 -0.3072
18675TIP3   OH277439   4.563   2.736   1.354 -0.3056  0.1258 -0.3519
18675TIP3    H177440   4.503   2.666   1.380 -1.4996  1.4795  0.7541
18675TIP3    H277441   4.610   2.758   1.435 -0.5286  1.1385 -0.4875
18676TIP3   OH277442   5.530   0.984  13.839  0.7405 -0.0258 -0.3415
18676TIP3    H177443   5.600   1.046  13.819 -0.0273  0.3461 -2.0137
18676TIP3    H277444   5.455   1.039  13.858  0.3358 -0.4302 -0.7528
18677TIP3   OH277445   0.610   4.548  12.451 -0.2735  0.1338  0.1514
18677TIP3    H177446   0.681   4.595  12.496  0.1725 -0.3135 -0.0686
18677TIP3    H277447   0.626   4.456  12.472  0.7518 -0.2402 -1.9990
18678TIP3   OH277448   1.440   1.307  10.682 -0.1759  0.1127 -0.3012
18678TIP3    H177449   1.390   1.370  10.734 -0.4584 -0.4304  0.0948
18678TIP3    H277450   1.524   1.299  10.728 -1.0442 -1.6684  1.1109
18679TIP3   OH277451   2.365   2.908   4.843  0.0902  0.3212  0.4384
18679TIP3    H177452   2.300   2.866   4.787 -0.5211  0.4566  1.0348
18679TIP3    H277453   2.356   3.001   4.824  0.0673  0.3449  0.5657
18680TIP3   OH277454   4.470   5.405   4.467 -0.1047 -0.4351 -0.5045
18680TIP3    H177455   4.377   5.397   4.448 -0.9571 -0.4837  2.9853
18680TIP3    H277456   4.480   5.369   4.555  2.9268  1.0804 -0.0824
18681TIP3   OH277457   4.101   2.029  11.266  0.6410 -0.0145  0.1525
18681TIP3    H177458   4.064   2.086  11.199 -1.2029 -2.1789 -0.7956
18681TIP3    H277459   4.028   2.013  11.326 -0.0075 -3.9339 -1.4335
18682TIP3   OH277460   6.166   0.357   0.581  0.0642  0.5340  0.2087
18682TIP3    H177461   6.143   0.441   0.541 -0.0612  0.4417  0.0875
18682TIP3    H277462   6.259   0.365   0.603 -0.1520  1.0285  0.9765
18683TIP3   OH277463   5.510   3.915   5.385 -0.1536 -0.1386  0.2198
18683TIP3    H177464   5.582   3.917   5.321 -1.1465  0.4574 -0.9048
18683TIP3    H277465   5.431   3.913   5.332 -1.0131  0.4067  1.4452
18684TIP3   OH277466   5.620   4.168  15.790 -0.4096 -0.0051  0.0642
18684TIP3    H177467   5.550   4.231  15.771 -0.5045 -0.4588 -1.2151
18684TIP3    H277468   5.575   4.097  15.837 -0.6118  0.1699  0.1378
18685TIP3   OH277469   0.692   2.259  13.633 -0.3585 -0.3281  0.6666
18685TIP3    H177470   0.679   2.336  13.578 -0.0650 -0.4902  0.3681
18685TIP3    H277471   0.621   2.264  13.698 -1.6319 -0.9477 -0.6292
18686TIP3   OH277472   2.720   1.459   3.053 -0.3050 -0.1141 -0.6346
18686TIP3    H177473   2.665   1.503   2.988 -0.2007 -0.3090 -0.8574
18686TIP3    H277474   2.661   1.439   3.125  0.2958  3.5174  1.0608
18687TIP3   OH277475   5.652   0.951  15.581 -0.0249 -0.3114 -0.0433
18687TIP3    H177476   5.682   0.985  15.665 -1.1453  0.3771  0.1024
18687TIP3    H277477   5.606   0.870  15.603 -1.1957  0.3763  0.1656
18688TIP3   OH277478   5.006   1.175   2.638 -0.2800  0.2526 -0.4404
18688TIP3    H177479   5.053   1.222   2.570  3.2835 -1.9483  0.2449
18688TIP3    H277480   5.058   1.188   2.717 -2.0898 -0.5443  0.9679
18689TIP3   OH277481   2.747   2.497   2.774  0.5395  0.0567 -0.3309
18689TIP3    H177482   2.749   2.593   2.765 -0.6922  0.2789  1.2299
18689TIP3    H277483   2.804   2.465   2.704  1.8079  1.9684 -0.2522
18690TIP3   OH277484   0.539   1.674  13.129  0.2252 -0.1432  0.0910
18690TIP3    H177485   0.484   1.690  13.053  1.5364 -1.7799 -1.2741
18690TIP3    H277486   0.619   1.723  13.111  0.7667 -0.9937  0.1215
18691TIP3   OH277487   6.151   2.402   3.539 -0.5926  0.0309  0.3170
18691TIP3    H177488   6.083   2.467   3.558  0.0101  1.0506 -0.9035
18691TIP3    H277489   6.205   2.442   3.471  0.0462 -1.5858 -0.1807
18692TIP3   OH277490   3.617   2.008  13.494  0.3646  0.2643  0.5138
18692TIP3    H177491   3.575   2.042  13.416 -0.2788 -0.9719  0.2958
18692TIP3    H277492   3.633   2.085  13.549  0.4803  1.0945 -0.6536
18693TIP3   OH277493   4.226   4.101   2.265 -0.0517  0.3085 -0.0369
18693TIP3    H177494   4.140   4.108   2.224 -0.2454  0.7945  0.4492
18693TIP3    H277495   4.274   4.039   2.209 -0.2940  0.9814 -1.0301
18694TIP3   OH277496   3.008   1.962  12.317  0.0521  0.3509 -0.0124
18694TIP3    H177497   3.096   1.997  12.327 -0.2039  1.2522 -0.8004
18694TIP3    H277498   3.013   1.874  12.356  1.3205  0.3392 -0.1529
18695TIP3   OH277499   6.250   1.714   2.342  0.2680 -0.0784 -0.2052
18695TIP3    H177500   6.337   1.754   2.347 -0.3715  1.5492 -1.0639
18695TIP3    H277501   6.244   1.681   2.252 -0.0659  0.0379 -0.2310
18696TIP3   OH277502   4.888   5.113   3.872  0.6590  0.0993  0.6455
18696TIP3    H177503   4.894   5.138   3.964  1.5651 -1.3107  1.0086
18696TIP3    H277504   4.977   5.086   3.849  0.4387  0.4313 -0.6425
18697TIP3   OH277505   3.178   3.606  16.049  1.0158 -0.4182  0.3124
18697TIP3    H177506   3.261   3.587  16.005  1.6586 -0.0119  1.2949
18697TIP3    H277507   3.111   3.572  15.990  1.9367 -2.1610  0.2107
18698TIP3   OH277508   0.447   5.978   4.331  0.3113 -0.4071 -0.2247
18698TIP3    H177509   0.456   5.980   4.426 -0.5746  1.4257 -0.1497
18698TIP3    H277510   0.536   5.991   4.298  0.3458  1.0102  0.3753
18699TIP3   OH277511   3.532   2.212   1.278  0.4973 -0.5802  0.1675
18699TIP3    H177512   3.595   2.175   1.341  1.9110 -0.3268 -1.0578
18699TIP3    H277513   3.562   2.180   1.193 -0.6114  0.1712 -0.5232
18700TIP3   OH277514   3.834   6.400   2.149  0.0729  0.0973  0.5440
18700TIP3    H177515   3.887   6.465   2.194  0.0109  0.8896 -0.4809
18700TIP3    H277516   3.782   6.359   2.217  2.1864 -0.9036  1.6423
18701TIP3   OH277517   5.958   3.791   2.460  0.5477 -0.1929 -0.4675
18701TIP3    H177518   5.916   3.833   2.384  1.5016 -1.1584 -1.5759
18701TIP3    H277519   5.886   3.772   2.520 -0.1918  0.8918 -0.9792
18702TIP3   OH277520   5.452   5.261  12.680  0.1649  0.0435 -0.6564
18702TIP3    H177521   5.374   5.250  12.626  0.2064 -0.3485 -0.6377
18702TIP3    H277522   5.525   5.243  12.621  0.3781  2.6560 -1.3074
18703TIP3   OH277523   2.987   4.765   3.400 -0.2821  0.2938 -0.2397
18703TIP3    H177524   3.020   4.849   3.432  1.2672 -0.4300  0.1275
18703TIP3    H277525   2.988   4.774   3.304 -0.0331  0.6589 -0.2024
18704TIP3   OH277526   5.699   2.803  12.127  0.1901  0.1574  0.3725
18704TIP3    H177527   5.606   2.807  12.104 -0.3039 -0.8254  1.9999
18704TIP3    H277528   5.730   2.722  12.088  0.1324  0.0347  0.5806
18705TIP3   OH277529   1.876   2.615   0.444  0.4414  0.3592 -0.1612
18705TIP3    H177530   1.789   2.603   0.480 -0.3565  1.2365 -1.7135
18705TIP3    H277531   1.864   2.613   0.349  1.8735  1.9156 -0.4345
18706TIP3   OH277532   4.646   6.296  15.599  0.0709 -0.6869 -0.4276
18706TIP3    H177533   4.661   6.352  15.675 -0.3037  1.1727 -1.6604
18706TIP3    H277534   4.698   6.217  15.617  0.7281  0.0920  1.3120
18707TIP3   OH277535   0.955   4.963   5.246 -0.0251  0.3447  0.2864
18707TIP3    H177536   0.869   4.933   5.216  0.0253 -0.2171  0.6800
18707TIP3    H277537   0.981   5.030   5.183 -0.1521 -0.4385 -0.6212
18708TIP3   OH277538   0.753   1.880  13.081  0.0891  0.5459 -0.0668
18708TIP3    H177539   0.746   1.975  13.070  0.8072  0.6389  0.2010
18708TIP3    H277540   0.847   1.862  13.074 -0.1925 -0.3865 -1.9044
18709TIP3   OH277541   5.756   1.822  16.054  0.6365  0.3135 -0.0881
18709TIP3    H177542   5.831   1.864  16.012  0.6738  0.4013  0.0677
18709TIP3    H277543   5.682   1.843  15.996  0.8484 -0.3599 -0.6234
18710TIP3   OH277544   2.584   0.997   3.387 -0.3221 -0.4847 -0.0187
18710TIP3    H177545   2.632   1.018   3.467  0.6802 -0.8271 -0.5222
18710TIP3    H277546   2.651   0.985   3.321 -1.1532 -0.0700 -0.9571
18711TIP3   OH277547   2.071   4.740  16.237  0.0316 -0.3362 -0.1995
18711TIP3    H177548   2.165   4.729  16.224  0.2096  0.0370  0.7208
18711TIP3    H277549   2.052   4.695  16.319 -0.5578 -0.2572 -0.2889
18712TIP3   OH277550   0.945   3.221  12.977 -0.3811 -0.8561  0.2608
18712TIP3    H177551   0.956   3.305  12.934 -0.7356 -0.0697  1.6428
18712TIP3    H277552   1.010   3.164  12.936  1.2595  0.6434  0.6853
18713TIP3   OH277553   3.678   2.556   6.476 -0.1923  0.3535 -0.6586
18713TIP3    H177554   3.756   2.518   6.435 -0.1532 -0.0110 -0.2516
18713TIP3    H277555   3.711   2.632   6.523  0.4229 -1.2864  1.7783
18714TIP3   OH277556   2.864   1.364  12.918  0.3703 -0.1268 -0.6001
18714TIP3    H177557   2.772   1.380  12.897 -0.1636 -2.1428 -0.0031
18714TIP3    H277558   2.888   1.436  12.977 -0.7135  0.6092 -1.0253
18715TIP3   OH277559   4.528   1.752   5.820  0.1537  0.2905 -0.2005
18715TIP3    H177560   4.540   1.847   5.820 -0.5101  0.3845 -1.1839
18715TIP3    H277561   4.443   1.738   5.862 -0.4608  0.2505 -1.4175
18716TIP3   OH277562   3.445   5.024  15.026 -0.7679 -0.0148  0.0441
18716TIP3    H177563   3.398   4.943  15.003  1.0430 -1.2314  0.4856
18716TIP3    H277564   3.464   5.065  14.941 -0.2942 -0.8866 -0.2821
18717TIP3   OH277565   2.659   1.381   0.296 -0.5104  0.1960 -0.7223
18717TIP3    H177566   2.627   1.455   0.243 -0.5742  0.4592 -0.3229
18717TIP3    H277567   2.583   1.326   0.309 -0.5578  0.2683 -0.6880
18718TIP3   OH277568   1.368   6.213   5.842  0.8686  0.8883 -0.1225
18718TIP3    H177569   1.399   6.283   5.898  0.8515 -1.1673  2.6554
18718TIP3    H277570   1.273   6.211   5.856  0.6615  1.2235 -1.3532
18719TIP3   OH277571   6.081   2.990   2.773  0.2930 -0.4762 -0.0287
18719TIP3    H177572   5.985   2.988   2.765 -0.0000  0.6574  2.2738
18719TIP3    H277573   6.108   2.900   2.757 -0.8749 -0.4658 -2.7960
18720TIP3   OH277574   6.598   3.360   3.859 -1.0169 -0.0937  0.2868
18720TIP3    H177575   6.578   3.449   3.890  0.5962 -0.3508  2.2861
18720TIP3    H277576   6.624   3.373   3.768 -0.8545  1.5202  0.5177
18721TIP3   OH277577   3.203   2.774   4.758  0.3497 -0.6081  0.2185
18721TIP3    H177578   3.230   2.691   4.797 -0.6189 -0.7642  0.5971
18721TIP3    H277579   3.187   2.754   4.666  0.3518 -0.7860  0.2574
18722TIP3   OH277580   1.388   0.167   2.740  0.4634 -0.2119  0.0146
18722TIP3    H177581   1.435   0.206   2.814 -0.1056 -0.1389  0.3476
18722TIP3    H277582   1.316   0.118   2.781 -0.9805  1.3358 -0.5307
18723TIP3   OH277583   0.081   3.235  15.949  0.1327 -0.1764 -0.2491
18723TIP3    H177584   0.137   3.305  15.916 -0.3128 -0.2624 -1.2180
18723TIP3    H277585   0.014   3.280  16.001 -0.7630  0.2581 -1.7032
18724TIP3   OH277586   2.319   3.516  12.114 -0.2590  0.6962  0.5608
18724TIP3    H177587   2.224   3.522  12.122 -0.4288  2.8281 -1.7993
18724TIP3    H277588   2.333   3.491  12.022  1.4429  2.1927  0.3698
18725TIP3   OH277589   4.760   2.067  11.960  0.4766  0.2907  0.0468
18725TIP3    H177590   4.744   1.972  11.959  0.9972  0.1393  2.2342
18725TIP3    H277591   4.851   2.075  11.988 -0.1480  1.4763  1.8340
18726TIP3   OH277592   2.231   0.131  14.633 -0.2060  0.6447 -0.3583
18726TIP3    H177593   2.208   0.210  14.681  1.8380  1.7077 -0.9877
18726TIP3    H277594   2.292   0.084  14.690 -0.4289  0.1707 -0.5054
18727TIP3   OH277595   0.671   4.751  15.545  0.4100 -0.0847  0.2283
18727TIP3    H177596   0.602   4.689  15.569 -1.9374  2.6003  0.8644
18727TIP3    H277597   0.725   4.758  15.624 -1.4866  1.3379  1.4739
18728TIP3   OH277598   5.678   2.576   3.130  0.0390  0.4739  0.3543
18728TIP3    H177599   5.747   2.544   3.189  1.1216  0.9036 -0.6635
18728TIP3    H277600   5.690   2.671   3.127 -1.4697  0.7313  1.2247
18729TIP3   OH277601   5.474   0.385  14.631  0.2841  0.5391  0.3636
18729TIP3    H177602   5.552   0.437  14.615  0.5677  0.6498  1.9543
18729TIP3    H277603   5.401   0.438  14.598  0.7718  0.9403 -0.0668
18730TIP3   OH277604   2.226   3.050   2.369 -0.6956  0.0464  0.3056
18730TIP3    H177605   2.249   2.987   2.437 -0.8810  0.5134  0.8179
18730TIP3    H277606   2.230   3.135   2.414 -1.9933  0.2595  0.0407
18731TIP3   OH277607   0.991   1.442   5.858  0.3560  0.3324  0.4129
18731TIP3    H177608   0.945   1.363   5.886  0.2273 -0.7655 -2.4905
18731TIP3    H277609   1.083   1.416   5.855  0.6217  1.0642  1.6990
18732TIP3   OH277610   4.432   5.990   4.578  0.0661 -0.2914  0.1527
18732TIP3    H177611   4.483   5.972   4.499 -0.0953 -0.1470  0.0147
18732TIP3    H277612   4.353   5.937   4.568  0.0461 -0.2737  0.2180
18733TIP3   OH277613   5.737   5.076   5.532 -0.1296 -0.3446 -0.3568
18733TIP3    H177614   5.678   5.005   5.509 -0.4849 -0.0069 -0.4987
18733TIP3    H277615   5.738   5.077   5.628 -0.2628 -0.4283 -0.3547
18734TIP3   OH277616   4.744   4.770  12.261  0.3268  0.2532  0.0307
18734TIP3    H177617   4.712   4.713  12.331  1.3528 -1.3090 -0.7267
18734TIP3    H277618   4.839   4.771  12.272  0.6253 -0.9840 -1.9891
18735TIP3   OH277619   2.839   0.872   5.613  0.1553 -0.3589 -0.1411
18735TIP3    H177620   2.838   0.883   5.708 -0.1651 -1.4075 -0.0098
18735TIP3    H277621   2.913   0.815   5.596 -0.2357 -0.7843 -0.4455
18736TIP3   OH277622   6.110   1.084  14.433 -0.6173  0.1548  0.0984
18736TIP3    H177623   6.201   1.069  14.408 -1.1416 -0.9919 -1.2555
18736TIP3    H277624   6.104   1.052  14.523 -0.1989 -1.9780 -0.5832
18737TIP3   OH277625   0.190   3.085  14.497 -0.6481  0.0101 -0.1087
18737TIP3    H177626   0.278   3.114  14.521 -1.1898 -1.4507  4.4967
18737TIP3    H277627   0.133   3.153  14.533 -1.4942 -0.3913 -0.6850
18738TIP3   OH277628   3.986   1.997  12.112  1.0571 -0.0805  0.0635
18738TIP3    H177629   4.023   2.026  12.196 -0.5292  0.3937  0.6330
18738TIP3    H277630   3.891   2.001  12.125  0.6946 -3.3863 -0.5730
18739TIP3   OH277631   3.217   6.296   2.485  0.1357 -0.0646 -0.6245
18739TIP3    H177632   3.130   6.258   2.477  0.6197 -1.2077 -0.5980
18739TIP3    H277633   3.276   6.228   2.453  0.9232  1.3283 -2.2930
18740TIP3   OH277634   4.444   3.725   1.907  0.3969 -0.4304  0.1813
18740TIP3    H177635   4.482   3.690   1.826 -1.5073 -0.1051 -0.9195
18740TIP3    H277636   4.450   3.820   1.898  1.2725 -0.3964  1.0004
18741TIP3   OH277637   4.005   0.044   2.909 -0.5974  0.1021  0.1294
18741TIP3    H177638   3.919   0.007   2.891 -1.2251  1.1075  1.0109
18741TIP3    H277639   4.056   0.023   2.830 -2.5361  2.1965 -1.8480
18742TIP3   OH277640   3.528   2.203  11.789  0.1980 -0.3936  0.3369
18742TIP3    H177641   3.624   2.202  11.788  0.2173  0.8909 -0.0501
18742TIP3    H277642   3.502   2.162  11.707  0.4740  1.4768 -0.7423
18743TIP3   OH277643   5.906   2.426   2.379 -0.0123 -0.0766  0.7406
18743TIP3    H177644   5.875   2.373   2.306  1.1013  1.0990 -0.6285
18743TIP3    H277645   5.982   2.379   2.412  1.7318  1.1590 -1.2578
18744TIP3   OH277646   5.224   3.989  17.446 -0.4010 -0.0316  0.4421
18744TIP3    H177647   5.250   3.940  17.524 -0.4239 -1.1683 -0.2363
18744TIP3    H277648   5.294   3.970  17.382 -0.7237  0.3335 -0.0252
18745TIP3   OH277649   4.223   1.963  15.023  0.3870 -1.1161 -0.2842
18745TIP3    H177650   4.136   1.989  15.054  1.0985  0.9071  0.1372
18745TIP3    H277651   4.280   1.976  15.099  1.5621  0.5831 -1.4056
18746TIP3   OH277652   3.404   2.445   5.644  0.2247  0.2590  0.6564
18746TIP3    H177653   3.338   2.381   5.670 -0.1621  0.4047  0.0551
18746TIP3    H277654   3.355   2.526   5.631  0.0471 -0.2004 -2.2499
18747TIP3   OH277655   0.130   5.192   0.670 -0.0113 -0.2448  0.2552
18747TIP3    H177656   0.105   5.262   0.609 -2.6314  0.5332  2.0624
18747TIP3    H277657   0.114   5.111   0.621  2.3262  0.2907 -1.5989
18748TIP3   OH277658   2.254   6.540   2.631 -0.5886  0.0166  0.4313
18748TIP3    H177659   2.253   6.463   2.688 -1.0949 -0.8963 -0.7558
18748TIP3    H277660   2.313   6.516   2.559 -0.2390  0.9956  0.3684
18749TIP3   OH277661   2.583   5.249   3.812  0.0143 -0.1983 -0.3999
18749TIP3    H177662   2.621   5.181   3.755  0.8035 -0.3183  0.2527
18749TIP3    H277663   2.499   5.269   3.771  0.4394 -0.4749 -1.4628
18750TIP3   OH277664   1.863   0.846   4.042 -0.3298  0.6786 -0.0598
18750TIP3    H177665   1.939   0.894   4.008  0.1784 -0.4926 -0.6391
18750TIP3    H277666   1.874   0.849   4.137  1.0965 -0.4445 -0.1525
18751TIP3   OH277667   4.262   0.503   2.408  0.0119  0.1141 -0.0373
18751TIP3    H177668   4.243   0.596   2.421 -0.0679  0.0344  0.4604
18751TIP3    H277669   4.187   0.458   2.446  0.3160 -0.1606  0.2450
18752TIP3   OH277670   0.719   6.241   2.316  0.1912 -0.3907  0.1010
18752TIP3    H177671   0.683   6.260   2.402 -0.6123  1.9821 -0.6917
18752TIP3    H277672   0.813   6.228   2.331  0.5764  2.8077  1.0479
18753TIP3   OH277673   0.945   0.378  11.641  0.1648  0.4467  0.3265
18753TIP3    H177674   0.929   0.299  11.693 -0.9412  0.3714 -0.1090
18753TIP3    H277675   1.016   0.354  11.582 -0.6859 -0.4885 -0.3398
18754TIP3   OH277676   0.177   2.094  11.249  0.2232  0.0187 -0.0253
18754TIP3    H177677   0.269   2.120  11.248  0.9686 -2.2742  1.8269
18754TIP3    H277678   0.154   2.091  11.342 -0.8465 -2.2009 -0.3018
18755TIP3   OH277679   1.073   5.085  12.131  0.2960  0.1114  0.2018
18755TIP3    H177680   1.159   5.059  12.098  0.3537  0.7038 -0.1216
18755TIP3    H277681   1.046   5.013  12.188  0.9534 -0.1317  0.2066
18756TIP3   OH277682   2.892   4.907  14.711  0.0558  0.0797  0.0637
18756TIP3    H177683   2.910   4.823  14.755 -1.2183 -0.8461 -1.0894
18756TIP3    H277684   2.907   4.973  14.778  2.3371 -0.9609  0.6578
18757TIP3   OH277685   3.490   5.509   1.356  0.3023  0.2815  0.2242
18757TIP3    H177686   3.431   5.519   1.430  0.1485 -1.7913  0.4300
18757TIP3    H277687   3.440   5.540   1.280 -1.1740 -1.5690  0.3716
18758TIP3   OH277688   2.179   0.781   5.538 -0.1610  0.3268 -0.8200
18758TIP3    H177689   2.214   0.726   5.468  0.8232  0.7624 -0.6888
18758TIP3    H277690   2.121   0.724   5.588  0.8577 -0.5988 -0.6648
18759TIP3   OH277691   5.214   1.252   5.599  0.2909  0.9453  0.6530
18759TIP3    H177692   5.293   1.199   5.589  0.6247  1.2865  1.3954
18759TIP3    H277693   5.180   1.261   5.510 -0.3582 -1.3633  0.5856
18760TIP3   OH277694   3.871   5.457   1.573  0.4163  0.5742 -0.3766
18760TIP3    H177695   3.793   5.431   1.525  0.3174  1.5187 -0.7369
18760TIP3    H277696   3.885   5.386   1.636 -0.4491  0.1708 -0.6289
18761TIP3   OH277697   1.515   3.375   0.695  0.2075  0.4006 -0.1436
18761TIP3    H177698   1.593   3.319   0.692  0.2905  0.4700  0.5808
18761TIP3    H277699   1.497   3.396   0.603  1.7604  1.3839 -0.2622
18762TIP3   OH277700   5.615   4.017   3.854  0.4469 -0.4328 -0.7458
18762TIP3    H177701   5.689   3.956   3.850  0.1136 -1.0505  1.2839
18762TIP3    H277702   5.589   4.030   3.763  2.2553 -1.1692 -1.4141
18763TIP3   OH277703   4.385   2.180   3.224  0.6914 -0.6865 -0.3220
18763TIP3    H177704   4.470   2.188   3.180 -0.2950  0.1061 -2.2340
18763TIP3    H277705   4.379   2.088   3.250  2.2967 -0.6558  0.2474
18764TIP3   OH277706   3.031   1.393  10.680 -0.0465 -0.1675 -0.7572
18764TIP3    H177707   3.068   1.424  10.763  0.8667 -2.1551 -0.3601
18764TIP3    H277708   2.936   1.402  10.691  0.0392 -0.7332  0.6724
18765TIP3   OH277709   2.765   3.011   0.799  0.4585  0.0822  0.3290
18765TIP3    H177710   2.681   3.026   0.755  0.0774  1.4552  1.4312
18765TIP3    H277711   2.746   2.947   0.867  0.6915 -0.8293 -0.4405
18766TIP3   OH277712   0.196   2.696   3.918  0.5446  0.5187 -0.7547
18766TIP3    H177713   0.124   2.756   3.941  0.7776  0.5844 -0.1886
18766TIP3    H277714   0.176   2.616   3.965  0.8261  0.5252 -0.6254
18767TIP3   OH277715   0.174   3.905  14.169  0.0448  0.3219 -0.3333
18767TIP3    H177716   0.151   3.997  14.181 -1.5537 -0.0180 -0.5283
18767TIP3    H277717   0.133   3.860  14.243  2.9791  0.0098  1.2536
18768TIP3   OH277718   4.982   6.138   2.312 -0.2158  0.2940 -0.3571
18768TIP3    H177719   4.930   6.074   2.362 -2.0884  1.5826 -0.5538
18768TIP3    H277720   4.921   6.172   2.246  1.4876  0.4632 -1.9072
18769TIP3   OH277721   5.149   6.221  15.336 -0.0435  0.0174 -0.0422
18769TIP3    H177722   5.152   6.308  15.295 -0.0918  0.6577  1.2578
18769TIP3    H277723   5.230   6.179  15.309 -0.5162  0.0342 -1.5764
18770TIP3   OH277724   3.092   3.000  12.887  0.3945  0.4122 -0.4675
18770TIP3    H177725   3.179   3.039  12.883  1.7630 -2.4621 -1.3711
18770TIP3    H277726   3.053   3.035  12.966  2.4161  1.7075  0.0119
18771TIP3   OH277727   1.222   1.392   5.054  0.0261 -0.1466 -0.0007
18771TIP3    H177728   1.153   1.384   5.120 -0.3694  1.0029 -0.2421
18771TIP3    H277729   1.228   1.486   5.037  0.2736 -0.3935 -1.4310
18772TIP3   OH277730   2.764   0.412   2.308 -1.0253 -0.5101 -0.3056
18772TIP3    H177731   2.681   0.437   2.267 -1.6823 -0.2955  1.1151
18772TIP3    H277732   2.746   0.329   2.352 -0.5586 -0.3251  0.2468
18773TIP3   OH277733   5.677   1.300  12.172 -0.0594 -0.0599  0.0537
18773TIP3    H177734   5.688   1.386  12.131  2.1807  0.3668  1.4313
18773TIP3    H277735   5.652   1.319  12.262 -0.4481 -0.8953  0.1312
18774TIP3   OH277736   1.180   6.661   5.161  0.4506  0.4023  0.1005
18774TIP3    H177737   1.233   6.712   5.222  0.4024 -1.1742  1.5148
18774TIP3    H277738   1.229   6.580   5.148 -0.9139 -0.4944  0.3377
18775TIP3   OH277739   6.451   4.546   5.831 -0.3934  0.6992 -0.5383
18775TIP3    H177740   6.419   4.560   5.920 -0.1379  0.4267 -0.4031
18775TIP3    H277741   6.401   4.608   5.778 -0.4854  0.9236 -0.1936
18776TIP3   OH277742   1.899   4.143   0.694 -0.2880 -0.0135 -0.0026
18776TIP3    H177743   1.827   4.193   0.731 -0.3284 -0.4400  0.5028
18776TIP3    H277744   1.961   4.209   0.662  0.1058  0.3857  1.4982
18777TIP3   OH277745   3.898   6.009  16.213  0.1356  0.1250  0.1151
18777TIP3    H177746   3.932   5.957  16.140 -0.6811 -0.3632  0.0775
18777TIP3    H277747   3.873   5.944  16.279  0.1854  0.5285  0.5362
18778TIP3   OH277748   5.719   4.737   5.856  0.1403  0.6765  0.1569
18778TIP3    H177749   5.785   4.679   5.820  0.5620  0.5775  1.0624
18778TIP3    H277750   5.702   4.703   5.944  0.9573  2.3342  1.0113
18779TIP3   OH277751   6.413   6.348  14.875 -0.6134 -0.1876 -0.0441
18779TIP3    H177752   6.350   6.293  14.829 -1.3652 -0.6673  1.4748
18779TIP3    H277753   6.445   6.292  14.947 -1.1627  1.2316  1.3526
18780TIP3   OH277754   5.381   5.256  14.351 -0.3011  0.3637  0.1406
18780TIP3    H177755   5.413   5.317  14.418 -0.7777  0.6149  0.1425
18780TIP3    H277756   5.391   5.303  14.269 -0.1395  0.2275  0.0827
18781TIP3   OH277757   1.329   2.809   3.023 -0.3454 -0.3964  0.0429
18781TIP3    H177758   1.306   2.716   3.034 -2.1009 -0.0253 -0.1110
18781TIP3    H277759   1.314   2.826   2.930  1.9175 -0.4096 -0.3646
18782TIP3   OH277760   1.243   2.362   4.424 -0.0161  0.4986  0.0023
18782TIP3    H177761   1.194   2.280   4.427  1.1150 -0.1845  0.7300
18782TIP3    H277762   1.179   2.429   4.447 -0.6840 -0.3235  0.5966
18783TIP3   OH277763   4.315   3.609  16.365 -0.2809 -0.0901  0.5148
18783TIP3    H177764   4.230   3.622  16.324 -1.0368 -0.6962  1.8027
18783TIP3    H277765   4.358   3.542  16.312 -1.7884 -1.8615  1.3998
18784TIP3   OH277766   3.947   1.795  15.484 -0.0433  0.1390 -0.5740
18784TIP3    H177767   3.884   1.867  15.493 -1.4631 -0.8044 -2.3266
18784TIP3    H277768   4.002   1.802  15.562 -1.0840  2.1883  0.0588
18785TIP3   OH277769   2.600   6.413  11.200  0.1015 -0.5328 -0.2028
18785TIP3    H177770   2.649   6.396  11.120  1.6922  0.7152  0.4592
18785TIP3    H277771   2.639   6.355  11.266 -0.5328 -0.8420 -0.0918
18786TIP3   OH277772   6.417   4.558  12.061  0.3780 -0.1843  0.2752
18786TIP3    H177773   6.349   4.501  12.096 -3.7298  3.3480 -1.0712
18786TIP3    H277774   6.428   4.626  12.128 -0.7700  1.6345 -1.3014
18787TIP3   OH277775   0.257   2.015  14.543 -0.2407  0.7717  0.3865
18787TIP3    H177776   0.225   2.093  14.586  1.2079  1.1267  0.8758
18787TIP3    H277777   0.221   1.942  14.594 -0.2861  1.1500  0.8973
18788TIP3   OH277778   4.557   4.079  10.568  0.2044 -0.0956 -0.5326
18788TIP3    H177779   4.492   4.034  10.622  0.5194  1.0581  0.8587
18788TIP3    H277780   4.616   4.010  10.539  0.7705 -0.6140  1.6868
18789TIP3   OH277781   0.302   2.860   0.086 -0.4035 -0.3704  0.4371
18789TIP3    H177782   0.397   2.855   0.098 -0.2858  1.2105  0.4362
18789TIP3    H277783   0.290   2.926   0.018 -1.5062 -0.1916  0.7799
18790TIP3   OH277784   3.647   3.907  11.282 -0.2904 -0.3887  0.0360
18790TIP3    H177785   3.600   3.975  11.331 -0.6452 -0.2698 -0.4586
18790TIP3    H277786   3.625   3.924  11.190  1.5942  0.3346 -0.3292
18791TIP3   OH277787   3.491   2.136  14.569  0.2054  0.2532  0.3764
18791TIP3    H177788   3.466   2.082  14.493  1.3825  1.7446 -1.1420
18791TIP3    H277789   3.587   2.136  14.568  0.2599  2.3864  0.2536
18792TIP3   OH277790   6.095   1.338  15.807 -0.3423 -0.3797 -0.1684
18792TIP3    H177791   6.011   1.356  15.766 -1.4038 -3.6145  0.2528
18792TIP3    H277792   6.082   1.358  15.900 -0.3058  0.0886 -0.2639
18793TIP3   OH277793   3.969   3.999  13.621 -0.3873  0.1028 -0.4298
18793TIP3    H177794   3.940   3.984  13.531  1.8754  0.2140 -1.2536
18793TIP3    H277795   3.911   4.068  13.654 -1.7128 -0.4417 -1.5310
18794TIP3   OH277796   3.142   3.194  13.378 -0.5405 -0.0580 -0.7156
18794TIP3    H177797   3.132   3.288  13.369  0.2568  0.1211  0.1303
18794TIP3    H277798   3.194   3.167  13.303 -0.3181  0.2554 -0.6734
18795TIP3   OH277799   0.732   5.460   4.646  1.0554  0.2228 -0.7969
18795TIP3    H177800   0.818   5.462   4.604  1.2355 -1.3022 -0.5811
18795TIP3    H277801   0.742   5.397   4.718 -0.2775 -0.1424 -0.9022
18796TIP3   OH277802   6.585   6.463   0.881  0.3386 -0.0661  0.7511
18796TIP3    H177803   6.533   6.387   0.906 -0.4675  0.5573  1.0252
18796TIP3    H277804   6.676   6.433   0.885  0.0400 -0.9570  1.0251
18797TIP3   OH277805   0.198   4.222   5.634 -0.2715 -0.3642 -0.6018
18797TIP3    H177806   0.240   4.172   5.704 -0.2056  1.2779  0.5920
18797TIP3    H277807   0.113   4.248   5.671  0.4430  1.9458 -0.3981
18798TIP3   OH277808   6.667   6.204   0.014 -0.4928  0.0672  0.4523
18798TIP3    H177809   6.631   6.271   0.073  0.3145  0.3194  0.6672
18798TIP3    H277810   6.739   6.248  -0.031 -0.7101 -0.3114 -0.2791
18799TIP3   OH277811   3.005   0.173   0.054  0.3135 -0.2486  0.2408
18799TIP3    H177812   3.005   0.130   0.139 -0.5211  1.3802  1.1204
18799TIP3    H277813   2.978   0.105  -0.008 -1.4686 -0.8910  1.6272
18800TIP3   OH277814   3.603   2.589   2.837 -0.3448  0.2283 -0.2712
18800TIP3    H177815   3.652   2.522   2.885 -0.8116  0.8242  1.0914
18800TIP3    H277816   3.668   2.653   2.810  0.2853 -1.2683 -2.5622
18801TIP3   OH277817   2.566   1.477  15.326 -0.6174  0.1482  0.2700
18801TIP3    H177818   2.558   1.534  15.403  3.0525  0.7339  0.4285
18801TIP3    H277819   2.491   1.498  15.272 -1.1999  2.6738  1.8868
18802TIP3   OH277820   4.410   6.254  13.216 -0.2137 -0.2043  0.2929
18802TIP3    H177821   4.391   6.165  13.187  0.0282  0.0258 -0.6147
18802TIP3    H277822   4.325   6.298  13.219 -0.2058 -0.1092 -0.5338
18803TIP3   OH277823   6.413   2.058   0.408 -0.4284  0.5020 -0.2309
18803TIP3    H177824   6.403   2.035   0.501  0.8825  0.5403 -0.0564
18803TIP3    H277825   6.424   1.974   0.364 -0.9001  0.4940 -0.3422
18804TIP3   OH277826   0.716   6.559  13.116  0.0105  0.1179  0.3562
18804TIP3    H177827   0.639   6.551  13.172 -0.5378  1.8507 -0.0722
18804TIP3    H277828   0.766   6.479  13.132 -1.9439 -1.1372  0.5140
18805TIP3   OH277829   0.409   5.170  16.855 -0.1651  0.2298  0.7407
18805TIP3    H177830   0.388   5.106  16.923 -0.5895 -1.2176 -0.6976
18805TIP3    H277831   0.504   5.182  16.862 -0.2053  0.0868  1.5596
18806TIP3   OH277832   6.601   1.448  15.775 -0.1418 -0.0638  0.1902
18806TIP3    H177833   6.625   1.468  15.684 -0.3974 -0.7575 -0.0296
18806TIP3    H277834   6.669   1.388  15.805 -0.3945 -0.3159  0.2623
18807TIP3   OH277835   2.558   3.415  12.491 -0.2870  0.4049 -0.1956
18807TIP3    H177836   2.521   3.419  12.403  1.3065 -0.8742 -0.9765
18807TIP3    H277837   2.651   3.399  12.478  0.0001  0.1716  1.7337
18808TIP3   OH277838   5.176   2.145   5.946  0.5353  0.4493 -0.3498
18808TIP3    H177839   5.124   2.077   5.988 -1.3745  1.4783 -0.9025
18808TIP3    H277840   5.156   2.137   5.852  2.1014  0.3210 -0.7072
18809TIP3   OH277841   5.967   2.882  15.423  0.4247  0.4923 -0.0222
18809TIP3    H177842   6.018   2.804  15.446 -0.1409  0.7399  2.3244
18809TIP3    H277843   5.904   2.851  15.359 -0.3543 -1.2639  1.4795
18810TIP3   OH277844   2.413   0.260   0.124 -0.4190 -0.0096 -0.0407
18810TIP3    H177845   2.507   0.275   0.115 -0.5794  1.3756  0.3913
18810TIP3    H277846   2.394   0.188   0.064  0.7361  0.4120 -0.9409
18811TIP3   OH277847   3.438   5.259  12.244 -0.7470 -0.2170  0.5467
18811TIP3    H177848   3.485   5.269  12.327  1.3024 -0.3446 -0.5209
18811TIP3    H277849   3.356   5.306  12.257 -0.3609  0.0037  2.5448
18812TIP3   OH277850   1.250   1.967   5.046  0.0599 -0.3767  0.5243
18812TIP3    H177851   1.214   2.054   5.029  2.1504  0.5019  0.3310
18812TIP3    H277852   1.269   1.931   4.960  2.8491  0.6524  0.6073
18813TIP3   OH277853   0.830   6.002   1.298  0.1111  0.4000 -0.4379
18813TIP3    H177854   0.827   5.913   1.332 -0.5199  0.7984  0.6237
18813TIP3    H277855   0.748   6.042   1.327  0.0279  1.1046 -1.5585
18814TIP3   OH277856   0.458   6.176  14.041 -0.1681 -0.7628  0.0130
18814TIP3    H177857   0.508   6.114  13.989  0.2187  0.5438 -1.2452
18814TIP3    H277858   0.501   6.177  14.126  1.6845 -0.0548 -0.8760
18815TIP3   OH277859   1.388   3.964   2.602 -0.0841  0.7883  0.1111
18815TIP3    H177860   1.400   3.980   2.509  2.0696 -0.2102  0.1442
18815TIP3    H277861   1.408   4.048   2.644  0.9195  0.7395 -0.2462
18816TIP3   OH277862   4.641   1.558  13.350  0.2447 -0.2048  0.1208
18816TIP3    H177863   4.641   1.570  13.445 -0.2428 -0.6441  0.1818
18816TIP3    H277864   4.672   1.641  13.315  2.6107 -0.7593  0.7403
18817TIP3   OH277865   4.812   2.082  13.438  0.8047  0.2389 -0.6902
18817TIP3    H177866   4.745   2.038  13.489  1.4012  0.7569  0.5831
18817TIP3    H277867   4.823   2.167  13.480  2.0585  0.2724 -1.0382
18818TIP3   OH277868   4.672   1.979  16.422  0.2944 -0.0306 -0.4499
18818TIP3    H177869   4.581   1.977  16.452  0.8761 -0.9125  1.3894
18818TIP3    H277870   4.709   2.057  16.462  0.5118  0.0284 -0.7589
18819TIP3   OH277871   1.887   4.712  12.396  0.6125 -0.1589  0.3870
18819TIP3    H177872   1.894   4.666  12.480  0.2391 -0.1173  0.4433
18819TIP3    H277873   1.975   4.708  12.359  0.2935 -2.1658 -0.2645
18820TIP3   OH277874   3.253   4.138  13.379  0.5874 -1.0357 -0.2454
18820TIP3    H177875   3.185   4.125  13.313 -0.0544 -0.5834  0.3219
18820TIP3    H277876   3.331   4.098  13.340  0.3801 -0.2451 -1.5477
18821TIP3   OH277877   5.066   0.214   4.265 -0.2258  0.1236  0.0836
18821TIP3    H177878   5.027   0.286   4.215  0.4737  2.8923  3.1363
18821TIP3    H277879   5.150   0.197   4.221  0.3876  2.4725  0.1839
18822TIP3   OH277880   3.866   5.673   1.231 -0.1678  0.6972  0.1266
18822TIP3    H177881   3.908   5.675   1.145 -0.4219  0.8085  0.0053
18822TIP3    H277882   3.862   5.580   1.253  2.6618  0.7671  1.3848
18823TIP3   OH277883   2.448   0.656   3.249 -0.0399 -0.5166 -0.2882
18823TIP3    H177884   2.468   0.684   3.160  2.2536 -0.9965  0.0298
18823TIP3    H277885   2.372   0.598   3.239  0.9335 -1.5601 -2.1058
18824TIP3   OH277886   3.096   2.941  15.153  0.1949  0.1067  0.1977
18824TIP3    H177887   3.042   2.971  15.079  1.0915  0.5612 -0.2829
18824TIP3    H277888   3.130   3.021  15.193  0.6315 -0.1781  0.4059
18825TIP3   OH277889   5.284   3.335   5.241  0.1335  0.0450  0.3148
18825TIP3    H177890   5.299   3.429   5.230  1.3796 -0.3077 -1.4611
18825TIP3    H277891   5.372   3.297   5.244 -0.3518 -1.1136  0.4587
18826TIP3   OH277892   5.235   0.091  12.188 -0.2682  0.2424  0.1200
18826TIP3    H177893   5.325   0.119  12.201 -0.0606  0.3891 -1.4731
18826TIP3    H277894   5.183   0.152  12.241  0.4452  1.3572 -0.4202
18827TIP3   OH277895   5.477   1.215   1.301  0.0009  0.2489  0.0935
18827TIP3    H177896   5.493   1.162   1.379 -0.7006  0.9517  0.7209
18827TIP3    H277897   5.526   1.296   1.316  0.0544  0.2930 -0.3043
18828TIP3   OH277898   6.454   0.813  13.907 -0.1132  0.1161  0.0481
18828TIP3    H177899   6.385   0.750  13.883 -1.3085  0.9666  1.0882
18828TIP3    H277900   6.492   0.778  13.987 -0.8959  0.7422  0.7259
18829TIP3   OH277901   1.925   4.740   3.258 -0.1196 -0.4244  0.5151
18829TIP3    H177902   1.950   4.656   3.299  1.3392 -0.6081 -0.6498
18829TIP3    H277903   1.866   4.715   3.187 -1.7070 -0.2059  1.7042
18830TIP3   OH277904   2.587   5.732  10.895 -0.1426  0.6695  0.4011
18830TIP3    H177905   2.613   5.697  10.981  0.7470 -0.2872 -0.2287
18830TIP3    H277906   2.622   5.821  10.894  0.7892  0.3180  0.6281
18831TIP3   OH277907   6.369   3.708  11.280 -0.3340  0.2412 -0.2161
18831TIP3    H177908   6.280   3.697  11.246 -0.4601  3.0972 -1.1246
18831TIP3    H277909   6.423   3.720  11.202  0.7863 -0.8525  0.3580
18832TIP3   OH277910   1.181   5.797  10.630 -0.8318  0.3789  0.0966
18832TIP3    H177911   1.184   5.892  10.634 -2.2160  0.5080 -1.0676
18832TIP3    H277912   1.240   5.774  10.558  0.1829  0.2705  0.9405
18833TIP3   OH277913   4.621   3.076   0.703  0.0437  0.5457 -0.1987
18833TIP3    H177914   4.634   3.163   0.665  1.8040  0.3955 -0.0311
18833TIP3    H277915   4.691   3.023   0.664 -1.4453 -1.0169 -0.8804
18834TIP3   OH277916   4.427   3.798  15.047 -0.0867 -0.8385 -0.5000
18834TIP3    H177917   4.424   3.819  14.953  0.2386 -0.9856 -0.5466
18834TIP3    H277918   4.505   3.742  15.056  2.3302  2.3611  0.5059
18835TIP3   OH277919   1.490   3.953  11.935  0.1289  0.0822  0.2616
18835TIP3    H177920   1.432   3.908  11.997 -1.8727  2.1071 -0.0089
18835TIP3    H277921   1.471   3.913  11.851 -0.2786  0.1457  0.3185
18836TIP3   OH277922   5.054   4.886   3.645  0.0990 -0.3344  0.4162
18836TIP3    H177923   5.052   4.793   3.619  1.0042 -0.6052  1.2622
18836TIP3    H277924   5.103   4.887   3.727 -1.0073  0.7488  1.0936
18837TIP3   OH277925   3.971   2.009  16.824  0.1624 -0.4187  0.0114
18837TIP3    H177926   3.964   2.044  16.913 -0.4265 -0.4243 -0.0272
18837TIP3    H277927   3.940   1.919  16.832  0.2264 -0.4568 -0.1752
18838TIP3   OH277928   0.198   1.501   5.459 -0.1040 -0.1868 -0.5248
18838TIP3    H177929   0.250   1.456   5.392  0.8695 -1.6533  1.1334
18838TIP3    H277930   0.211   1.449   5.538 -0.3279  2.0803  1.0982
18839TIP3   OH277931   0.070   3.531  11.641  0.0190 -0.1760 -0.4740
18839TIP3    H177932   0.042   3.536  11.732 -0.1020  0.7988 -0.5497
18839TIP3    H277933   0.071   3.622  11.611  0.2930 -0.4601 -1.3751
18840TIP3   OH277934   5.815   1.045   2.505 -0.0515  0.2279 -0.6242
18840TIP3    H177935   5.774   1.132   2.506  2.0726  1.2704  0.1383
18840TIP3    H277936   5.857   1.039   2.419 -0.6253 -0.2832 -0.8780
18841TIP3   OH277937   1.649   0.022   0.224 -0.2443  0.2488  0.4573
18841TIP3    H177938   1.635  -0.028   0.144  0.8179  1.0126 -0.2396
18841TIP3    H277939   1.734  -0.007   0.257 -0.8984 -0.4225  1.6034
18842TIP3   OH277940   0.581   0.867   3.988  0.3689  0.1209  0.0073
18842TIP3    H177941   0.637   0.790   4.000 -0.5439 -0.6699 -0.6980
18842TIP3    H277942   0.512   0.858   4.054 -1.2358 -1.0828 -1.7390
18843TIP3   OH277943   5.889   6.614   4.236 -0.1047 -0.5971 -0.3736
18843TIP3    H177944   5.918   6.567   4.315 -1.8901 -3.9924 -1.5420
18843TIP3    H277945   5.847   6.693   4.270 -2.3709 -2.7452  2.3499
18844TIP3   OH277946   4.150   1.274   5.720  0.3467  0.1597 -0.2631
18844TIP3    H177947   4.136   1.185   5.689  2.8848 -0.8423  1.1744
18844TIP3    H277948   4.062   1.308   5.738 -0.6328 -3.0837  1.8808
18845TIP3   OH277949   0.162   5.370   5.911  0.1231  0.3792  0.5277
18845TIP3    H177950   0.169   5.378   5.816  2.4790 -1.6402  0.4302
18845TIP3    H277951   0.139   5.278   5.925 -2.2247  1.0966  1.9210
18846TIP3   OH277952   0.410   2.012   2.098  0.5643  0.0239  0.0709
18846TIP3    H177953   0.352   2.079   2.060  0.2007 -0.0356  0.5083
18846TIP3    H277954   0.419   2.038   2.190  1.3055  0.0767 -0.0102
18847TIP3   OH277955   6.504   3.629  17.311 -0.0903 -0.4183 -0.2400
18847TIP3    H177956   6.443   3.689  17.268 -0.9969 -0.2380  1.2285
18847TIP3    H277957   6.561   3.686  17.362  0.8916 -0.6357 -1.0687
18848TIP3   OH277958   4.328   3.462  14.593  0.5448 -0.1263  0.4435
18848TIP3    H177959   4.372   3.543  14.621  1.3572 -0.2119 -0.5054
18848TIP3    H277960   4.357   3.396  14.656  1.2284 -0.0279  0.2417
18849TIP3   OH277961   1.281   5.570   5.628 -0.1161 -0.1049 -0.5439
18849TIP3    H177962   1.352   5.622   5.591  0.1681  0.6768  1.0041
18849TIP3    H277963   1.309   5.479   5.617  0.9578  0.1817 -0.3035
18850TIP3   OH277964   2.129   4.474   0.063  0.4225 -0.1367  0.4579
18850TIP3    H177965   2.213   4.443   0.029  0.2455 -0.2433  0.1057
18850TIP3    H277966   2.145   4.489   0.156  0.3911 -1.8185  0.7763
18851TIP3   OH277967   5.084   4.668  12.073  0.4302  0.6990 -0.0830
18851TIP3    H177968   5.042   4.753  12.061 -2.5004 -0.2679  2.1274
18851TIP3    H277969   5.047   4.634  12.154  1.6332 -2.6241 -0.7542
18852TIP3   OH277970   0.125   2.908  15.257  0.1992  0.5364 -0.1998
18852TIP3    H177971   0.126   2.869  15.345 -1.0655  0.2670 -0.2912
18852TIP3    H277972   0.093   2.838  15.200  1.9498  0.3860 -1.0734
18853TIP3   OH277973   3.626   2.179  17.538  0.1233  0.4497  0.3732
18853TIP3    H177974   3.537   2.146  17.534  0.2647  0.1074 -0.1334
18853TIP3    H277975   3.670   2.137  17.464  0.3750  1.5520 -0.1345
18854TIP3   OH277976   6.600   5.039  12.733 -0.6970 -0.3896 -0.5409
18854TIP3    H177977   6.505   5.034  12.747 -1.1443 -0.3693 -3.0592
18854TIP3    H277978   6.638   5.004  12.814 -2.8144 -0.0660  0.6824
18855TIP3   OH277979   6.255   2.109  12.669  0.1858 -0.1708 -0.8030
18855TIP3    H177980   6.202   2.038  12.705  0.8285 -2.3128 -3.7204
18855TIP3    H277981   6.336   2.106  12.720 -0.8419  0.4361  0.9738
18856TIP3   OH277982   2.992   0.321  15.245 -0.2172  0.0881 -0.0387
18856TIP3    H177983   2.981   0.340  15.152  0.4705  0.1608 -0.1052
18856TIP3    H277984   3.053   0.247  15.248 -1.3349 -0.8538  0.3013
18857TIP3   OH277985   1.438   2.511  14.244 -0.5966  0.1691 -0.4949
18857TIP3    H177986   1.458   2.539  14.333 -0.1603  0.8756 -0.7969
18857TIP3    H277987   1.415   2.419  14.251  1.2024 -0.2753  0.1307
18858TIP3   OH277988   1.472   1.631   3.121  0.4547 -0.1069  0.2877
18858TIP3    H177989   1.511   1.715   3.094  1.1901  0.2648  2.3098
18858TIP3    H277990   1.398   1.656   3.176  1.2865 -0.7162  1.7529
18859TIP3   OH277991   1.830   2.404  11.014 -0.4527 -0.0790  0.6313
18859TIP3    H177992   1.847   2.418  10.921  1.1096 -0.7910  0.7704
18859TIP3    H277993   1.807   2.311  11.020  2.4803 -0.8752  1.2553
18860TIP3   OH277994   0.200   0.773   0.106 -0.0641  0.6169  0.1013
18860TIP3    H177995   0.264   0.830   0.149 -0.2556  1.0550 -0.1814
18860TIP3    H277996   0.118   0.792   0.152 -0.1536  0.6579 -0.0767
18861TIP3   OH277997   0.573   0.799   5.842  0.0343 -0.1061  0.1406
18861TIP3    H177998   0.605   0.751   5.919 -0.3623  0.1273  0.4550
18861TIP3    H277999   0.482   0.770   5.832  0.4999 -1.2319 -1.1211
18862TIP3   OH278000   4.507   3.269   1.809 -0.8397 -0.5935 -0.2185
18862TIP3    H178001   4.412   3.276   1.821 -1.2744 -4.5470  0.0712
18862TIP3    H278002   4.517   3.209   1.735  1.5006  0.6965 -1.0408
18863TIP3   OH278003   3.730   3.583   6.056 -0.2425 -0.6300  0.4885
18863TIP3    H178004   3.744   3.497   6.016 -2.8854 -2.1092  2.3862
18863TIP3    H278005   3.735   3.567   6.150 -0.2406  1.4335  0.8877
18864TIP3   OH278006   4.448   4.627  13.134 -1.0063 -0.0187 -0.1111
18864TIP3    H178007   4.527   4.659  13.177 -0.4027 -1.5287 -0.0198
18864TIP3    H278008   4.407   4.570  13.199 -0.3098 -1.9962 -1.3194
18865TIP3   OH278009   2.658   4.948  14.407  0.0174 -0.1994 -0.7782
18865TIP3    H178010   2.687   4.860  14.430 -0.7391 -0.5443 -1.1179
18865TIP3    H278011   2.592   4.935  14.338 -1.3470  0.4978  0.3302
18866TIP3   OH278012   6.243   4.788  14.371  0.0370  0.0755 -0.2069
18866TIP3    H178013   6.326   4.757  14.405  0.3162  0.1922 -0.7670
18866TIP3    H278014   6.186   4.794  14.447  0.5039 -0.1249  0.1595
18867TIP3   OH278015   4.351   3.371   2.626 -0.4351 -0.1798  0.2376
18867TIP3    H178016   4.317   3.423   2.553  1.5060 -0.3745 -0.8709
18867TIP3    H278017   4.399   3.435   2.680  1.2900 -0.6477 -0.7024
18868TIP3   OH278018   4.562   2.459  15.055 -0.0832  0.3990 -0.2641
18868TIP3    H178019   4.634   2.439  15.114 -0.6360  0.1800  0.3468
18868TIP3    H278020   4.582   2.546  15.021  0.9432 -0.0398 -0.8322
18869TIP3   OH278021   2.662   1.097  16.465 -0.1514  0.1718  0.5947
18869TIP3    H178022   2.603   1.024  16.482  0.1310  0.0793  1.1874
18869TIP3    H278023   2.606   1.175  16.472 -0.5736 -0.0122 -0.6121
18870TIP3   OH278024   5.143   5.553   5.472 -0.2316  0.8902 -0.3186
18870TIP3    H178025   5.233   5.564   5.442 -0.0284  0.9563  0.3044
18870TIP3    H278026   5.090   5.597   5.405  0.1257  0.1019 -1.1399
18871TIP3   OH278027   6.319   4.862  16.766 -0.1117 -0.2347  0.2399
18871TIP3    H178028   6.289   4.943  16.727  1.6724  0.9638  1.2174
18871TIP3    H278029   6.241   4.823  16.805 -1.3371  0.0498 -1.7827
18872TIP3   OH278030   5.494   2.895   4.017  0.0106  0.3502 -0.0056
18872TIP3    H178031   5.452   2.939   4.091 -0.5093 -1.1065  0.6252
18872TIP3    H278032   5.573   2.856   4.054 -0.7320 -1.1830  0.0595
18873TIP3   OH278033   5.699   3.903  13.643 -0.7082  0.4113 -0.0262
18873TIP3    H178034   5.787   3.868  13.658 -0.8711  0.5234  1.3175
18873TIP3    H278035   5.657   3.901  13.729 -1.4965  1.7769 -0.3390
18874TIP3   OH278036   2.686   6.226  11.391  0.1630 -0.0107 -0.1462
18874TIP3    H178037   2.766   6.242  11.442 -0.0714 -1.3996  0.7004
18874TIP3    H278038   2.623   6.192  11.454 -0.5916 -0.4478 -1.1056
18875TIP3   OH278039   0.929   2.916  13.774  0.1636 -0.8562 -0.3252
18875TIP3    H178040   0.942   2.844  13.835  0.9233 -0.7798 -0.3926
18875TIP3    H278041   0.841   2.902  13.739  0.0692 -1.4027  0.1140
18876TIP3   OH278042   2.217   0.363   0.629 -0.1543 -0.3417 -0.1886
18876TIP3    H178043   2.155   0.291   0.644 -1.2573  0.9081  1.7596
18876TIP3    H278044   2.287   0.325   0.577 -1.0638 -2.6239  0.1583
18877TIP3   OH278045   2.230   6.629  16.657  0.2248 -0.4242  0.0909
18877TIP3    H178046   2.264   6.543  16.680  0.0472 -0.3933  0.4755
18877TIP3    H278047   2.187   6.661  16.737  0.0927 -0.0759 -0.1141
18878TIP3   OH278048   2.918   4.879  17.294 -0.3430 -0.1451 -0.4070
18878TIP3    H178049   2.982   4.951  17.296  0.0620 -0.5143  0.2063
18878TIP3    H278050   2.971   4.800  17.300 -0.6947 -0.5700 -2.4127
18879TIP3   OH278051   0.301   1.890  16.608  0.6629  0.3493  0.3122
18879TIP3    H178052   0.379   1.940  16.586  0.5720  0.8724  1.1752
18879TIP3    H278053   0.322   1.847  16.691  1.2578 -2.1599 -1.0054
18880TIP3   OH278054   2.420   5.528   0.973  0.0221  0.2860  0.7611
18880TIP3    H178055   2.367   5.457   1.011  0.9317 -0.5607  0.4737
18880TIP3    H278056   2.360   5.603   0.969 -1.3145 -0.7874 -0.0291
18881TIP3   OH278057   6.360   1.224  16.397 -0.2514 -0.0183 -0.2817
18881TIP3    H178058   6.305   1.239  16.321 -0.1396 -2.9895 -1.0753
18881TIP3    H278059   6.298   1.208  16.469 -0.3543  2.4124  0.2328
18882TIP3   OH278060   5.656   5.978  11.123 -0.2759  0.5242  0.0191
18882TIP3    H178061   5.668   6.035  11.200 -0.3938  0.2599  0.2333
18882TIP3    H278062   5.697   5.895  11.148 -1.6189 -0.0560  0.3648
18883TIP3   OH278063   1.208   4.249  11.438 -0.1637  0.4318  0.1503
18883TIP3    H178064   1.190   4.315  11.371 -1.9751  3.1186  3.0063
18883TIP3    H278065   1.125   4.205  11.452  0.1901 -0.0968  0.6417
18884TIP3   OH278066   0.045   0.776  12.865  0.5274 -0.6060 -0.7230
18884TIP3    H178067  -0.004   0.758  12.945  1.5478 -2.6806 -0.5266
18884TIP3    H278068   0.069   0.869  12.872 -0.1126 -0.5381  0.9561
18885TIP3   OH278069   2.699   0.879  12.587  0.0474 -0.0215  0.4341
18885TIP3    H178070   2.616   0.837  12.566 -0.2320  0.6206  0.2232
18885TIP3    H278071   2.746   0.814  12.639 -0.4716 -0.4957  0.3258
18886TIP3   OH278072   4.162   5.513  12.210 -0.0184 -0.6414 -0.6948
18886TIP3    H178073   4.161   5.567  12.131 -0.2001 -0.7525 -0.7703
18886TIP3    H278074   4.202   5.431  12.181  0.6538 -0.3947 -0.4798
18887TIP3   OH278075   2.002   0.968   0.243  0.9817 -0.1774  0.6345
18887TIP3    H178076   1.938   0.918   0.294 -0.4270  0.5757 -0.3193
18887TIP3    H278077   2.058   0.902   0.203 -0.3223 -0.9719  0.0558
18888TIP3   OH278078   1.542   1.798  11.241 -0.2879  0.4356 -0.5208
18888TIP3    H178079   1.578   1.845  11.316  1.1456  1.3516 -1.7303
18888TIP3    H278080   1.450   1.785  11.262 -0.2488  1.9852  0.7397
18889TIP3   OH278081   6.100   3.977  15.837  0.0363 -0.0842 -0.5996
18889TIP3    H178082   6.110   3.905  15.899  0.3216  0.3558 -0.1300
18889TIP3    H278083   6.010   3.970  15.805  0.2324 -0.9898 -0.9880
18890TIP3   OH278084   1.843   2.311   3.862  0.2386  0.0879  0.0298
18890TIP3    H178085   1.816   2.374   3.928  1.2684 -0.9792  1.5279
18890TIP3    H278086   1.899   2.361   3.802  1.8034  0.4622  1.7176
18891TIP3   OH278087   5.962   0.795  17.120 -0.1111  0.6264  0.1963
18891TIP3    H178088   5.921   0.711  17.098 -0.2205  0.5605  0.6358
18891TIP3    H278089   5.937   0.853  17.048  0.2353  0.1989 -0.2756
18892TIP3   OH278090   1.442   3.279  13.065 -0.0361 -0.2234 -0.1235
18892TIP3    H178091   1.424   3.373  13.057  1.2695 -0.0115 -0.8372
18892TIP3    H278092   1.473   3.253  12.979  1.2075 -0.9495  0.5196
18893TIP3   OH278093   1.410   2.713  15.093  0.4041  0.4319  0.3500
18893TIP3    H178094   1.369   2.634  15.127 -1.1833  1.2707  0.4624
18893TIP3    H278095   1.458   2.750  15.167  1.2311 -0.4506  0.2718
18894TIP3   OH278096   5.824   0.154   0.940 -0.2610  0.1327 -0.9207
18894TIP3    H178097   5.738   0.186   0.968  0.9650  2.4591  0.4647
18894TIP3    H278098   5.855   0.219   0.877  0.4531 -0.7479 -1.5108
18895TIP3   OH278099   0.242   1.093  14.469  0.5475  0.1180  0.2602
18895TIP3    H178100   0.235   1.109  14.374 -1.0656 -0.3336  0.2723
18895TIP3    H278101   0.336   1.096  14.486  0.7808  2.0611 -1.0141
18896TIP3   OH278102   1.247   0.354  15.302 -0.4414 -0.1116  0.7590
18896TIP3    H178103   1.312   0.386  15.240 -0.4551  0.5905  1.1004
18896TIP3    H278104   1.194   0.431  15.324 -1.0224 -0.5504  0.9332
18897TIP3   OH278105   3.334   3.955   4.435 -0.0953  0.1217 -0.4046
18897TIP3    H178106   3.334   3.901   4.356 -1.4692  1.2498 -1.2232
18897TIP3    H278107   3.333   4.045   4.402  0.1806  0.6258  0.9117
18898TIP3   OH278108   0.001   2.194   2.385 -0.2581  0.3664  0.4741
18898TIP3    H178109   0.033   2.112   2.348 -0.7035  0.1171  0.6321
18898TIP3    H278110   0.047   2.203   2.468  0.7982  0.9624 -0.1512
18899TIP3   OH278111   5.104   4.306  14.725  0.3640  0.2360 -0.3009
18899TIP3    H178112   5.028   4.328  14.672 -0.2922  0.7834  0.8205
18899TIP3    H278113   5.146   4.390  14.744  0.4843  0.0755  0.1707
18900TIP3   OH278114   1.705   0.524   5.242 -0.0843  0.0495 -0.0441
18900TIP3    H178115   1.719   0.446   5.295 -1.1359  1.0482  1.7680
18900TIP3    H278116   1.714   0.493   5.152  1.3634 -1.7667  0.6767
18901TIP3   OH278117   5.860   0.933  14.371  0.0875  0.3718 -0.0290
18901TIP3    H178118   5.948   0.956  14.400  0.1611  0.9960 -0.7212
18901TIP3    H278119   5.806   0.942  14.449  0.4148  1.2670  0.1011
18902TIP3   OH278120   5.625   3.116  16.435 -0.0048  0.7347 -0.1273
18902TIP3    H178121   5.565   3.046  16.412  1.6382 -0.5153 -0.7944
18902TIP3    H278122   5.643   3.103  16.528 -1.0263  1.3555  0.1756
18903TIP3   OH278123   2.039   4.008  11.830  0.0793 -0.0767 -0.2036
18903TIP3    H178124   2.119   4.059  11.831 -0.0747  0.1666 -0.2024
18903TIP3    H278125   2.053   3.940  11.896 -0.5743  1.2976  1.4202
18904TIP3   OH278126   0.257   0.888   2.349 -0.7907  0.2343 -0.0532
18904TIP3    H178127   0.216   0.838   2.279 -1.1324  0.3143  0.0903
18904TIP3    H278128   0.324   0.940   2.305  0.4723 -1.2939 -0.0538
18905TIP3   OH278129   4.892   3.504   6.153 -0.3446  0.0923 -0.3112
18905TIP3    H178130   4.979   3.540   6.140 -0.7076  1.3710  0.5877
18905TIP3    H278131   4.839   3.578   6.183 -1.1217 -1.1825  1.7141
18906TIP3   OH278132   5.561   5.793   5.854  0.0292 -0.0271 -0.2338
18906TIP3    H178133   5.572   5.818   5.946  2.5380 -0.5073 -0.3345
18906TIP3    H278134   5.645   5.812   5.813 -1.5536  1.9420 -2.9391
18907TIP3   OH278135   5.193   1.466   6.094 -0.2588 -0.1520 -0.3811
18907TIP3    H178136   5.169   1.477   6.186  3.0762  0.3286  0.5646
18907TIP3    H278137   5.184   1.372   6.078  2.0191 -0.7838  1.4719
18908TIP3   OH278138   6.360   1.360   2.839  0.1936 -0.2320 -0.1958
18908TIP3    H178139   6.434   1.348   2.779  2.6694 -1.2822  2.8189
18908TIP3    H278140   6.336   1.271   2.865 -0.1372  0.2246  1.1185
18909TIP3   OH278141   0.912   4.002   2.377  0.2550  0.0016  0.2998
18909TIP3    H178142   0.833   4.020   2.428  0.5370  3.0725 -0.1559
18909TIP3    H278143   0.984   4.034   2.430  0.8243  0.6121 -0.7972
18910TIP3   OH278144   5.930   3.426  16.415 -0.2488  0.4475 -0.6107
18910TIP3    H178145   5.879   3.484  16.358 -1.2554 -0.5228 -0.7145
18910TIP3    H278146   5.924   3.467  16.501  0.1902  1.2127 -0.9261
18911TIP3   OH278147   3.025   6.253  10.774 -0.4165  0.0749 -0.4426
18911TIP3    H178148   3.026   6.337  10.728  0.6077 -0.3988 -1.3222
18911TIP3    H278149   3.111   6.248  10.816 -1.0570  0.1625  0.9482
18912TIP3   OH278150   0.403   1.339   3.064  0.1654 -0.4718  0.2265
18912TIP3    H178151   0.453   1.410   3.024  0.4713  1.0887  3.1266
18912TIP3    H278152   0.352   1.381   3.133 -3.0820 -2.4411 -0.7458
18913TIP3   OH278153   3.497   3.046   5.580  0.9863  0.2927 -0.0559
18913TIP3    H178154   3.506   3.098   5.660 -1.4531  1.8724 -0.6936
18913TIP3    H278155   3.466   2.961   5.610 -0.2516  0.9743  0.7132
18914TIP3   OH278156   5.501   6.245  15.447  0.2786  0.2844 -0.4967
18914TIP3    H178157   5.478   6.160  15.410 -2.1997  0.6370  0.0552
18914TIP3    H278158   5.461   6.245  15.534  2.0488  1.2396  0.3730
18915TIP3   OH278159   1.615   6.537  16.120 -0.1069  0.2221  0.2832
18915TIP3    H178160   1.578   6.472  16.061  1.1142 -1.1538  0.9686
18915TIP3    H278161   1.675   6.488  16.176  0.0078  1.7550  1.5914
18916TIP3   OH278162   1.229   5.781  16.463  0.6053 -0.2775  0.0375
18916TIP3    H178163   1.244   5.713  16.397  0.3808 -0.0348 -0.2647
18916TIP3    H278164   1.205   5.731  16.542 -0.9129 -0.5229 -0.5431
18917TIP3   OH278165   5.166   5.467   3.107 -0.2533  0.3844  0.3702
18917TIP3    H178166   5.164   5.418   3.025  3.0486 -0.5705  0.7169
18917TIP3    H278167   5.149   5.401   3.174  1.0785  0.3308  0.6628
18918TIP3   OH278168   4.841   1.846   2.989  0.3185 -0.3848 -0.1799
18918TIP3    H178169   4.892   1.808   2.917 -1.0806 -0.5545 -1.1187
18918TIP3    H278170   4.793   1.919   2.950  2.7032  2.3090  1.5292
18919TIP3   OH278171   4.222   2.986   5.282  0.0993  0.6211 -0.5722
18919TIP3    H178172   4.138   2.974   5.325  0.2280 -0.7002 -0.6474
18919TIP3    H278173   4.214   2.938   5.200  1.1955 -0.2001 -0.2183
18920TIP3   OH278174   3.762   3.268  11.451  0.3185 -0.7878  0.7689
18920TIP3    H178175   3.679   3.310  11.427  1.5993  0.9315 -1.0100
18920TIP3    H278176   3.770   3.285  11.545 -0.8616 -0.0618  0.7699
18921TIP3   OH278177   3.679   4.238   1.892 -0.5330  0.0704  0.0415
18921TIP3    H178178   3.591   4.263   1.919 -0.2727  1.2070 -0.1397
18921TIP3    H278179   3.726   4.320   1.880  0.1004 -0.4542 -1.3965
18922TIP3   OH278180   1.232   4.422  15.847  0.2351  0.9184  0.0627
18922TIP3    H178181   1.177   4.424  15.926  0.4060  1.4970  0.1722
18922TIP3    H278182   1.199   4.493  15.792 -0.7367 -0.3046 -0.9846
18923TIP3   OH278183   6.256   1.313  13.776 -0.3821 -0.0695  0.0020
18923TIP3    H178184   6.325   1.288  13.838 -0.8769 -2.6876 -0.4081
18923TIP3    H278185   6.176   1.312  13.828 -0.3993  1.1070  0.0386
18924TIP3   OH278186   3.858   1.766  16.804  0.3358 -0.1078 -0.2651
18924TIP3    H178187   3.787   1.751  16.866  1.1673  1.0598  1.0129
18924TIP3    H278188   3.849   1.695  16.740 -2.6726  0.6372 -0.8165
18925TIP3   OH278189   2.782   0.225  15.877  0.1767  0.3213  0.3904
18925TIP3    H178190   2.860   0.271  15.909 -0.0052  0.0358  1.2764
18925TIP3    H278191   2.816   0.163  15.813  0.7394 -0.0736  1.0568
18926TIP3   OH278192   6.236   3.086  15.500  0.1998 -0.2221  0.3752
18926TIP3    H178193   6.190   3.131  15.430  2.4174  0.8290 -0.4883
18926TIP3    H278194   6.295   3.025  15.456  0.9435 -0.2264  1.3305
18927TIP3   OH278195   2.672   5.082  12.323 -0.0921 -0.2663 -0.2296
18927TIP3    H178196   2.694   5.175  12.316  0.5171 -0.2719  1.2541
18927TIP3    H278197   2.576   5.080  12.319 -0.1371  0.4864  0.2522
18928TIP3   OH278198   1.489   5.331   3.049 -0.1251  0.1399  0.2674
18928TIP3    H178199   1.462   5.316   2.958 -2.7564 -1.4562  1.2170
18928TIP3    H278200   1.554   5.262   3.065 -0.8827 -0.6488  0.0512
18929TIP3   OH278201   6.495   3.003   0.869 -0.0751  0.2117 -0.6972
18929TIP3    H178202   6.421   2.945   0.852  0.2113  0.3419 -2.5068
18929TIP3    H278203   6.466   3.059   0.941 -0.5831 -1.7299  0.7036
18930TIP3   OH278204   1.541   1.478  15.920  0.1338 -0.2872  0.0288
18930TIP3    H178205   1.518   1.546  15.984 -3.2118 -2.0967  0.9591
18930TIP3    H278206   1.498   1.506  15.839  0.0627 -0.5090 -0.0106
18931TIP3   OH278207   2.871   6.044  11.564 -0.2877 -0.2728  0.4870
18931TIP3    H178208   2.881   6.116  11.626 -0.5463  0.5070 -0.3699
18931TIP3    H278209   2.815   5.981  11.610 -2.5559  1.3983  0.1430
18932TIP3   OH278210   4.876   6.221  12.938  0.6523 -0.0856  0.1006
18932TIP3    H178211   4.804   6.232  13.001 -0.8362 -0.3550 -1.4952
18932TIP3    H278212   4.951   6.261  12.982 -0.1727 -0.7411  2.2788
18933TIP3   OH278213   2.565   4.740   0.662  0.8197 -0.3997 -0.1414
18933TIP3    H178214   2.579   4.697   0.746  1.3290 -0.6542 -0.3471
18933TIP3    H278215   2.470   4.738   0.649  0.5634  1.2433  1.2425
18934TIP3   OH278216   0.364   1.148   5.287 -0.0886  0.2797 -0.4696
18934TIP3    H178217   0.354   1.119   5.378  1.5820 -1.4732 -0.7904
18934TIP3    H278218   0.451   1.189   5.284 -0.4417  1.0165 -1.1289
18935TIP3   OH278219   4.528   5.383  14.535  0.4437 -0.3015  0.4210
18935TIP3    H178220   4.614   5.346  14.515  0.8842  0.9686 -0.1305
18935TIP3    H278221   4.467   5.310  14.521  1.3364 -0.9923  0.0036
18936TIP3   OH278222   0.100   5.160  10.279 -0.6647 -0.2624 -0.1510
18936TIP3    H178223   0.105   5.245  10.323 -2.0042  0.3452 -1.1187
18936TIP3    H278224   0.023   5.117  10.316  0.2713 -1.2984  0.6804
18937TIP3   OH278225   2.550   4.904   3.247 -0.6637 -0.3319 -0.2030
18937TIP3    H178226   2.602   4.950   3.181  1.3256 -1.7753  0.2730
18937TIP3    H278227   2.614   4.874   3.312 -2.0453 -2.4097  0.3065
18938TIP3   OH278228   2.732   6.654  11.224 -0.2123 -0.2296  0.3463
18938TIP3    H178229   2.823   6.634  11.204 -0.0856  0.2491  0.4372
18938TIP3    H278230   2.689   6.568  11.227  0.1991 -0.4463  0.1459
18939TIP3   OH278231   1.206   6.432   4.106  0.3063  0.3128 -0.4576
18939TIP3    H178232   1.151   6.437   4.185  1.7998  0.8675  0.5939
18939TIP3    H278233   1.174   6.502   4.050 -0.7792 -0.0796 -0.3511
18940TIP3   OH278234   2.870   0.124   2.988 -0.3224 -0.1473 -0.3961
18940TIP3    H178235   2.908   0.211   2.987  0.8835 -0.6480 -0.0496
18940TIP3    H278236   2.914   0.079   3.061  1.6804 -2.1361 -2.6607
18941TIP3   OH278237   5.374   2.396   1.935  0.5776 -1.0075 -0.0088
18941TIP3    H178238   5.300   2.346   1.970 -0.3774 -0.8072 -1.6295
18941TIP3    H278239   5.409   2.341   1.865  1.0274 -0.4467 -0.2317
18942TIP3   OH278240   4.520   5.389  10.671  0.2998 -0.2823  0.7755
18942TIP3    H178241   4.527   5.294  10.683  0.1590 -0.2944  0.7597
18942TIP3    H278242   4.428   5.409  10.687  0.2603 -0.1935  0.4616
18943TIP3   OH278243   4.401   3.170  11.204  0.1516  0.1175 -0.3922
18943TIP3    H178244   4.337   3.226  11.159 -0.1422 -0.1588 -0.3233
18943TIP3    H278245   4.454   3.133  11.134 -0.1496 -0.1208 -0.4994
18944TIP3   OH278246   1.994   5.754   0.141 -0.2494 -0.2493 -0.1205
18944TIP3    H178247   2.030   5.704   0.214  0.6545 -1.3663 -1.2724
18944TIP3    H278248   1.927   5.697   0.104 -1.0168  0.4962  0.0852
18945TIP3   OH278249   1.249   3.453   2.858 -0.1123  0.2247 -0.4122
18945TIP3    H178250   1.209   3.415   2.936 -1.2937  0.5901 -0.8033
18945TIP3    H278251   1.270   3.379   2.802  0.0986  0.0024 -0.0395
18946TIP3   OH278252   1.437   0.536  11.390 -0.9151  0.1483 -0.1897
18946TIP3    H178253   1.412   0.482  11.315 -0.2849  0.7072 -0.8171
18946TIP3    H278254   1.497   0.601  11.353 -1.5439  1.1870  0.5734
18947TIP3   OH278255   1.906   5.343  13.448  0.1542  0.1995 -0.0131
18947TIP3    H178256   1.824   5.393  13.443 -0.2002 -0.3245  0.3987
18947TIP3    H278257   1.923   5.335  13.542 -0.2644 -1.1974 -0.0391
18948TIP3   OH278258   0.061   1.421   2.248  1.0254 -0.1952  0.5634
18948TIP3    H178259   0.048   1.326   2.257  1.2796 -0.1270  1.7363
18948TIP3    H278260   0.073   1.434   2.154 -0.1575 -1.1806  0.2422
18949TIP3   OH278261   6.228   3.340   0.429 -0.5768 -0.1405  0.3284
18949TIP3    H178262   6.255   3.385   0.349  1.1328  0.3026  1.1188
18949TIP3    H278263   6.138   3.371   0.445  0.0846  2.0100  0.1486
18950TIP3   OH278264   5.523   3.162   3.137  0.2853  0.2209 -0.3802
18950TIP3    H178265   5.494   3.097   3.201  1.1325 -0.5256 -0.7385
18950TIP3    H278266   5.607   3.192   3.171 -0.5707  1.9446  0.3484
18951TIP3   OH278267   5.368   1.581   6.644 -0.1631  0.5575 -0.3387
18951TIP3    H178268   5.444   1.639   6.644  1.5496 -1.5634 -1.6120
18951TIP3    H278269   5.365   1.546   6.733 -0.3090  1.4226  0.0078
18952TIP3   OH278270   2.845   2.110  15.094  0.2743  0.2575 -0.6947
18952TIP3    H178271   2.891   2.115  15.177  0.8305 -1.5762 -0.8502
18952TIP3    H278272   2.775   2.175  15.101  1.2239  1.1797  0.5964
18953TIP3   OH278273   4.021   1.138   2.320  0.1125  0.6128 -0.1320
18953TIP3    H178274   4.036   1.081   2.245  0.6898 -0.5210  0.8186
18953TIP3    H278275   4.086   1.111   2.385  1.4277  3.3176 -0.1448
18954TIP3   OH278276   0.746   4.204  14.132  0.0537  0.0158 -0.3489
18954TIP3    H178277   0.787   4.120  14.113  1.5440  1.1169 -2.3190
18954TIP3    H278278   0.791   4.235  14.211  2.6055  0.8455 -2.0276
18955TIP3   OH278279   6.630   3.014  11.587  0.7136 -0.0684 -0.5477
18955TIP3    H178280   6.686   3.041  11.514  0.5762 -2.2372 -1.5386
18955TIP3    H278281   6.690   3.005  11.661  0.6503  3.4997  0.0911
18956TIP3   OH278282   2.712   3.370   2.028  0.2901 -0.1301 -0.9070
18956TIP3    H178283   2.772   3.347   2.099  0.2943  2.1635 -0.0640
18956TIP3    H278284   2.631   3.322   2.048  0.5851 -0.2058  0.1605
18957TIP3   OH278285   6.438   2.114   2.926  1.0533  0.5743 -0.3469
18957TIP3    H178286   6.458   2.145   3.014  0.3475 -1.4056  0.5808
18957TIP3    H278287   6.473   2.181   2.867 -0.9597  3.3948  1.4456
18958TIP3   OH278288   6.641   6.704   1.768 -0.2617  0.6458  0.2251
18958TIP3    H178289   6.673   6.656   1.844 -1.6010  1.2448  1.1984
18958TIP3    H278290   6.658   6.645   1.694  0.9284 -0.0055  0.9835
18959TIP3   OH278291   2.536   3.961  11.053  0.2953  0.8174 -0.3301
18959TIP3    H178292   2.627   3.984  11.033  0.4800 -0.5814 -1.2193
18959TIP3    H278293   2.485   4.036  11.023  1.1672  1.8022  0.5611
18960TIP3   OH278294   2.389   5.764  10.493 -0.4387  0.2979  0.0946
18960TIP3    H178295   2.451   5.703  10.532 -0.5986 -0.7727 -1.2308
18960TIP3    H278296   2.431   5.850  10.500  1.3571 -0.4308 -1.0328
18961TIP3   OH278297   5.804   0.954  13.629  0.5778 -0.2821  0.1339
18961TIP3    H178298   5.830   1.038  13.667  1.3308 -0.3478 -0.2340
18961TIP3    H278299   5.847   0.951  13.544 -0.9249 -0.2327 -0.6646
18962TIP3   OH278300   6.112   1.622  14.090  0.0961  0.1663 -0.1008
18962TIP3    H178301   6.030   1.657  14.126 -0.0303 -0.6083  0.3751
18962TIP3    H278302   6.086   1.584  14.006 -0.4266 -1.8228  0.9142
18963TIP3   OH278303   1.134   2.804  14.365 -0.4474  0.1729  0.7319
18963TIP3    H178304   1.100   2.716  14.384 -2.5323  0.4890 -1.1369
18963TIP3    H278305   1.208   2.789  14.306 -2.5665 -0.4035 -2.0412
18964TIP3   OH278306   5.926   4.784   2.920  0.2052 -0.1594  0.5677
18964TIP3    H178307   5.975   4.803   3.000  2.0284 -2.2784  0.0436
18964TIP3    H278308   5.968   4.839   2.853 -0.5030  0.6838  0.8065
18965TIP3   OH278309   3.906   0.417   0.652  0.2485 -1.1207  0.1056
18965TIP3    H178310   3.873   0.351   0.714 -1.0197 -1.3787 -0.8174
18965TIP3    H278311   3.851   0.407   0.574 -0.2961  1.3288  0.0836
18966TIP3   OH278312   4.621   2.123   4.429 -0.3188 -0.2460  0.4507
18966TIP3    H178313   4.596   2.188   4.495  1.8021 -0.7607  1.8691
18966TIP3    H278314   4.636   2.174   4.349 -3.5524  0.3218  0.0896
18967TIP3   OH278315   1.895   4.786   0.853 -0.7567  0.3795 -0.7348
18967TIP3    H178316   1.807   4.823   0.867  0.1529  2.2715  0.3842
18967TIP3    H278317   1.950   4.862   0.834  1.2098 -0.3803  1.5211
18968TIP3   OH278318   0.038   2.101   5.343  0.2242 -0.0646  0.2982
18968TIP3    H178319   0.013   2.165   5.409  0.0656  0.0323  0.1451
18968TIP3    H278320   0.018   2.144   5.259 -2.0189 -1.1571  0.2016
18969TIP3   OH278321   2.695   6.354  17.105 -0.1484 -0.3731 -0.3625
18969TIP3    H178322   2.775   6.341  17.156  0.9571 -0.9777 -2.1595
18969TIP3    H278323   2.692   6.279  17.045 -1.4063  0.2932 -1.1830
18970TIP3   OH278324   3.737   2.208  14.006  0.0796  0.4395  0.0586
18970TIP3    H178325   3.727   2.243  13.918 -0.6598 -0.4508 -0.2317
18970TIP3    H278326   3.758   2.115  13.993 -1.0074  0.0649  0.8104
18971TIP3   OH278327   0.311   2.564   2.520  0.0484  0.3198  0.3882
18971TIP3    H178328   0.308   2.655   2.492  0.1107  0.2319  0.0942
18971TIP3    H278329   0.280   2.566   2.610 -0.6943  0.5290  0.1318
18972TIP3   OH278330   3.251   2.626   6.436 -0.8320  0.1772 -0.0593
18972TIP3    H178331   3.233   2.681   6.361  0.2934  0.4857 -0.1160
18972TIP3    H278332   3.225   2.678   6.512 -0.7256  0.3836 -0.1663
18973TIP3   OH278333   4.659   0.564   2.841 -0.3886 -0.2092  0.0856
18973TIP3    H178334   4.668   0.470   2.823 -1.3333 -0.4226  0.6753
18973TIP3    H278335   4.617   0.569   2.926  2.0116  0.7839  1.3100
18974TIP3   OH278336   4.436   6.707   4.553 -0.1497 -0.1143  0.3050
18974TIP3    H178337   4.422   6.719   4.459 -0.4441  1.2933  0.5055
18974TIP3    H278338   4.354   6.667   4.584 -0.9289  1.3784  0.2818
18975TIP3   OH278339   1.769   6.710   1.398 -0.8688  0.9202 -0.5008
18975TIP3    H178340   1.696   6.711   1.336 -2.2867  0.2970  1.0779
18975TIP3    H278341   1.752   6.635   1.454  1.0837  0.6830 -0.1460
18976TIP3   OH278342   0.825   3.351   1.626  0.9332 -0.5322  0.8440
18976TIP3    H178343   0.745   3.308   1.658  1.6117  0.4334  4.1361
18976TIP3    H278344   0.794   3.433   1.588  0.1775 -1.3558 -0.4383
18977TIP3   OH278345   5.166   2.616   5.533  0.2024  0.1617  0.2589
18977TIP3    H178346   5.188   2.695   5.482 -1.5517 -0.8383 -2.2586
18977TIP3    H278347   5.073   2.627   5.554 -0.1926 -1.3982 -0.5499
18978TIP3   OH278348   0.681   4.559  17.473 -0.1733  0.1969 -0.5859
18978TIP3    H178349   0.664   4.646  17.509 -0.1844 -0.0381 -0.0206
18978TIP3    H278350   0.611   4.504  17.510  1.7723 -0.8171  1.8534
18979TIP3   OH278351   5.195   2.898  16.245 -0.2147 -0.6655  0.3016
18979TIP3    H178352   5.189   2.881  16.151 -1.0186  0.8115  0.0544
18979TIP3    H278353   5.132   2.969  16.261 -0.6703 -1.3951  2.0884
18980TIP3   OH278354   5.043   0.082  16.407 -1.0609 -0.1271 -0.5759
18980TIP3    H178355   5.035   0.045  16.319  2.8324 -0.4230 -1.0040
18980TIP3    H278356   5.101   0.158  16.395 -1.2503  0.4180  1.5900
18981TIP3   OH278357   4.352   4.887   3.681  0.7732  0.2853 -0.0757
18981TIP3    H178358   4.432   4.927   3.647  0.4380  0.1933 -0.9997
18981TIP3    H278359   4.324   4.828   3.611  0.7784 -0.9130  0.9033
18982TIP3   OH278360   3.030   4.198  16.073  0.2651  0.0081  0.2021
18982TIP3    H178361   3.120   4.200  16.039  0.9982 -2.7072  1.6982
18982TIP3    H278362   2.987   4.129  16.021 -0.0828 -0.6692  1.3610
18983TIP3   OH278363   1.419   5.646   1.172  0.2049  0.1711  0.7412
18983TIP3    H178364   1.338   5.608   1.137  1.4420 -2.1630  0.1812
18983TIP3    H278365   1.416   5.627   1.266 -0.5419  1.4304  0.9937
18984TIP3   OH278366   0.320   1.054  14.873 -0.2237 -0.3218 -0.0624
18984TIP3    H178367   0.325   0.975  14.927  0.0551 -0.3777 -0.1617
18984TIP3    H278368   0.316   1.020  14.783 -2.9478 -0.2947 -0.0199
18985TIP3   OH278369   4.222   2.911  12.918  0.0313 -0.4330  0.0101
18985TIP3    H178370   4.240   3.001  12.889 -0.1873 -0.9231 -1.7710
18985TIP3    H278371   4.169   2.874  12.848 -1.1986 -1.4968  1.4527
18986TIP3   OH278372   3.601   4.359  11.221 -0.4134 -0.1042  0.0570
18986TIP3    H178373   3.548   4.413  11.163 -0.2392 -0.0304 -0.0348
18986TIP3    H278374   3.671   4.325  11.165  0.0806  0.4236  0.3445
18987TIP3   OH278375   1.279   3.091   4.495  0.0634  0.6985  0.1558
18987TIP3    H178376   1.369   3.066   4.516  0.9257  1.9409 -1.7864
18987TIP3    H278377   1.249   3.022   4.435 -0.1685  0.4577  0.5462
18988TIP3   OH278378   6.503   5.181  16.679 -0.2327  0.1347 -0.7594
18988TIP3    H178379   6.519   5.174  16.773  0.3091  1.8995 -0.6789
18988TIP3    H278380   6.576   5.134  16.639 -0.7008 -1.0039 -0.3190
18989TIP3   OH278381   5.934   0.918   6.650  0.3893  0.2067  0.3391
18989TIP3    H178382   6.009   0.932   6.708 -0.3138  0.4720  1.1997
18989TIP3    H278383   5.861   0.960   6.695 -0.4294 -0.6924 -0.1266
18990TIP3   OH278384   0.155   1.379  13.856  0.3458  0.1993 -0.5223
18990TIP3    H178385   0.186   1.428  13.932  1.6182 -1.6398  0.2159
18990TIP3    H278386   0.061   1.395  13.853  0.3202  0.5403  1.2753
18991TIP3   OH278387   3.947   3.666  17.516  0.1768  0.2208 -0.2000
18991TIP3    H178388   3.873   3.621  17.556  1.0452  0.5795  1.9602
18991TIP3    H278389   3.968   3.614  17.439 -1.3446 -0.7558  0.0072
18992TIP3   OH278390   4.030   5.320   5.297 -0.3010  0.9510  0.1367
18992TIP3    H178391   4.109   5.368   5.273  0.4963 -0.2652  0.2104
18992TIP3    H278392   4.043   5.297   5.389 -0.6281  0.5510  0.0874
18993TIP3   OH278393   6.665   4.999   3.923  0.3096  0.2457  0.0656
18993TIP3    H178394   6.675   4.932   3.990 -0.8644  1.7204  1.8316
18993TIP3    H278395   6.754   5.030   3.906  0.9995 -2.2951 -1.4892
18994TIP3   OH278396   3.616   5.095  15.224 -0.7580 -0.1667  0.5288
18994TIP3    H178397   3.633   5.189  15.224  0.3898 -0.3552  1.1235
18994TIP3    H278398   3.556   5.081  15.151  0.9927  0.6985 -1.1614
18995TIP3   OH278399   4.617   3.519   0.991  0.0323  0.3121  0.7918
18995TIP3    H178400   4.559   3.556   1.058  0.1371  0.6863  0.6779
18995TIP3    H278401   4.637   3.431   1.023 -2.3573 -0.6846 -0.2353
18996TIP3   OH278402   1.833   4.234   2.348  0.4893  0.0788  0.6668
18996TIP3    H178403   1.867   4.145   2.342  0.8303 -0.0587  3.3613
18996TIP3    H278404   1.737   4.224   2.346  0.5311 -0.2946  0.5265
18997TIP3   OH278405   5.363   5.404  12.909  0.3830  0.3078  0.2311
18997TIP3    H178406   5.267   5.401  12.911  0.2582 -0.5686 -2.5142
18997TIP3    H278407   5.387   5.353  12.832  3.0328  1.3259  0.2637
18998TIP3   OH278408   5.516   5.601   2.425  0.0157  0.0907 -0.1251
18998TIP3    H178409   5.437   5.558   2.458  0.4592  1.3171  2.8745
18998TIP3    H278410   5.580   5.531   2.416 -0.1700 -0.3616  1.6886
18999TIP3   OH278411   2.338   0.368   3.412  0.0951  0.0345  0.1571
18999TIP3    H178412   2.376   0.367   3.500  0.3183 -0.0486  0.0616
18999TIP3    H278413   2.271   0.436   3.415  0.3169  0.2490  0.3004
19000TIP3   OH278414   0.615   3.126  11.771  0.2768 -0.4172 -0.1054
19000TIP3    H178415   0.638   3.211  11.811  0.1376  1.1564 -3.1083
19000TIP3    H278416   0.521   3.133  11.753  0.3552 -1.0543 -0.7819
19001TIP3   OH278417   0.340   0.006  13.370  0.8181 -0.7151 -0.1501
19001TIP3    H178418   0.316   0.077  13.430 -0.6305 -0.5718 -0.8622
19001TIP3    H278419   0.285   0.020  13.293  3.2476 -0.3552 -1.9395
19002TIP3   OH278420   0.374   1.824   3.002  0.6508  0.2090  0.2758
19002TIP3    H178421   0.388   1.915   2.976  1.0027  0.0393 -0.1467
19002TIP3    H278422   0.317   1.829   3.079  0.4237  0.7719  0.0778
19003TIP3   OH278423   5.123   4.346  17.165 -0.2967  0.3175 -0.1867
19003TIP3    H178424   5.150   4.268  17.116  1.0777  0.1663  0.7335
19003TIP3    H278425   5.105   4.313  17.254 -2.5441  0.6139 -0.4726
19004TIP3   OH278426   0.226   2.190  11.872 -0.2309  0.1524  0.2579
19004TIP3    H178427   0.289   2.159  11.937  1.5496  2.6270 -0.1425
19004TIP3    H278428   0.142   2.192  11.918  0.7292  0.5029  2.0738
19005TIP3   OH278429   3.344   6.225   4.872  0.0889  0.3717 -0.5266
19005TIP3    H178430   3.340   6.280   4.951  0.5900 -0.6862  0.2638
19005TIP3    H278431   3.398   6.275   4.811  1.3128  0.3894  0.5108
19006TIP3   OH278432   1.702   2.823  17.347 -0.0828 -0.1289  0.0385
19006TIP3    H178433   1.675   2.740  17.388 -1.8481 -0.3082 -1.3413
19006TIP3    H278434   1.640   2.835  17.275  1.2669  1.4997 -0.9260
19007TIP3   OH278435   4.152   3.686   5.385 -0.4767 -0.5574 -0.1619
19007TIP3    H178436   4.088   3.635   5.434  0.5134 -1.2665  0.4249
19007TIP3    H278437   4.145   3.655   5.295 -0.6762 -0.9187 -0.0223
19008TIP3   OH278438   2.258   4.591   5.205 -0.5569 -0.4439  0.2409
19008TIP3    H178439   2.263   4.499   5.232  2.7339 -0.3326  0.3722
19008TIP3    H278440   2.341   4.629   5.232 -1.8583  2.6755  0.2999
19009TIP3   OH278441   1.761   2.794  16.862 -0.4943  0.5958  0.2213
19009TIP3    H178442   1.768   2.705  16.827  0.6665  1.4402 -1.8705
19009TIP3    H278443   1.851   2.828  16.857 -1.1379  2.2949 -0.1952
19010TIP3   OH278444   1.364   0.850  11.657  0.0985 -0.5008  0.7974
19010TIP3    H178445   1.273   0.870  11.677  0.1430 -0.4710  0.9755
19010TIP3    H278446   1.370   0.754  11.665 -0.1275 -0.6014 -0.1118
19011TIP3   OH278447   1.789   5.612  16.064 -0.3093 -0.1982 -0.0543
19011TIP3    H178448   1.813   5.526  16.099 -1.0274 -0.2869  0.2313
19011TIP3    H278449   1.697   5.624  16.089 -1.0328 -0.4829 -2.3081
19012TIP3   OH278450   6.221   3.590  16.288 -0.6289  0.1132 -0.4848
19012TIP3    H178451   6.190   3.645  16.216  2.8325  1.5158 -1.0823
19012TIP3    H278452   6.188   3.635  16.367  0.7520  2.2503 -1.0266
19013TIP3   OH278453   6.271   4.207   5.954  0.3556  0.0011  0.1303
19013TIP3    H178454   6.356   4.232   5.989  0.8789 -0.8602 -0.4586
19013TIP3    H278455   6.244   4.132   6.007 -0.9274  1.3877  1.5167
19014TIP3   OH278456   1.322   2.956  13.432 -0.0967  0.2976  0.1350
19014TIP3    H178457   1.331   2.930  13.524 -0.1874 -0.6076 -0.0957
19014TIP3    H278458   1.230   2.982  13.423 -0.2336 -0.1539  0.1791
19015TIP3   OH278459   4.606   5.178  13.527 -0.4381  0.6554  0.2091
19015TIP3    H178460   4.533   5.122  13.503  1.1067 -0.9954 -0.8999
19015TIP3    H278461   4.573   5.232  13.599 -2.1731 -1.2710  0.9405
19016TIP3   OH278462   5.970   0.124   1.198  0.1562  0.2473 -0.4571
19016TIP3    H178463   6.057   0.149   1.165  0.2304 -1.6603 -1.8693
19016TIP3    H278464   5.909   0.161   1.134 -0.1689  1.8390  0.6892
19017TIP3   OH278465   3.309   6.424  11.235  0.8443 -0.5553 -0.1039
19017TIP3    H178466   3.388   6.475  11.218  1.1906 -1.0395  0.0216
19017TIP3    H278467   3.274   6.461  11.316  0.0829  0.6789 -0.9572
19018TIP3   OH278468   4.463   1.083  12.641 -0.1342  0.2799 -0.3512
19018TIP3    H178469   4.450   1.051  12.731 -0.5281 -1.7711 -1.0913
19018TIP3    H278470   4.392   1.146  12.627 -1.3457 -0.9475  0.0939
19019TIP3   OH278471   3.605   6.312   5.751  0.3891 -0.4126  0.0374
19019TIP3    H178472   3.579   6.300   5.842  0.0406  1.1819  0.1653
19019TIP3    H278473   3.674   6.378   5.754 -0.7417  0.8729 -0.9806
19020TIP3   OH278474   2.242   5.068  15.722  0.0561 -0.2282  0.0683
19020TIP3    H178475   2.303   5.068  15.648 -1.3653 -0.1307 -1.1527
19020TIP3    H278476   2.282   5.009  15.786  2.1049  0.9012 -0.0697
19021TIP3   OH278477   0.081   4.505  17.130 -0.0341 -0.1939  0.4786
19021TIP3    H178478   0.084   4.508  17.226  2.3084 -0.3552  0.4541
19021TIP3    H278479   0.160   4.458  17.105  0.3184  1.3900 -1.5889
19022TIP3   OH278480   0.399   6.512   6.257 -1.1151  0.2775 -0.5040
19022TIP3    H178481   0.460   6.439   6.259 -2.1885 -0.6436  0.7074
19022TIP3    H278482   0.452   6.588   6.233 -0.2716 -1.1310 -3.5165
19023TIP3   OH278483   3.310   4.226  14.361  0.3563  0.0071 -0.3004
19023TIP3    H178484   3.375   4.290  14.335  1.0965 -0.4522  0.3812
19023TIP3    H278485   3.338   4.145  14.317 -1.9007  0.5974 -3.1664
19024TIP3   OH278486   2.304   4.255  12.870 -0.0235  0.0349  0.2040
19024TIP3    H178487   2.228   4.293  12.826  1.6486  0.3854 -2.5583
19024TIP3    H278488   2.272   4.171  12.904 -2.0131  0.8632  0.5347
19025TIP3   OH278489   4.582   0.998  16.042 -0.5930 -0.3429  0.0304
19025TIP3    H178490   4.599   0.912  16.080  0.8136 -0.2012 -0.2477
19025TIP3    H278491   4.545   0.978  15.956 -0.5747 -0.6683  0.0942
19026TIP3   OH278492   5.976   3.163  16.414 -0.5572  0.1691 -0.1476
19026TIP3    H178493   5.964   3.250  16.375  1.3859  0.4836 -0.1338
19026TIP3    H278494   5.906   3.110  16.377 -1.9455  1.7931  0.0313
19027TIP3   OH278495   2.175   2.623   1.457  0.2272 -0.1475 -0.1542
19027TIP3    H178496   2.233   2.691   1.421  1.6503 -1.5649 -0.6587
19027TIP3    H278497   2.231   2.574   1.517 -0.7102 -1.0494  0.0024
19028TIP3   OH278498   3.869   6.299   1.898 -0.2670  0.7789  0.4588
19028TIP3    H178499   3.857   6.327   1.989  0.0275 -0.5310  0.9144
19028TIP3    H278500   3.951   6.251   1.898  1.0418  2.8494 -1.0262
19029TIP3   OH278501   2.027   5.057   4.007 -0.1465 -0.3381 -0.2970
19029TIP3    H178502   2.002   5.095   4.092 -2.6881 -1.7769 -0.3186
19029TIP3    H278503   2.116   5.026   4.021  0.9831  2.8525  0.6159
19030TIP3   OH278504   5.999   3.360   4.706 -0.1301 -0.1138  0.1929
19030TIP3    H178505   6.051   3.340   4.629 -0.0924  0.5178  0.0505
19030TIP3    H278506   6.055   3.335   4.780 -0.7231 -2.1114  0.0320
19031TIP3   OH278507   1.054   1.994   2.979  0.1535  0.0117  0.2563
19031TIP3    H178508   1.089   2.005   2.890 -1.1075  3.6941  0.0494
19031TIP3    H278509   1.115   2.043   3.035  0.1011 -1.0102  1.2427
19032TIP3   OH278510   1.101   4.930   4.905 -0.1924  0.0114  0.4405
19032TIP3    H178511   1.073   5.006   4.957 -3.1967 -0.6607  0.0197
19032TIP3    H278512   1.129   4.865   4.970 -1.5101  0.0780  1.1207
19033TIP3   OH278513   5.168   2.908   2.274 -0.0417  0.2126 -1.0513
19033TIP3    H178514   5.239   2.970   2.290 -0.2272  0.3171 -0.5978
19033TIP3    H278515   5.189   2.833   2.330 -1.3404  1.0818  0.7346
19034TIP3   OH278516   1.208   2.421   0.782  0.0591  0.0117  0.5953
19034TIP3    H178517   1.127   2.468   0.762  1.3291  2.0166 -0.2501
19034TIP3    H278518   1.182   2.353   0.843 -2.5130 -0.4649 -0.8853
19035TIP3   OH278519   4.330   3.487   2.360 -0.7411 -0.5476 -0.0441
19035TIP3    H178520   4.387   3.468   2.286  2.0193  0.2817  1.7390
19035TIP3    H278521   4.314   3.581   2.354 -0.4371 -0.4618  0.4383
19036TIP3   OH278522   6.316   2.062   5.109  0.2325 -0.2190 -0.0450
19036TIP3    H178523   6.225   2.064   5.136  0.2013 -0.7566 -0.1107
19036TIP3    H278524   6.350   1.980   5.145  0.2755 -0.7994 -1.3622
19037TIP3   OH278525   5.799   2.670  14.697  0.7206  0.2348 -0.3817
19037TIP3    H178526   5.844   2.753  14.712  0.3482  0.0238  2.3296
19037TIP3    H278527   5.725   2.693  14.641  1.5829  1.3902 -1.0972
19038TIP3   OH278528   3.135   5.824   1.354 -0.3890  0.4080 -0.5485
19038TIP3    H178529   3.184   5.746   1.379  0.3082  0.8783 -0.4286
19038TIP3    H278530   3.055   5.821   1.407 -0.2226 -0.0552 -0.3234
19039TIP3   OH278531   0.075   4.843  15.802 -0.1133 -1.0542  0.3218
19039TIP3    H178532   0.009   4.890  15.752  1.6540 -1.2250 -2.4145
19039TIP3    H278533   0.094   4.900  15.877 -1.3967  0.2734 -0.3137
19040TIP3   OH278534   4.124   3.729   0.387  0.0646  0.3665  0.0352
19040TIP3    H178535   4.105   3.640   0.357  0.8783 -0.0673  0.7550
19040TIP3    H278536   4.117   3.724   0.482  0.7777  0.9036  0.1255
19041TIP3   OH278537   0.336   1.364   4.100  0.0222 -0.4184 -0.2272
19041TIP3    H178538   0.315   1.271   4.102 -0.5672 -0.2889  1.3591
19041TIP3    H278539   0.338   1.386   4.007 -0.1852 -1.9270 -0.6226
19042TIP3   OH278540   5.498   1.454   4.011  0.1134  0.1892  0.4681
19042TIP3    H178541   5.589   1.434   4.032  0.4738  0.9726 -0.2664
19042TIP3    H278542   5.471   1.384   3.951  0.4311  0.2859  0.2083
19043TIP3   OH278543   3.227   4.251   5.267 -0.8254  0.2377 -0.3339
19043TIP3    H178544   3.156   4.256   5.330 -0.2201  2.6011  0.2757
19043TIP3    H278545   3.288   4.187   5.304 -1.4107  0.1159  0.4361
19044TIP3   OH278546   0.689   2.113  17.306 -0.4178 -0.2005 -0.0713
19044TIP3    H178547   0.643   2.099  17.388 -0.9126  1.7284  0.0173
19044TIP3    H278548   0.621   2.135  17.243  0.0854 -0.4008 -0.6994
19045TIP3   OH278549   5.300   1.269   3.378 -0.3474  0.1864  0.0165
19045TIP3    H178550   5.303   1.174   3.363 -2.0591 -0.0342  0.8973
19045TIP3    H278551   5.388   1.291   3.408  0.4145 -0.9075 -1.2785
19046TIP3   OH278552   5.170   6.547  12.856 -0.0701  0.3641 -0.3961
19046TIP3    H178553   5.078   6.550  12.832 -0.0596 -0.0650 -0.4903
19046TIP3    H278554   5.183   6.461  12.894 -0.0099  0.9067  0.8585
19047TIP3   OH278555   0.574   5.106  13.186 -0.2337  0.0058 -0.3370
19047TIP3    H178556   0.515   5.159  13.132  0.4195 -1.7785 -2.9804
19047TIP3    H278557   0.597   5.031  13.131 -1.3253 -3.2978  3.2300
19048TIP3   OH278558   6.630   0.061   1.486 -0.2543  0.7383 -0.7063
19048TIP3    H178559   6.558   0.085   1.428  0.0099  1.9547 -0.5585
19048TIP3    H278560   6.664   0.144   1.518  0.4420  0.1369  0.1821
19049TIP3   OH278561   0.471   6.377  11.821  0.4117 -0.0783 -0.6381
19049TIP3    H178562   0.410   6.394  11.893  0.6664  0.0522 -0.4534
19049TIP3    H278563   0.545   6.332  11.862  0.3067 -0.5089 -0.9131
19050TIP3   OH278564   6.476   3.222   4.207  0.1085  0.4466  0.5057
19050TIP3    H178565   6.517   3.172   4.137  2.9265 -0.0404  2.3508
19050TIP3    H278566   6.456   3.307   4.168  0.5683 -0.1805 -1.1394
19051TIP3   OH278567   3.134   1.654   5.124 -0.1862 -0.1299  0.1051
19051TIP3    H178568   3.137   1.671   5.218  1.5166 -0.0403  0.0688
19051TIP3    H278569   3.110   1.738   5.085  1.0623  0.3739  0.3646
19052TIP3   OH278570   3.744   2.418   3.894  0.0801 -0.2834  0.0675
19052TIP3    H178571   3.837   2.431   3.877  0.2331 -2.4481 -1.0703
19052TIP3    H278572   3.711   2.506   3.917  2.1590  0.7141 -0.5347
19053TIP3   OH278573   6.534   1.906   5.356 -0.0322 -0.0456  0.2741
19053TIP3    H178574   6.546   1.887   5.449  2.0939  0.1913  0.0973
19053TIP3    H278575   6.605   1.967   5.335 -0.1045 -0.5666 -1.6356
19054TIP3   OH278576   3.376   3.983  12.290 -0.0824 -0.8059  0.3224
19054TIP3    H178577   3.328   3.953  12.368 -0.9259 -1.0751 -0.2809
19054TIP3    H278578   3.414   3.904  12.253 -2.2139 -1.2248 -1.2061
19055TIP3   OH278579   4.350   5.426  11.280  0.0531 -0.3638  0.4797
19055TIP3    H178580   4.416   5.434  11.211 -1.1400 -2.1015 -0.9731
19055TIP3    H278581   4.385   5.360  11.339  0.6092  0.3758  0.9980
19056TIP3   OH278582   0.678   1.414  12.446  0.4201 -0.3867 -0.7991
19056TIP3    H178583   0.689   1.413  12.351  0.4322 -0.9434 -0.7963
19056TIP3    H278584   0.767   1.419  12.481  0.3825  0.5652 -0.8187
19057TIP3   OH278585   2.595   5.640  10.630 -0.2570  0.3992 -0.2135
19057TIP3    H178586   2.603   5.629  10.725 -1.1492  1.2541 -0.0207
19057TIP3    H278587   2.681   5.672  10.603  0.6259 -1.6238 -0.0058
19058TIP3   OH278588   1.387   0.698  13.972 -0.2651  0.1637  0.6021
19058TIP3    H178589   1.337   0.642  14.032 -1.5193  1.4256  0.7865
19058TIP3    H278590   1.385   0.651  13.889 -0.5351 -0.4816  0.9620
19059TIP3   OH278591   1.480   3.704  10.873 -0.8904 -0.3926 -0.6499
19059TIP3    H178592   1.514   3.700  10.784  3.2949 -0.5919  0.7523
19059TIP3    H278593   1.490   3.615  10.907  1.6985  0.4835  1.2116
19060TIP3   OH278594   4.310   5.790   5.511  0.2638  0.3357 -0.1552
19060TIP3    H178595   4.345   5.827   5.593 -0.5862 -0.6611  0.6780
19060TIP3    H278596   4.372   5.819   5.444  1.6281  0.2149  0.9977
19061TIP3   OH278597   0.185   1.052   5.587  0.1504 -0.3114 -0.5623
19061TIP3    H178598   0.192   1.096   5.672 -1.1506  1.9341 -1.5349
19061TIP3    H278599   0.093   1.025   5.581  0.0019  0.3612 -1.6046
19062TIP3   OH278600   4.564   2.290   2.885 -0.3277 -0.3811 -0.2442
19062TIP3    H178601   4.607   2.299   2.970 -1.2891 -0.8790  0.3164
19062TIP3    H278602   4.575   2.376   2.843  1.9894 -0.7515 -0.5374
19063TIP3   OH278603   3.801   4.414   5.138 -0.0797  0.3699  0.0767
19063TIP3    H178604   3.792   4.425   5.043 -1.2617 -0.2814  0.0916
19063TIP3    H278605   3.826   4.323   5.149 -1.4995  0.0086  0.4487
19064TIP3   OH278606   3.012   2.426  11.593 -0.6173 -0.0570  0.2235
19064TIP3    H178607   3.045   2.465  11.674  0.2772 -1.3723  0.5086
19064TIP3    H278608   3.084   2.436  11.531 -1.3330  1.0300 -0.4733
19065TIP3   OH278609   3.073   0.291   5.450 -0.2596  0.6759  0.0993
19065TIP3    H178610   3.021   0.228   5.400 -0.1747  0.2318  0.5550
19065TIP3    H278611   3.133   0.329   5.386  0.0402 -0.0941 -0.0903
19066TIP3   OH278612   3.912   0.446   3.962  0.2530  0.1360 -0.3991
19066TIP3    H178613   3.858   0.368   3.964  1.1653 -0.5001  0.3548
19066TIP3    H278614   3.854   0.515   3.929 -0.8562 -0.6261 -0.0927
19067TIP3   OH278615   3.590   6.627   5.091 -0.6184 -0.0323 -0.2511
19067TIP3    H178616   3.557   6.713   5.116 -0.6125  0.0337 -0.4747
19067TIP3    H278617   3.683   6.641   5.072 -0.0457 -0.4966  1.8868
19068TIP3   OH278618   1.818   1.975  15.856 -0.2365  0.0339 -0.8378
19068TIP3    H178619   1.775   1.890  15.867  0.0101 -0.0286 -0.3595
19068TIP3    H278620   1.894   1.971  15.914  1.3749 -0.5058 -2.8592
19069TIP3   OH278621   5.948   4.921   3.172 -0.0629  0.6425 -0.2437
19069TIP3    H178622   6.008   4.913   3.246  1.2754 -1.1253 -1.4146
19069TIP3    H278623   5.955   5.013   3.145 -0.2183  1.1918  1.4902
19070TIP3   OH278624   4.408   3.545   4.331  0.6077  0.0492 -0.1307
19070TIP3    H178625   4.319   3.561   4.363  0.8201  1.6381 -0.2817
19070TIP3    H278626   4.450   3.631   4.333  1.8443 -0.5147 -0.9717
19071TIP3   OH278627   1.047   3.717  11.515 -0.5735 -0.0369  0.0628
19071TIP3    H178628   1.079   3.655  11.449  0.0047  0.3240 -0.0066
19071TIP3    H278629   0.962   3.746  11.481 -0.4355 -0.1124 -0.3562
19072TIP3   OH278630   6.139   5.245  17.107 -0.4271  0.3813  0.2231
19072TIP3    H178631   6.055   5.251  17.153 -1.3407  0.2684 -1.3565
19072TIP3    H278632   6.156   5.151  17.100  0.4256  0.4085  1.5053
19073TIP3   OH278633   0.137   0.552   4.181  0.2840 -0.2261 -0.0677
19073TIP3    H178634   0.057   0.595   4.211  1.0343  0.6527  0.7058
19073TIP3    H278635   0.134   0.464   4.219  0.1759  0.1493  0.7967
19074TIP3   OH278636   6.567   5.171   2.272 -0.5731  0.6291  0.1837
19074TIP3    H178637   6.544   5.088   2.313  0.1508 -0.2301 -1.0850
19074TIP3    H278638   6.582   5.231   2.345 -0.7621 -0.4329  1.1215
19075TIP3   OH278639   5.597   4.092   0.048  0.5181  0.4818  0.5719
19075TIP3    H178640   5.636   4.072  -0.036 -0.7288 -0.3888  0.1689
19075TIP3    H278641   5.651   4.045   0.112  0.9118  0.3826  0.1660
19076TIP3   OH278642   5.200   4.364   5.851  0.1149 -0.2102 -0.0227
19076TIP3    H178643   5.121   4.310   5.855 -1.3295  1.7767 -0.6853
19076TIP3    H278644   5.228   4.359   5.759  0.1367 -0.0259 -0.0251
19077TIP3   OH278645   3.738   5.047  12.575 -0.1976  0.8521 -0.2290
19077TIP3    H178646   3.674   5.067  12.643 -1.8192  0.6615 -1.6363
19077TIP3    H278647   3.729   4.953  12.560  0.3158  0.8488 -0.5410
19078TIP3   OH278648   2.198   3.098  15.356 -0.5147 -0.0723 -0.3403
19078TIP3    H178649   2.267   3.075  15.419  0.3367  1.5255 -0.6271
19078TIP3    H278650   2.179   3.190  15.374 -3.3739 -0.7157  0.4326
19079TIP3   OH278651   0.901   2.282   1.681 -0.1475 -0.4143 -0.2102
19079TIP3    H178652   0.947   2.252   1.602 -0.2456 -2.0197  0.3141
19079TIP3    H278653   0.969   2.290   1.747 -0.2406 -0.2458 -0.1342
19080TIP3   OH278654   1.707   4.118   1.273  0.7884  0.6180  0.2642
19080TIP3    H178655   1.746   4.169   1.344 -2.7702  0.3437  2.6505
19080TIP3    H278656   1.678   4.036   1.314 -0.2338 -0.1341 -1.7884
19081TIP3   OH278657   5.036   6.162  15.587 -0.0440 -0.3333  0.6282
19081TIP3    H178658   5.065   6.167  15.496  0.6550  0.5923  0.8846
19081TIP3    H278659   4.948   6.125  15.583 -0.1076 -0.0883 -0.4428
19082TIP3   OH278660   6.106   2.192   4.421  0.4119 -0.0453 -0.6032
19082TIP3    H178661   6.184   2.227   4.464 -0.0110  2.2041 -1.5190
19082TIP3    H278662   6.140   2.150   4.342  0.7433  0.6417 -0.8365
19083TIP3   OH278663   0.171   2.972  13.075 -0.2574  0.1028 -0.2646
19083TIP3    H178664   0.172   2.881  13.045  1.1625  0.1043 -0.3022
19083TIP3    H278665   0.201   3.023  13.000 -0.2243  0.5028  0.0161
19084TIP3   OH278666   6.529   3.712  12.692  0.1378 -0.4302 -1.1049
19084TIP3    H178667   6.494   3.760  12.767 -0.2650 -0.5316 -1.2236
19084TIP3    H278668   6.557   3.780  12.631 -0.1549 -0.3480 -1.1461
19085TIP3   OH278669   1.996   4.288   2.599  0.0923 -0.6738  0.6151
19085TIP3    H178670   2.082   4.306   2.560 -0.0374  2.1130  1.4445
19085TIP3    H278671   1.935   4.292   2.525  0.4944 -1.3444  0.2345
19086TIP3   OH278672   1.814   4.212   3.096  0.4260  0.2197  0.1189
19086TIP3    H178673   1.728   4.188   3.061  1.1001 -0.8588 -0.8881
19086TIP3    H278674   1.872   4.206   3.020  1.8393 -1.5405  1.2878
19087TIP3   OH278675   5.751   3.245   3.271 -0.2578  0.2323  0.0459
19087TIP3    H178676   5.761   3.337   3.246 -0.6207  0.5232  0.9145
19087TIP3    H278677   5.837   3.207   3.255  0.4536  1.1749  1.3582
19088TIP3   OH278678   0.715   5.410  16.529 -0.0882 -0.1323 -0.3922
19088TIP3    H178679   0.731   5.500  16.499 -0.1560  0.1955  0.5289
19088TIP3    H278680   0.621   5.405  16.542  0.0773  0.1684  1.0728
19089TIP3   OH278681   2.482   0.718  13.328 -0.5637  0.0780  0.5789
19089TIP3    H178682   2.398   0.701  13.371 -0.2162 -1.1279  0.8139
19089TIP3    H278683   2.525   0.633  13.325  0.5800  0.6495  0.2873
19090TIP3   OH278684   0.104   5.240   4.763  0.3567 -0.0340 -0.4542
19090TIP3    H178685   0.086   5.320   4.813 -2.0567 -0.4374 -0.5883
19090TIP3    H278686   0.087   5.169   4.825  1.7267 -0.4909 -0.5704
19091TIP3   OH278687   3.346   6.634   1.279 -0.4588  0.0132  0.6441
19091TIP3    H178688   3.440   6.640   1.263 -0.4040 -1.0346  0.5032
19091TIP3    H278689   3.339   6.604   1.369 -0.5655 -2.4799 -0.1154
19092TIP3   OH278690   4.663   3.712  12.393  0.0023  0.1420  0.3861
19092TIP3    H178691   4.569   3.730  12.399  0.0296  0.8830 -1.2090
19092TIP3    H278692   4.668   3.628  12.347  0.1316  0.3327  0.0509
19093TIP3   OH278693   5.749   2.821   5.020  0.4969  0.1635 -0.1608
19093TIP3    H178694   5.681   2.780   4.967 -0.6895  1.0452  0.6336
19093TIP3    H278695   5.770   2.902   4.973 -1.1570  1.3684  1.0742
19094TIP3   OH278696   2.431   4.970  16.309  0.0908 -0.1247 -0.4994
19094TIP3    H178697   2.470   4.963  16.397 -1.3581  0.1015  0.1843
19094TIP3    H278698   2.490   5.029  16.262 -0.6339  2.1272  1.2506
19095TIP3   OH278699   2.252   4.422  14.908  0.0555  0.2542  0.1519
19095TIP3    H178700   2.285   4.461  14.990 -1.1666  0.2413  0.6724
19095TIP3    H278701   2.185   4.361  14.937  1.4411 -1.7575 -0.6999
19096TIP3   OH278702   1.503   2.293   4.494 -0.6681 -0.3034  0.5915
19096TIP3    H178703   1.493   2.200   4.516 -1.4797 -0.1937  0.6986
19096TIP3    H278704   1.427   2.313   4.439 -0.3322  0.2212  0.3146
19097TIP3   OH278705   1.373   3.313   4.244  0.0249  0.6916  0.1394
19097TIP3    H178706   1.327   3.398   4.246  0.8041  1.1104  1.2681
19097TIP3    H278707   1.453   3.328   4.294  1.3202 -0.0856 -1.6052
19098TIP3   OH278708   3.584   3.569   4.999  0.1245  0.1162  0.3974
19098TIP3    H178709   3.647   3.575   5.071 -1.6725 -1.0434  2.1959
19098TIP3    H278710   3.594   3.651   4.951  2.1260  0.4770  1.3224
19099TIP3   OH278711   4.697   4.196  13.937 -0.2652  0.2634  0.1088
19099TIP3    H178712   4.720   4.139  13.863  0.0719 -0.7400  0.9644
19099TIP3    H278713   4.782   4.220  13.975 -0.4173 -2.1822  2.3318
19100TIP3   OH278714   6.549   5.270   3.156  0.2636  0.0463 -0.3744
19100TIP3    H178715   6.554   5.318   3.073 -2.4578 -0.2664 -0.7996
19100TIP3    H278716   6.631   5.220   3.159 -0.9510 -2.8596 -4.8079
19101TIP3   OH278717   5.173   1.662   0.213 -0.4213 -0.0140 -0.4419
19101TIP3    H178718   5.132   1.732   0.162  0.3884 -0.0013 -1.0947
19101TIP3    H278719   5.168   1.692   0.304  2.0281  2.0650 -0.8672
19102TIP3   OH278720   3.644   0.693   1.406 -0.2778 -0.4176  0.6226
19102TIP3    H178721   3.636   0.668   1.314 -0.0020  1.0107  0.1761
19102TIP3    H278722   3.726   0.744   1.410 -0.3466 -0.3576  1.6293
19103TIP3   OH278723   1.688   0.305  16.624 -0.0031  0.3615  0.5267
19103TIP3    H178724   1.780   0.282  16.612  0.2918  1.6179  0.2773
19103TIP3    H278725   1.641   0.224  16.603  1.1379 -1.2279  3.5617
19104TIP3   OH278726   1.620   0.923   1.721  0.1564  0.2204 -0.0281
19104TIP3    H178727   1.544   0.959   1.675  1.3688  2.3936 -0.4336
19104TIP3    H278728   1.656   0.859   1.659 -1.5763 -1.2409  0.3824
19105TIP3   OH278729   4.247   0.410  15.214 -0.1368 -0.2695  0.5803
19105TIP3    H178730   4.238   0.410  15.309 -0.4073 -0.8610  0.5555
19105TIP3    H278731   4.314   0.345  15.196  0.0901  0.0155  0.3774
19106TIP3   OH278732   3.370   2.440  13.842  0.3010  0.0920 -0.1908
19106TIP3    H178733   3.351   2.398  13.926 -1.4427  1.7850  0.3473
19106TIP3    H278734   3.284   2.450  13.801  1.1406 -0.8611 -2.2959
19107TIP3   OH278735   1.531   4.179   2.749 -0.1282 -0.3813 -0.3714
19107TIP3    H178736   1.489   4.256   2.789 -1.0247 -0.3030 -1.4106
19107TIP3    H278737   1.613   4.213   2.714  1.1704 -0.6543  2.1946
19108TIP3   OH278738   5.618   2.730   2.855  0.2290  0.6424 -0.2329
19108TIP3    H178739   5.589   2.639   2.868 -1.2062  1.1308  0.2363
19108TIP3    H278740   5.617   2.768   2.942 -0.1294  1.3583 -0.5428
19109TIP3   OH278741   3.885   2.162   3.204 -0.8766 -1.0219 -0.0233
19109TIP3    H178742   3.822   2.110   3.154 -1.3021 -0.9600  0.4324
19109TIP3    H278743   3.969   2.121   3.188 -0.9206 -0.6666 -1.2338
19110TIP3   OH278744   1.126   6.075  15.920  0.3099 -0.2839 -0.6178
19110TIP3    H178745   1.113   5.981  15.922  3.7946 -0.9999  3.6759
19110TIP3    H278746   1.041   6.112  15.943 -0.0553 -2.8818  3.0407
19111TIP3   OH278747   2.012   1.997   4.755 -0.2259 -0.0031  0.1661
19111TIP3    H178748   2.020   2.027   4.846 -0.3989  0.9746 -0.1306
19111TIP3    H278749   2.086   2.038   4.710 -0.0971 -0.5473 -0.1277
19112TIP3   OH278750   6.126   0.171   1.483  0.2024 -0.1566 -0.5381
19112TIP3    H178751   6.192   0.172   1.414  0.0019 -1.1786 -0.7568
19112TIP3    H278752   6.106   0.264   1.499  1.0451  0.1229 -1.0772
19113TIP3   OH278753   5.208   0.446  13.578 -0.3139  0.0539  0.4208
19113TIP3    H178754   5.291   0.455  13.624  0.2154 -1.0888 -0.2785
19113TIP3    H278755   5.149   0.409  13.644  0.3790 -1.3443  0.2981
19114TIP3   OH278756   5.042   3.234   3.944  0.5077 -0.5623  0.2605
19114TIP3    H178757   5.111   3.175   3.913  0.7685  0.1359 -0.5358
19114TIP3    H278758   4.972   3.226   3.879  0.1941 -0.6312  0.6048
19115TIP3   OH278759   5.280   6.430  15.985  0.9156 -0.1649 -0.8181
19115TIP3    H178760   5.374   6.439  15.993  1.0036 -1.5976  0.1787
19115TIP3    H278761   5.248   6.518  15.963  2.2935  0.7339  0.5864
19116TIP3   OH278762   1.928   4.721  17.386 -0.3359  0.3218 -0.1677
19116TIP3    H178763   1.840   4.701  17.354 -0.4764 -1.2899  1.0976
19116TIP3    H278764   1.930   4.817  17.393 -1.9152  0.3977 -0.4117
19117TIP3   OH278765   5.692   2.866  13.215  0.3973  1.2473 -0.4955
19117TIP3    H178766   5.784   2.848  13.230 -0.1307 -0.4771  1.0287
19117TIP3    H278767   5.656   2.782  13.187 -1.0313  1.4424  0.6535
19118TIP3   OH278768   2.834   5.010  13.979  0.3533 -0.2623 -0.5936
19118TIP3    H178769   2.898   5.077  14.003 -0.6287  0.7992 -0.8551
19118TIP3    H278770   2.862   4.982  13.892  2.1526 -1.9516  0.4475
19119TIP3   OH278771   0.946   3.856  17.460  0.1314  0.2297  0.0112
19119TIP3    H178772   0.920   3.880  17.371 -0.3577  2.6565  0.7401
19119TIP3    H278773   1.029   3.902  17.473  0.7735 -1.0204  0.4447
19120TIP3   OH278774   6.014   2.223  14.562  0.6271 -0.0462 -0.3733
19120TIP3    H178775   5.947   2.288  14.584  0.6494 -0.2964  0.4514
19120TIP3    H278776   6.095   2.261  14.594  0.6706 -0.3876 -0.0784
19121TIP3   OH278777   1.596   4.036   3.701 -0.5152 -0.1811 -0.0674
19121TIP3    H178778   1.556   4.121   3.720 -1.5550 -0.8117  0.5755
19121TIP3    H278779   1.627   4.004   3.785 -1.4027 -1.0813 -0.0655
19122TIP3   OH278780   2.084   5.712  10.982  0.2386  0.0819  0.2457
19122TIP3    H178781   2.008   5.705  10.923 -0.3275  0.9495  0.8393
19122TIP3    H278782   2.159   5.724  10.923  0.1575 -2.2450 -0.4195
19123TIP3   OH278783   0.413   2.157   3.858  0.0921 -0.3983  0.2749
19123TIP3    H178784   0.379   2.131   3.943  2.4260 -0.1518  1.3633
19123TIP3    H278785   0.343   2.137   3.796 -1.1150 -1.9355  2.0545
19124TIP3   OH278786   2.771   0.800   5.331 -0.1326 -0.1062  0.3518
19124TIP3    H178787   2.855   0.841   5.314 -0.6211  0.2535 -1.4947
19124TIP3    H278788   2.768   0.786   5.425  1.1581  1.6701  0.6869
19125TIP3   OH278789   1.171   3.456   0.618  0.5695 -0.1754 -0.6332
19125TIP3    H178790   1.180   3.367   0.651  1.8042  0.2749  0.3553
19125TIP3    H278791   1.204   3.511   0.689  0.7432  1.0044 -1.5956
19126TIP3   OH278792   6.212   1.202  10.660 -0.5256 -0.4821 -0.3602
19126TIP3    H178793   6.179   1.271  10.718  1.0452 -0.7247  0.9167
19126TIP3    H278794   6.235   1.248  10.579  0.9785  0.6599  0.6484
19127TIP3   OH278795   5.215   1.306  15.507 -0.5729  0.1963 -0.6038
19127TIP3    H178796   5.175   1.296  15.593  0.4973 -0.0391 -0.1189
19127TIP3    H278797   5.147   1.278  15.445 -0.4904 -2.1931  0.2955
19128TIP3   OH278798   0.527   2.522  16.260  0.8847 -0.1170  0.4305
19128TIP3    H178799   0.520   2.501  16.166  0.3835  1.1417  0.1749
19128TIP3    H278800   0.610   2.569  16.267  0.3149  0.9055  0.3980
19129TIP3   OH278801   4.882   1.518   2.600 -0.1740  0.0048  0.0953
19129TIP3    H178802   4.789   1.494   2.598 -0.5031  1.2461 -1.7393
19129TIP3    H278803   4.926   1.451   2.548 -0.0718 -0.3781  0.6615
19130TIP3   OH278804   4.480   3.492  17.569 -0.0974 -0.3839 -0.4010
19130TIP3    H178805   4.474   3.532  17.656 -1.0106  0.3895 -0.7982
19130TIP3    H278806   4.389   3.487  17.539  0.0776 -1.9743 -0.7306
19131TIP3   OH278807   5.923   1.431  11.908  0.1748 -0.1024 -0.2089
19131TIP3    H178808   6.006   1.383  11.897 -0.3319 -0.5630 -2.4331
19131TIP3    H278809   5.857   1.362  11.916 -0.3086  0.2352 -1.2120
19132TIP3   OH278810   5.753   4.425  15.657  0.1344  0.0369  0.7017
19132TIP3    H178811   5.715   4.369  15.724 -0.8105 -0.8285 -0.5227
19132TIP3    H278812   5.830   4.376  15.626 -0.3499 -0.3384  0.0533
19133TIP3   OH278813   0.763   3.134  17.216 -0.2044 -0.0445  0.7089
19133TIP3    H178814   0.776   3.059  17.158  0.1102  1.9859 -2.0335
19133TIP3    H278815   0.848   3.145  17.259 -0.0052 -0.7609  0.5187
19134TIP3   OH278816   5.748   2.929  14.936 -0.0710 -0.0665  0.2299
19134TIP3    H178817   5.814   2.864  14.913  1.6779  2.1154 -1.3654
19134TIP3    H278818   5.791   2.986  14.999 -1.2323  0.1120  0.8843
19135TIP3   OH278819   5.932   3.016  13.906 -0.1295  0.0015 -0.0819
19135TIP3    H178820   5.963   3.089  13.961 -0.8039  1.4242 -1.5192
19135TIP3    H278821   5.862   2.976  13.958 -0.8676  1.4224  0.0730
19136TIP3   OH278822   0.834   2.422   5.296 -0.5513  0.2593 -0.1346
19136TIP3    H178823   0.764   2.486   5.284  0.0233  0.9822  0.2721
19136TIP3    H278824   0.905   2.472   5.337 -0.8399 -1.0725  2.1421
19137TIP3   OH278825   2.954   2.157  11.502 -0.2944  0.2282  0.4882
19137TIP3    H178826   2.978   2.244  11.532  0.0710 -0.0848  1.1270
19137TIP3    H278827   2.872   2.138  11.546 -0.8672  0.6214 -0.3861
19138TIP3   OH278828   3.990   1.744   5.493 -0.4106  0.4783  0.8775
19138TIP3    H178829   4.001   1.790   5.576 -0.9607 -0.3996  1.4490
19138TIP3    H278830   4.078   1.711   5.472 -0.1493  1.2089  0.7915
19139TIP3   OH278831   5.007   4.144  16.292 -0.2320 -0.0359 -0.4482
19139TIP3    H178832   5.059   4.176  16.367  1.4612 -0.2924 -1.4685
19139TIP3    H278833   4.934   4.097  16.332  1.0200 -0.7865  1.0764
19140TIP3   OH278834   4.609   2.478   3.378 -0.0451 -0.1337  0.4517
19140TIP3    H178835   4.580   2.556   3.424 -0.7683  0.9744 -1.7499
19140TIP3    H278836   4.695   2.458   3.416  0.3806  2.0223  0.7405
19141TIP3   OH278837   4.253   2.569  11.716 -0.3505 -0.4786  0.4749
19141TIP3    H178838   4.286   2.479  11.713 -2.2157 -1.2203  0.6008
19141TIP3    H278839   4.270   2.598  11.805 -0.9664 -1.2256  0.8491
19142TIP3   OH278840   6.583   2.717   3.616  0.3656  0.4534 -0.1052
19142TIP3    H178841   6.678   2.727   3.630  0.3783 -0.3595  0.5324
19142TIP3    H278842   6.577   2.665   3.536  0.5457 -1.2070  0.9112
19143TIP3   OH278843   2.751   3.554   4.988  0.6379  0.2511  0.4076
19143TIP3    H178844   2.810   3.479   4.975 -0.2736 -0.4719  0.3573
19143TIP3    H278845   2.678   3.518   5.039  0.2419  1.1388  0.4798
19144TIP3   OH278846   4.146   1.940   1.623 -0.0978 -0.1850 -0.7336
19144TIP3    H178847   4.155   2.028   1.659 -1.1216 -1.3492  2.7789
19144TIP3    H278848   4.235   1.906   1.619  0.2223  0.6960 -1.3152
19145TIP3   OH278849   6.183   2.752   3.245  0.0798  0.7319 -0.0192
19145TIP3    H178850   6.272   2.780   3.222  0.2562  0.0759 -0.1624
19145TIP3    H278851   6.173   2.776   3.337  0.4450  0.7192  0.0265
19146TIP3   OH278852   3.902   5.356   1.847  0.4135 -0.3632  0.2378
19146TIP3    H178853   3.852   5.316   1.918 -2.9114 -0.9845 -2.2608
19146TIP3    H278854   3.882   5.450   1.853 -0.5864 -0.5304 -0.3832
19147TIP3   OH278855   1.607   5.260   3.750 -0.1867  0.4590  0.0898
19147TIP3    H178856   1.673   5.208   3.795  1.0174  1.5853 -0.3326
19147TIP3    H278857   1.569   5.316   3.818 -1.4097 -0.8415  0.5231
19148TIP3   OH278858   5.129   2.051  11.107  0.1260 -0.3327  0.2896
19148TIP3    H178859   5.190   2.110  11.151 -0.4727 -0.6179  1.5482
19148TIP3    H278860   5.185   1.983  11.070  0.6806  0.1055  0.3067
19149TIP3   OH278861   1.657   0.521  10.441  0.0929  0.1405 -0.2042
19149TIP3    H178862   1.648   0.492  10.350 -1.4861 -1.5920  0.4285
19149TIP3    H278863   1.577   0.570  10.459 -1.0084 -1.9561  1.0018
19150TIP3   OH278864   5.089   5.323   3.310  0.4461 -0.0693 -0.5422
19150TIP3    H178865   5.103   5.235   3.345 -1.7964 -0.3964 -0.2874
19150TIP3    H278866   5.013   5.356   3.359  2.6148  2.9876  1.0554
19151TIP3   OH278867   0.095   1.299  11.958 -0.0575  0.1470 -0.1207
19151TIP3    H178868   0.168   1.328  12.014  0.3579  1.0489 -1.0994
19151TIP3    H278869   0.025   1.362  11.975  0.1947  0.6436 -0.8526
19152TIP3   OH278870   0.508   2.941  15.903 -0.2588 -0.7684  0.0434
19152TIP3    H178871   0.485   2.874  15.968  1.5523 -1.2497  0.2499
19152TIP3    H278872   0.562   3.003  15.951 -3.0464  1.7220  0.2142
19153TIP3   OH278873   6.343   2.579   3.897  0.4334  0.2386 -0.0696
19153TIP3    H178874   6.292   2.647   3.853 -0.2229  0.8066  1.5067
19153TIP3    H278875   6.347   2.507   3.833 -0.7575  0.8997 -0.9298
19154TIP3   OH278876   1.688   5.921   0.340 -0.4882  0.4448 -0.2313
19154TIP3    H178877   1.669   5.986   0.272  1.5377 -0.5600 -1.9028
19154TIP3    H278878   1.781   5.933   0.359 -0.2643 -1.3477  0.0232
19155TIP3   OH278879   6.268   0.253   5.416  0.3319  0.0010 -0.4314
19155TIP3    H178880   6.249   0.250   5.509 -2.6078  0.3840 -0.9221
19155TIP3    H278881   6.334   0.322   5.407  2.6845 -1.8299  1.5475
19156TIP3   OH278882   5.617   4.280  14.072  0.8218 -0.0023 -0.5840
19156TIP3    H178883   5.670   4.282  13.993  1.0684 -0.3056 -0.4295
19156TIP3    H278884   5.537   4.327  14.049  0.8887 -0.0974 -1.0139
19157TIP3   OH278885   4.487   4.250   4.832 -0.1853 -0.4164 -0.4883
19157TIP3    H178886   4.517   4.227   4.744 -1.3698 -0.8141 -0.8015
19157TIP3    H278887   4.430   4.326   4.819  2.5127  1.9360  0.3660
19158TIP3   OH278888   3.792   6.314  13.086 -0.0972 -0.1575  0.0212
19158TIP3    H178889   3.780   6.405  13.057  0.1736  0.0535  0.5644
19158TIP3    H278890   3.879   6.290  13.052 -0.0463 -0.1186  0.1251
19159TIP3   OH278891   2.685   6.615   1.889 -0.2189 -0.4314  0.4725
19159TIP3    H178892   2.741   6.683   1.928  1.8389 -1.8640  0.1906
19159TIP3    H278893   2.711   6.613   1.797  1.1565 -2.7913  0.8213
19160TIP3   OH278894   3.055   3.646   3.129 -0.1907  1.1331  0.3387
19160TIP3    H178895   2.971   3.691   3.133 -1.9830 -1.9879  2.6829
19160TIP3    H278896   3.071   3.633   3.036 -0.4718  4.7084 -0.3398
19161TIP3   OH278897   2.987   4.860   3.686 -0.2172 -0.2298 -0.0280
19161TIP3    H178898   2.943   4.913   3.620 -0.7218 -1.5413 -0.7687
19161TIP3    H278899   3.014   4.781   3.640 -0.6352 -1.2010  1.3249
19162TIP3   OH278900   4.415   1.884   5.498 -0.7272  0.0877 -0.2505
19162TIP3    H178901   4.368   1.936   5.433 -0.7762  0.4971  0.1109
19162TIP3    H278902   4.427   1.798   5.456  0.2185  0.6836 -1.2332
19163TIP3   OH278903   4.611   3.075  12.811  0.2637 -0.6701  0.3564
19163TIP3    H178904   4.607   3.118  12.896 -0.7008 -0.6510  0.3083
19163TIP3    H278905   4.532   3.103  12.766  0.0960 -1.7319 -0.0333
19164TIP3   OH278906   2.058   3.091   6.125  0.4799 -0.1809 -0.0428
19164TIP3    H178907   2.093   3.099   6.035 -0.9745  1.6657 -0.4979
19164TIP3    H278908   2.030   3.180   6.147 -1.5096 -1.0915  1.2842
19165TIP3   OH278909   5.145   0.060   3.877 -0.2065 -0.0470 -0.3209
19165TIP3    H178910   5.199   0.032   3.803 -0.0633  1.7573 -0.9538
19165TIP3    H278911   5.205   0.104   3.936 -0.3336 -1.4362  0.8769
19166TIP3   OH278912   5.430   3.384   5.968 -0.5266 -0.2458 -0.0602
19166TIP3    H178913   5.412   3.451   6.034 -2.1159 -1.8410  1.2048
19166TIP3    H278914   5.383   3.415   5.890 -2.7726 -0.7120  1.0419
19167TIP3   OH278915   6.059   6.354   3.106  0.7185 -0.5010  0.4608
19167TIP3    H178916   6.149   6.355   3.139  0.7753 -1.5249  0.3589
19167TIP3    H278917   6.008   6.314   3.176  0.3410  0.0470  0.5037
19168TIP3   OH278918   6.675   3.482  12.951  0.4339  0.1837 -0.7729
19168TIP3    H178919   6.647   3.391  12.935  0.7610  0.2163 -1.5761
19168TIP3    H278920   6.747   3.475  13.014 -0.5381  0.0083  0.3636
19169TIP3   OH278921   0.589   4.370  16.961  0.4043  0.1993  0.3241
19169TIP3    H178922   0.579   4.284  16.919  2.2035  0.7329 -1.3692
19169TIP3    H278923   0.597   4.431  16.888 -0.3039  1.7665  1.5086
19170TIP3   OH278924   5.884   0.804   2.923  0.5138  0.3520 -0.4049
19170TIP3    H178925   5.964   0.755   2.903 -0.5079 -1.7700  0.4272
19170TIP3    H278926   5.813   0.741   2.908 -0.8169  1.2406  1.7424
19171TIP3   OH278927   0.209   0.826  14.994  0.1022 -0.0258  0.1243
19171TIP3    H178928   0.161   0.825  14.912 -0.2922  2.4129  0.2375
19171TIP3    H278929   0.173   0.752  15.044 -1.1605 -0.2610 -1.0724
19172TIP3   OH278930   1.327   6.441  14.474 -0.2121 -0.0696 -0.1545
19172TIP3    H178931   1.396   6.387  14.436 -0.4910  0.5805 -1.6551
19172TIP3    H278932   1.346   6.441  14.568 -0.3447 -2.9127 -0.0555
19173TIP3   OH278933   5.553   4.398   4.745  0.5341  0.4869  0.0158
19173TIP3    H178934   5.470   4.440   4.723  0.6499  0.2392 -0.9328
19173TIP3    H278935   5.529   4.327   4.805  0.0266  0.2457 -0.4654
19174TIP3   OH278936   1.247   2.201  15.038  0.3966 -0.0392 -0.2046
19174TIP3    H178937   1.288   2.243  14.963  1.1475  0.3904  0.4214
19174TIP3    H278938   1.153   2.204  15.020  0.5372  0.4834 -0.8946
19175TIP3   OH278939   1.630   2.722  14.457  0.5038  0.1264 -0.3994
19175TIP3    H178940   1.555   2.719  14.517  1.3099  0.7958  0.6723
19175TIP3    H278941   1.677   2.640  14.474 -1.0702 -1.3710 -2.6153
19176TIP3   OH278942   6.496   3.117  15.942  0.1321 -0.3044  0.5782
19176TIP3    H178943   6.469   3.115  16.033  0.1551 -1.4058  0.5785
19176TIP3    H278944   6.558   3.044  15.934  0.0223 -0.3094 -0.3467
19177TIP3   OH278945   4.609   1.661   3.453  0.3561 -0.2807 -0.4689
19177TIP3    H178946   4.545   1.710   3.505  0.8904 -0.3237  0.2569
19177TIP3    H278947   4.589   1.683   3.362  0.5327  1.2300 -0.1635
19178TIP3   OH278948   4.048   6.491  15.037 -0.1715 -0.3912 -0.7945
19178TIP3    H178949   4.056   6.479  14.943  1.6476 -0.5920 -0.6422
19178TIP3    H278950   4.096   6.572  15.056 -0.6254 -0.2808 -0.0442
19179TIP3   OH278951   0.796   5.645  16.341  0.2922 -0.3372 -0.3917
19179TIP3    H178952   0.801   5.691  16.425 -3.1416  0.8117 -0.6907
19179TIP3    H278953   0.836   5.706  16.278 -0.6980  0.5511 -0.1796
19180TIP3   OH278954   2.744   2.034   2.222 -0.1642 -0.5924  0.4357
19180TIP3    H178955   2.739   2.130   2.214  0.4140 -0.6072 -0.2036
19180TIP3    H278956   2.808   2.020   2.292 -0.0706 -0.5067  0.3694
19181TIP3   OH278957   4.800   4.691  16.682 -0.6379 -0.3101 -0.1783
19181TIP3    H178958   4.844   4.730  16.607  0.9637 -1.3118  0.2068
19181TIP3    H278959   4.791   4.599  16.660  1.7532 -1.0711  1.6555
19182TIP3   OH278960   4.348   4.434   0.120  0.0883 -0.0845  0.1833
19182TIP3    H178961   4.319   4.502   0.060 -0.3140  1.0836  1.6370
19182TIP3    H278962   4.443   4.436   0.114  0.0560 -1.8119 -2.3152
19183TIP3   OH278963   3.390   4.510   2.649  0.1660 -0.8376 -0.0871
19183TIP3    H178964   3.362   4.543   2.564  1.8845 -1.1290 -0.8155
19183TIP3    H278965   3.398   4.415   2.637  0.8577 -0.8318  0.2375
19184TIP3   OH278966   0.447   3.006  13.123 -0.7598 -0.2306  0.2120
19184TIP3    H178967   0.519   2.949  13.098 -1.8111 -1.2941 -0.5144
19184TIP3    H278968   0.382   2.993  13.053 -1.5222  0.9249  0.6899
19185TIP3   OH278969   1.956   0.197   0.694  0.0390 -0.5345 -0.6384
19185TIP3    H178970   1.918   0.285   0.684  0.9843  0.1465  1.2563
19185TIP3    H278971   1.881   0.140   0.708 -0.4586  0.5648  1.6464
19186TIP3   OH278972   5.930   0.083  12.610  0.1279 -0.1664  0.3847
19186TIP3    H178973   5.930   0.150  12.541 -1.7972 -1.3236 -0.8049
19186TIP3    H278974   6.012   0.035  12.596  0.1431  0.1227 -0.5873
19187TIP3   OH278975   6.013   4.013  13.773  0.2543  0.0625 -0.3087
19187TIP3    H178976   5.934   4.047  13.732 -0.4923 -0.8013  0.3381
19187TIP3    H278977   6.079   4.080  13.759 -0.7382  1.0530 -0.4003
19188TIP3   OH278978   3.912   0.429  14.491 -0.4125 -0.2975 -0.6028
19188TIP3    H178979   3.839   0.462  14.439 -0.0004  0.3197 -0.8103
19188TIP3    H278980   3.989   0.443  14.435 -0.0277 -0.0966 -0.0300
19189TIP3   OH278981   4.447   2.520  16.701  0.4271 -0.4174 -0.1220
19189TIP3    H178982   4.389   2.515  16.776 -0.3786  1.4298 -0.5439
19189TIP3    H278983   4.399   2.478  16.630 -0.1483  0.5070 -0.3023
19190TIP3   OH278984   3.674   4.033   4.533 -0.3617 -0.1369  0.0828
19190TIP3    H178985   3.744   3.967   4.531 -1.1682 -1.0217  0.2435
19190TIP3    H278986   3.689   4.081   4.614 -1.1399 -1.6946  1.1914
19191TIP3   OH278987   4.286   0.294   0.685 -0.6872 -0.1809  0.1360
19191TIP3    H178988   4.210   0.238   0.704  0.6027 -1.7022  1.0800
19191TIP3    H278989   4.360   0.233   0.681  0.7359  1.4286  0.7680
19192TIP3   OH278990   3.617   4.601   4.840 -0.0597 -0.0985 -0.4005
19192TIP3    H178991   3.628   4.695   4.852 -2.9829  0.5822 -2.1520
19192TIP3    H278992   3.528   4.583   4.871  0.7707 -2.5362  0.8418
19193TIP3   OH278993   1.572   0.605   3.291 -0.2984 -0.0009  0.1657
19193TIP3    H178994   1.516   0.635   3.220 -0.9774 -1.1487  0.1905
19193TIP3    H278995   1.647   0.564   3.247 -0.6663 -0.6160  0.1020
19194TIP3   OH278996   4.544   1.890   2.065 -0.2044 -0.2007  0.1694
19194TIP3    H178997   4.606   1.837   2.115  1.2509  0.0914 -1.2127
19194TIP3    H278998   4.461   1.843   2.070  0.9450 -2.4621 -0.6883
19195TIP3   OH278999   5.433   1.633   2.757  0.0682  0.1467 -0.0747
19195TIP3    H179000   5.514   1.673   2.727 -1.2997  2.9756 -0.3276
19195TIP3    H279001   5.446   1.617   2.850  0.7031  1.2396  0.0410
19196TIP3   OH279002   4.957   5.801   5.057  0.1649  0.3237 -0.1539
19196TIP3    H179003   4.994   5.821   4.971 -1.8436  0.9274 -0.9564
19196TIP3    H279004   4.966   5.706   5.066 -0.1965  0.1589 -1.3602
19197TIP3   OH279005   3.966   2.184   1.473  0.2021 -0.6756 -0.3175
19197TIP3    H179006   3.940   2.092   1.483 -0.3893 -0.3285  1.6829
19197TIP3    H279007   4.033   2.197   1.540  0.2689  0.3768 -0.5816
19198TIP3   OH279008   6.129   0.075   2.791  0.5617 -0.0932  0.1290
19198TIP3    H179009   6.197   0.068   2.724 -1.2112 -1.2998 -1.6708
19198TIP3    H279010   6.103   0.167   2.789  1.8037  0.2811  0.5200
19199TIP3   OH279011   4.468   5.980   3.777  0.5631 -0.1783  0.7053
19199TIP3    H179012   4.454   5.896   3.733  1.0811 -0.2357  0.6437
19199TIP3    H279013   4.461   5.961   3.870 -0.2554 -0.1096  0.6672
19200TIP3   OH279014   4.146   5.025   5.791 -0.2829  0.0248 -0.0667
19200TIP3    H179015   4.093   5.079   5.850 -0.6347 -0.9213  0.5086
19200TIP3    H279016   4.211   4.985   5.848  0.3254  0.2727 -0.5817
19201TIP3   OH279017   5.681   6.096   5.027  0.1426  0.1787  0.2935
19201TIP3    H179018   5.617   6.132   4.966  0.3336  2.4447  1.3430
19201TIP3    H279019   5.628   6.049   5.092 -0.4755  1.6616  0.9108
19202TIP3   OH279020   0.491   0.235  16.548 -0.5839  0.0882  0.4066
19202TIP3    H179021   0.507   0.141  16.548  1.7325  0.4189 -1.1711
19202TIP3    H279022   0.467   0.254  16.639  0.6178 -1.7615  1.1872
19203TIP3   OH279023   3.440   1.282   4.796  0.3851  0.0809 -0.2057
19203TIP3    H179024   3.359   1.288   4.847  0.9294  1.4318  0.5509
19203TIP3    H279025   3.433   1.351   4.731  0.4629 -0.5121 -0.8565
19204TIP3   OH279026   1.525   2.130   0.587 -0.3011  0.6524 -0.5185
19204TIP3    H179027   1.513   2.182   0.508  0.6866  1.1714 -0.3474
19204TIP3    H279028   1.600   2.074   0.568 -1.6271 -1.0924 -0.8691
19205TIP3   OH279029   3.817   3.619   0.499  0.1777 -0.3165 -0.6307
19205TIP3    H179030   3.889   3.618   0.561  0.5585  1.1322 -1.0102
19205TIP3    H279031   3.818   3.532   0.459  1.0962 -0.6299  0.0581
19206TIP3   OH279032   1.670   4.876  16.988 -0.2431 -0.0689  0.4418
19206TIP3    H179033   1.758   4.896  16.955 -0.0806 -1.4090  0.0071
19206TIP3    H279034   1.633   4.961  17.010  1.3607  0.4869  1.1418
19207TIP3   OH279035   0.087   0.194   2.680 -0.4616 -0.5348  0.7480
19207TIP3    H179036   0.010   0.230   2.724  0.2785  1.9585  0.1321
19207TIP3    H279037   0.098   0.108   2.721 -2.4979 -0.2456  2.1208
19208TIP3   OH279038   2.184   0.212  11.160  0.2159 -0.0351 -0.5188
19208TIP3    H179039   2.262   0.268  11.164  0.2078 -0.0921  0.8476
19208TIP3    H279040   2.213   0.134  11.112  1.2768 -0.4251  0.6875
19209TIP3   OH279041   2.564   1.794  12.797  0.2186  0.4166 -0.4610
19209TIP3    H179042   2.629   1.851  12.756  1.3713 -0.6816 -0.2593
19209TIP3    H279043   2.558   1.718  12.739 -1.0791  0.6035 -0.5949
19210TIP3   OH279044   4.119   2.068   3.116  0.6991  0.6379  0.0240
19210TIP3    H179045   4.126   2.075   3.021 -1.1492  1.3967 -0.0849
19210TIP3    H279046   4.203   2.102   3.148  1.1458  0.8599 -1.3096
19211TIP3   OH279047   4.003   6.198   2.853 -0.2424  0.4084  0.0577
19211TIP3    H179048   4.028   6.290   2.861 -1.3286  0.6298  1.3077
19211TIP3    H279049   4.085   6.149   2.863  0.4457  1.2337 -1.3031
19212TIP3   OH279050   2.119   5.418  11.017  0.0888  0.2359 -0.0006
19212TIP3    H179051   2.111   5.467  10.935  0.0515  0.2380  0.0043
19212TIP3    H279052   2.200   5.451  11.057  0.9502 -0.8620 -0.7660
19213TIP3   OH279053   3.226   0.390  16.707 -0.3527  0.1331  0.2973
19213TIP3    H179054   3.240   0.480  16.737 -1.5867  0.5034 -0.1631
19213TIP3    H279055   3.155   0.357  16.762  0.1540 -0.6161  0.5270
19214TIP3   OH279056   5.780   1.258  13.993 -0.0561  0.7243 -0.3518
19214TIP3    H179057   5.747   1.206  14.067 -0.2326  1.4827  0.1076
19214TIP3    H279058   5.703   1.306  13.962 -0.5828 -1.3846 -2.6016
19215TIP3   OH279059   1.619   2.765   0.616 -0.5916 -0.4259 -0.0320
19215TIP3    H179060   1.677   2.731   0.685  0.9466  0.6519 -0.7365
19215TIP3    H279061   1.544   2.706   0.618  1.3770 -3.1872 -0.4174
19216TIP3   OH279062   1.751   5.124  12.119 -0.5859 -0.1567 -0.4270
19216TIP3    H179063   1.831   5.159  12.079 -0.5380 -0.3079 -0.4648
19216TIP3    H279064   1.779   5.091  12.204 -0.3134 -1.4844 -0.9916
19217TIP3   OH279065   3.091   6.149  13.084  0.2123 -0.8171  0.3716
19217TIP3    H179066   3.153   6.076  13.084  1.3762  0.1260 -0.0877
19217TIP3    H279067   3.083   6.173  12.991  1.1113  0.6465  0.6427
19218TIP3   OH279068   5.927   6.567  13.933 -0.2503  0.3369  0.4817
19218TIP3    H179069   5.937   6.631  14.004  0.9932  0.1250  0.5223
19218TIP3    H279070   5.928   6.482  13.976 -0.2546  0.2365  0.2870
19219TIP3   OH279071   6.606   2.761  11.151 -0.1768  0.1966 -0.2008
19219TIP3    H179072   6.521   2.806  11.145 -1.1091 -1.4042  0.4436
19219TIP3    H279073   6.588   2.671  11.125  0.7149 -0.8707  2.4640
19220TIP3   OH279074   4.317   1.537   3.628  0.4122  0.2186  0.1385
19220TIP3    H179075   4.240   1.582   3.663  1.0031  2.2508 -1.0351
19220TIP3    H279076   4.383   1.606   3.618  2.0356 -1.2774  0.0972
19221TIP3   OH279077   5.945   2.336  14.161 -0.1648 -0.1753 -0.6253
19221TIP3    H179078   6.012   2.293  14.213 -0.1574  0.4366 -0.1227
19221TIP3    H279079   5.977   2.332  14.071  0.7986  0.5746 -0.3269
19222TIP3   OH279080   3.263   1.815  15.388 -0.3543  0.3296 -0.0166
19222TIP3    H179081   3.206   1.825  15.312  0.0847 -1.8738 -0.7238
19222TIP3    H279082   3.213   1.760  15.449 -0.2652  1.1452  0.8091
19223TIP3   OH279083   4.440   2.052  16.655  0.1446 -0.9083 -0.1599
19223TIP3    H179084   4.395   2.067  16.738  0.3970  2.4824 -0.4946
19223TIP3    H279085   4.371   2.058  16.589  0.4197  0.0431 -0.3826
19224TIP3   OH279086   1.505   4.864   1.224  0.2114  0.0851  0.1889
19224TIP3    H179087   1.521   4.850   1.318  0.3881  1.0349  0.3130
19224TIP3    H279088   1.420   4.908   1.221  0.7612  1.1604 -0.0043
19225TIP3   OH279089   0.568   1.495   4.159  0.2098 -0.1197 -0.4473
19225TIP3    H179090   0.594   1.525   4.072 -1.1143 -0.2243 -0.9008
19225TIP3    H279091   0.487   1.447   4.145  0.1757 -0.4654  0.8026
19226TIP3   OH279092   6.575   2.743   4.224 -0.2783 -0.1600 -0.0723
19226TIP3    H179093   6.506   2.805   4.202 -1.3871 -1.7457 -1.2620
19226TIP3    H279094   6.646   2.763   4.163  0.3819  1.4735  1.1547
19227TIP3   OH279095   2.116   5.003  16.623  0.0179 -0.0605  0.3191
19227TIP3    H179096   2.064   4.923  16.634 -0.8206 -0.0036 -2.4916
19227TIP3    H279097   2.093   5.057  16.698 -2.3660 -0.9264  0.2791
19228TIP3   OH279098   5.085   1.517   1.456 -0.2758 -0.1260  0.5572
19228TIP3    H179099   5.029   1.444   1.430 -0.8644  1.0345 -1.6968
19228TIP3    H279100   5.170   1.476   1.474 -0.4565 -1.3428 -1.1047
19229TIP3   OH279101   1.579   4.942   0.374  0.0731  0.0210  0.3294
19229TIP3    H179102   1.639   4.868   0.361 -0.0271 -0.3773  1.8958
19229TIP3    H279103   1.582   4.990   0.292  1.3728 -0.8436 -0.1643
19230TIP3   OH279104   3.319   4.554   4.055  0.1974 -0.2376  0.0436
19230TIP3    H179105   3.341   4.487   4.120 -0.5821 -0.2897  0.2568
19230TIP3    H279106   3.270   4.507   3.988  2.7041 -0.6378 -1.6700
19231TIP3   OH279107   4.825   4.637   3.890  0.2913  0.2750 -0.2178
19231TIP3    H179108   4.786   4.704   3.834 -0.3500  0.9121  0.9426
19231TIP3    H279109   4.920   4.651   3.881  0.1758  1.9198  0.5994
19232TIP3   OH279110   1.161   4.176   0.199  0.1423 -0.2348 -0.1968
19232TIP3    H179111   1.177   4.270   0.197 -1.1085  0.0459  1.3753
19232TIP3    H279112   1.090   4.162   0.136  0.3089 -0.1400 -0.4087
19233TIP3   OH279113   5.668   4.489   5.622 -0.3777 -0.0874 -0.0357
19233TIP3    H179114   5.733   4.529   5.680 -1.0607 -0.8355  1.3004
19233TIP3    H279115   5.707   4.405   5.597 -0.4874 -0.1930  0.1414
19234TIP3   OH279116   5.795   1.911  12.546  0.1506  0.1441 -0.4776
19234TIP3    H179117   5.854   1.986  12.540  0.5245 -0.0595  0.5108
19234TIP3    H279118   5.782   1.897  12.640  0.3949 -1.2568 -0.6230
19235TIP3   OH279119   5.000   5.596   3.861 -0.3250 -0.0622  0.2076
19235TIP3    H179120   5.046   5.552   3.789 -2.4538  0.2717 -1.4598
19235TIP3    H279121   5.031   5.552   3.940  0.4656 -1.9790 -1.0975
19236TIP3   OH279122   6.072   5.893  13.564  0.2407 -0.3953 -0.5648
19236TIP3    H179123   6.135   5.823  13.550  2.1572  0.8864  1.0630
19236TIP3    H279124   6.105   5.940  13.641 -3.0528 -0.0273  0.8198
19237TIP3   OH279125   5.044   2.293  13.355 -0.0939  0.0426 -0.2057
19237TIP3    H179126   5.103   2.357  13.396 -1.1414  2.2996 -2.0200
19237TIP3    H279127   4.977   2.277  13.422  0.2992  0.6803  0.3614
19238TIP3   OH279128   0.047   6.235  12.210  0.3791  0.1066  0.2678
19238TIP3    H179129  -0.006   6.168  12.253  0.8752 -1.3563 -1.3002
19238TIP3    H279130  -0.011   6.311  12.204 -1.1953 -1.0813 -0.3938
19239TIP3   OH279131   5.739   4.509   5.317 -0.4695 -0.2215  0.2733
19239TIP3    H179132   5.654   4.536   5.352  0.0045  2.0474 -0.1771
19239TIP3    H279133   5.788   4.479   5.394 -0.6644  1.3222  1.0438
19240TIP3   OH279134   1.026   6.194   0.894 -0.4394  0.5809  0.4461
19240TIP3    H179135   1.073   6.258   0.840 -2.3200  2.2733  0.6847
19240TIP3    H279136   1.089   6.168   0.961  0.8621  1.0157 -0.5583
19241TIP3   OH279137   1.960   1.456   1.963  0.6454  0.0086 -0.7151
19241TIP3    H179138   2.045   1.488   1.992 -0.4100  1.8687  0.5595
19241TIP3    H279139   1.978   1.369   1.928  2.6809 -0.8784  2.1270
19242TIP3   OH279140   3.001   4.266  13.700 -0.0248  0.4082  0.0188
19242TIP3    H179141   2.921   4.224  13.668  0.0174  0.1865  0.2059
19242TIP3    H279142   3.026   4.214  13.777  1.4199 -0.7880 -1.1993
19243TIP3   OH279143   3.711   6.501  14.420 -0.1127  0.0168  0.0458
19243TIP3    H179144   3.788   6.448  14.441 -0.5591 -1.0757 -0.9443
19243TIP3    H279145   3.736   6.590  14.444  0.7441 -0.5939  1.5482
19244TIP3   OH279146   2.896   6.559   4.168  0.5522  0.6568  0.0939
19244TIP3    H179147   2.929   6.644   4.137  1.1069  0.9895  1.5088
19244TIP3    H279148   2.804   6.574   4.188  0.7470  1.0511  0.7237
19245TIP3   OH279149   2.680   2.131  12.609  0.0238 -0.6544  0.2826
19245TIP3    H179150   2.695   2.223  12.585  0.4688 -0.6622  0.5246
19245TIP3    H279151   2.616   2.136  12.681 -0.8642 -0.6023 -0.4877
19246TIP3   OH279152   1.938   0.867   6.367 -0.0090  0.2167 -0.2339
19246TIP3    H179153   2.034   0.870   6.365  0.0314  0.5903  1.1517
19246TIP3    H279154   1.917   0.835   6.455 -1.1880  3.4348  0.8062
19247TIP3   OH279155   1.963   5.305  16.802  0.6891  0.1546  0.3720
19247TIP3    H179156   2.014   5.225  16.819 -1.3231 -1.3069 -0.1245
19247TIP3    H279157   1.897   5.306  16.871 -0.2769  0.5185 -0.5330
19248TIP3   OH279158   3.722   5.948   5.865 -0.0389 -0.6429  0.3803
19248TIP3    H179159   3.762   5.925   5.949  0.0740 -0.9950  0.2352
19248TIP3    H279160   3.628   5.948   5.882  0.0509  1.8863  1.1459
19249TIP3   OH279161   1.066   0.374  11.164  0.3602 -0.3702 -0.6199
19249TIP3    H179162   0.982   0.398  11.204  1.2019  1.0367  0.4071
19249TIP3    H279163   1.043   0.341  11.077 -1.1924  0.8811 -0.7363
19250TIP3   OH279164   3.867   6.255   6.005  0.2443 -1.2764 -0.7618
19250TIP3    H179165   3.788   6.308   5.996  0.6012 -0.9442 -2.4133
19250TIP3    H279166   3.861   6.216   6.092 -1.9451 -1.6074 -1.0085
19251TIP3   OH279167   6.011   5.561   3.001 -0.1100 -0.6853  0.9703
19251TIP3    H179168   6.010   5.635   3.062  0.7602  0.2605 -0.0879
19251TIP3    H279169   5.985   5.600   2.917  0.4895 -1.5424  0.3670
19252TIP3   OH279170   2.840   4.335   0.402 -0.4988  0.6671  0.1352
19252TIP3    H179171   2.908   4.382   0.353 -0.1448 -0.8007 -0.8354
19252TIP3    H279172   2.870   4.245   0.405 -1.1871  0.4668  1.9324
19253TIP3   OH279173   2.924   4.410  10.701 -0.2790 -0.1188 -0.1618
19253TIP3    H179174   2.994   4.471  10.727 -1.9452  1.1655  1.5114
19253TIP3    H279175   2.928   4.340  10.766  1.7784 -2.0916 -2.2090
19254TIP3   OH279176   3.493   0.129  15.736  0.0720  0.5906  0.4302
19254TIP3    H179177   3.478   0.209  15.786 -2.2054  1.0765 -0.9187
19254TIP3    H279178   3.418   0.074  15.754 -0.8767  0.7973 -2.3688
19255TIP3   OH279179   3.451   2.962  16.635  0.3386  0.6138  0.4912
19255TIP3    H179180   3.447   2.866  16.633 -2.4973  0.6424  0.3353
19255TIP3    H279181   3.486   2.982  16.722 -0.6347 -0.5886  1.2028
19256TIP3   OH279182   1.610   2.268   1.343  0.0311  0.7259 -0.6063
19256TIP3    H179183   1.703   2.244   1.338  0.1286  1.2988 -2.3848
19256TIP3    H279184   1.565   2.191   1.307 -0.2519  0.2285  0.7604
19257TIP3   OH279185   4.616   2.969  14.553 -0.6550  0.0838  0.4199
19257TIP3    H179186   4.682   2.899  14.547 -0.2743  0.3266  1.5624
19257TIP3    H279187   4.652   3.039  14.498 -0.4611 -0.1665  0.2185
19258TIP3   OH279188   2.125   5.514  16.404  0.1277 -0.0730  0.1804
19258TIP3    H179189   2.118   5.446  16.336  0.1914 -0.7587  0.8496
19258TIP3    H279190   2.118   5.596  16.356  0.0835 -0.5506 -0.6518
19259TIP3   OH279191   3.814   1.245  15.490  0.7959  0.1201  0.0593
19259TIP3    H179192   3.868   1.230  15.568  0.3417  0.2629  0.4104
19259TIP3    H279193   3.791   1.338  15.494  0.9158  0.1659 -0.3410
19260TIP3   OH279194   5.717   3.331  11.357  0.0071  0.4709  0.3010
19260TIP3    H179195   5.692   3.366  11.272 -0.3235  1.0455  0.6326
19260TIP3    H279196   5.769   3.400  11.397 -1.2938  0.9290  1.2761
19261TIP3   OH279197   4.153   6.591  16.174  0.2125 -0.4672 -0.0997
19261TIP3    H179198   4.158   6.500  16.203  0.4647 -1.2052 -2.3247
19261TIP3    H279199   4.105   6.588  16.091 -2.1009  1.7600  0.9996
19262TIP3   OH279200   1.111   4.054   2.038 -0.0318  0.5278  0.4417
19262TIP3    H179201   1.035   4.066   2.094  1.0659  0.5156  1.9765
19262TIP3    H279202   1.075   4.051   1.949 -1.7727  0.8354  1.1067
19263TIP3   OH279203   1.909   2.144   2.841  0.7999 -0.4207  0.0120
19263TIP3    H179204   1.976   2.152   2.909  0.6574 -2.7410  0.4973
19263TIP3    H279205   1.956   2.159   2.759  1.3490  0.5489  0.4813
19264TIP3   OH279206   0.445   1.286   4.384  0.3117  0.4561  0.1542
19264TIP3    H179207   0.401   1.264   4.302  2.6320  1.8033 -1.5572
19264TIP3    H279208   0.384   1.255   4.452 -1.8954 -0.3391 -2.0079
19265TIP3   OH279209   3.430   1.584  13.773  0.0928  0.2343 -0.3403
19265TIP3    H179210   3.486   1.560  13.699 -1.9310 -0.7581 -1.6204
19265TIP3    H279211   3.444   1.678  13.783  1.4250  0.1494 -1.0724
19266TIP3   OH279212   3.511   0.912  13.839 -0.0331  0.6589  0.0882
19266TIP3    H179213   3.470   0.998  13.846  0.8758  1.1048 -0.0208
19266TIP3    H279214   3.576   0.910  13.909 -1.7376 -0.9244  1.7656
19267TIP3   OH279215   3.598   4.443   3.792  0.5796 -0.4260 -0.4688
19267TIP3    H179216   3.677   4.390   3.777 -0.2521 -1.6201 -0.7592
19267TIP3    H279217   3.526   4.385   3.771 -0.4494  0.1784  1.1812
19268TIP3   OH279218   0.161   5.131  13.756 -0.8776 -0.1182  0.3074
19268TIP3    H179219   0.197   5.132  13.667 -0.7083  1.0933  0.3748
19268TIP3    H279220   0.134   5.040  13.770  2.1175 -1.1344  0.2520
19269TIP3   OH279221   6.711   2.776   1.992 -0.6264  0.4325  0.3329
19269TIP3    H179222   6.628   2.748   2.032 -0.7552  0.1081 -0.1511
19269TIP3    H279223   6.709   2.871   1.997 -1.1109  0.4358  0.1684
19270TIP3   OH279224   1.282   6.427  11.038  0.0911 -0.6785  0.1785
19270TIP3    H179225   1.224   6.461  10.969  1.2005 -0.8606 -0.8733
19270TIP3    H279226   1.299   6.337  11.013  0.0353 -0.9276  1.0244
19271TIP3   OH279227   1.677   0.047   1.020  0.1675  0.2295 -0.1065
19271TIP3    H179228   1.624   0.016   1.093 -0.4905 -2.1892 -1.5099
19271TIP3    H279229   1.752  -0.013   1.017  0.4765  0.6393 -1.0651
19272TIP3   OH279230   5.320   4.933   4.275  0.3663  0.3864  0.2392
19272TIP3    H179231   5.400   4.902   4.317  0.6900 -1.4463 -1.5491
19272TIP3    H279232   5.344   5.016   4.235  1.2504  0.0837  0.1218
19273TIP3   OH279233   5.613   4.867   4.123  0.5664  0.8632 -0.2529
19273TIP3    H179234   5.640   4.910   4.204 -0.4047 -0.3716  0.7713
19273TIP3    H279235   5.547   4.803   4.150  1.0587 -0.4099 -1.8637
19274TIP3   OH279236   2.357   5.893  13.836 -0.5496 -0.2301  0.1490
19274TIP3    H179237   2.278   5.931  13.798 -0.9137 -0.4855  0.6471
19274TIP3    H279238   2.374   5.815  13.783 -1.8502 -1.3732  1.3319
19275TIP3   OH279239   6.660   6.186  14.483 -0.4486  0.8608  0.2617
19275TIP3    H179240   6.678   6.188  14.578 -0.6441 -2.0605  0.4525
19275TIP3    H279241   6.740   6.149  14.445 -1.4622 -0.8647 -0.2986
19276TIP3   OH279242   6.492   1.974  12.790  0.4814  0.3579  0.0784
19276TIP3    H179243   6.431   1.902  12.807 -0.2125  0.5132 -1.5473
19276TIP3    H279244   6.490   2.027  12.869 -0.4955 -0.3648  0.5576
19277TIP3   OH279245   5.742   2.112   3.392 -0.1937  0.0170  0.2420
19277TIP3    H179246   5.783   2.189   3.353  0.2074 -0.0250  0.5615
19277TIP3    H279247   5.736   2.049   3.320  0.8138 -0.1686  0.3011
19278TIP3   OH279248   2.432   6.600   5.451 -0.0594  0.0173 -0.2424
19278TIP3    H179249   2.435   6.536   5.522 -3.4086  0.3149  0.3330
19278TIP3    H279250   2.520   6.638   5.450  2.3858 -4.8339 -1.0238
19279TIP3   OH279251   5.394   1.199   4.204  0.4466  0.5778  0.1341
19279TIP3    H179252   5.321   1.260   4.216 -0.1109 -0.0258 -0.1222
19279TIP3    H279253   5.465   1.236   4.257  0.3490  1.8059 -0.5370
19280TIP3   OH279254   3.897   2.443   5.558 -0.4418 -0.0624  0.2730
19280TIP3    H179255   3.916   2.508   5.625 -0.9901 -0.5495  0.9094
19280TIP3    H279256   3.814   2.404   5.585 -1.3610  0.6424 -1.3740
19281TIP3   OH279257   1.165   3.266   2.574  0.0836  0.0523  0.2596
19281TIP3    H179258   1.246   3.281   2.622 -0.8653  2.9163  1.1384
19281TIP3    H279259   1.172   3.323   2.497 -0.2228 -1.3242 -0.8389
19282TIP3   OH279260   0.920   0.461   0.958 -0.2463  0.1157  0.1049
19282TIP3    H179261   1.006   0.479   0.996 -0.1668  0.7456 -0.3451
19282TIP3    H279262   0.858   0.470   1.031 -0.0282  0.6384  0.2312
19283TIP3   OH279263   1.036   2.072  11.706  0.2886  0.2305 -0.2054
19283TIP3    H179264   1.028   2.099  11.797 -2.2015 -2.2675  0.4394
19283TIP3    H279265   0.949   2.039  11.683  1.1178 -0.1569 -3.1985
19284TIP3   OH279266   1.060   0.852  13.078 -0.2344 -0.1547 -0.6092
19284TIP3    H179267   1.033   0.890  12.994  1.7075  0.3955 -1.0215
19284TIP3    H279268   1.138   0.801  13.058  2.1725  2.5123  1.2929
19285TIP3   OH279269   1.643   0.456  14.442 -0.1882  0.7067 -0.0555
19285TIP3    H179270   1.686   0.496  14.366  1.1177  1.6349  1.1153
19285TIP3    H279271   1.654   0.362  14.429  1.6483  0.9037 -0.1428
19286TIP3   OH279272   5.501   5.399   3.540  0.2529 -0.0208  0.8125
19286TIP3    H179273   5.465   5.455   3.471  1.7404  2.5297  1.9520
19286TIP3    H279274   5.424   5.366   3.587 -0.7021 -0.1250 -0.7569
19287TIP3   OH279275   0.352   3.478   5.306 -0.1343  0.4482  0.0736
19287TIP3    H179276   0.328   3.566   5.335  2.6143  1.3086  0.0603
19287TIP3    H279277   0.268   3.435   5.288 -1.7077  1.9682  3.0695
19288TIP3   OH279278   4.168   2.160  13.689 -0.6941  0.0687 -0.2897
19288TIP3    H179279   4.114   2.081  13.690 -0.0161 -0.4232 -1.3753
19288TIP3    H279280   4.107   2.231  13.709 -1.2544 -0.7453  1.0355
19289TIP3   OH279281   2.434   6.382  12.861 -0.4871 -0.5350  0.1261
19289TIP3    H179282   2.470   6.360  12.775 -1.2632 -1.1944 -0.0512
19289TIP3    H279283   2.423   6.297  12.905 -1.6996 -0.3670  0.2014
19290TIP3   OH279284   6.668   1.237   4.682  0.3172 -0.2249  0.1161
19290TIP3    H179285   6.592   1.228   4.740 -0.6973  1.2176 -0.9089
19290TIP3    H279286   6.728   1.293   4.731  0.0001 -0.0247  0.2846
19291TIP3   OH279287   3.769   2.341  14.360 -0.0962  0.2472 -0.1701
19291TIP3    H179288   3.773   2.282  14.435 -1.4241 -1.0144 -1.0300
19291TIP3    H279289   3.777   2.429  14.398 -0.2017 -0.3798  1.3737
19292TIP3   OH279290   4.106   3.981   5.650  0.0625 -0.2120  0.0199
19292TIP3    H179291   4.119   4.007   5.559  2.5303  0.9836  0.6384
19292TIP3    H279292   4.148   3.895   5.658  1.4736  0.4763  0.3814
19293TIP3   OH279293   0.769   5.124   3.774 -0.2622  0.4223  0.2035
19293TIP3    H179294   0.745   5.106   3.865 -0.3553  1.7954  0.4680
19293TIP3    H279295   0.858   5.090   3.765  0.5677  2.1402  1.4401
19294TIP3   OH279296   2.933   0.450  17.389  0.0983 -0.9588 -0.0457
19294TIP3    H179297   2.865   0.398  17.345 -1.5831  0.3236  0.9033
19294TIP3    H279298   2.994   0.386  17.423  0.3349 -2.0995 -2.3900
19295TIP3   OH279299   2.246   5.413  14.360 -0.4709 -0.4036 -0.1163
19295TIP3    H179300   2.229   5.475  14.289  0.3954 -0.3630 -0.2948
19295TIP3    H279301   2.222   5.328  14.325 -1.7483 -0.1706  0.1561
19296TIP3   OH279302   3.700   1.532  13.971 -0.2009 -0.2206  0.5069
19296TIP3    H179303   3.613   1.494  13.981  0.3160 -0.8921  3.1959
19296TIP3    H279304   3.759   1.469  14.013  1.2330  1.4530  1.1218
19297TIP3   OH279305   4.044   6.531   5.070 -0.2211 -0.3155  0.1716
19297TIP3    H179306   3.995   6.521   5.152  1.4797  1.8814  1.5898
19297TIP3    H279307   4.121   6.583   5.094  0.6706 -0.0888 -2.7349
19298TIP3   OH279308   1.659   3.799   4.557 -0.3881  0.8378  0.2381
19298TIP3    H179309   1.613   3.775   4.477  0.3444 -0.8740  0.2878
19298TIP3    H279310   1.590   3.828   4.617 -1.1792  0.1933 -0.3360
19299TIP3   OH279311   6.179   3.962  10.662  0.0598 -0.5188  0.2222
19299TIP3    H179312   6.203   3.905  10.736 -3.0767 -1.9022  0.3137
19299TIP3    H279313   6.093   3.997  10.685  0.5298  1.8663 -1.2781
19300TIP3   OH279314   3.295   4.406  12.986 -0.0719 -0.7249  0.6264
19300TIP3    H179315   3.263   4.491  12.955 -1.8879 -0.8360  2.0514
19300TIP3    H279316   3.384   4.401  12.951  0.0086  1.6354  0.2675
19301TIP3   OH279317   0.348   3.143  11.670 -0.4104  0.5646 -0.0745
19301TIP3    H179318   0.281   3.183  11.615 -0.6406  0.8797  0.4194
19301TIP3    H279319   0.298   3.093  11.735 -0.2415  1.8780  1.1235
19302TIP3   OH279320   0.720   1.289   4.696  0.2532  0.0119 -0.0942
19302TIP3    H179321   0.776   1.367   4.691  1.6218 -0.9323 -0.2164
19302TIP3    H279322   0.641   1.312   4.647  0.4062  1.4856  0.2959
19303TIP3   OH279323   6.551   1.054  14.876 -0.1205 -0.0120 -0.8126
19303TIP3    H179324   6.515   1.130  14.830 -0.7478 -0.3125 -0.8205
19303TIP3    H279325   6.475   1.012  14.916  0.1098 -1.1223 -1.5059
19304TIP3   OH279326   0.463   5.555  15.168  0.0536  0.0653 -0.1149
19304TIP3    H179327   0.397   5.526  15.232 -0.1038 -1.8013 -1.0454
19304TIP3    H279328   0.547   5.529  15.206  0.2169  1.6666  0.6749
19305TIP3   OH279329   1.510   4.657   0.198  0.0823  0.0823 -0.1879
19305TIP3    H179330   1.438   4.721   0.203  0.6083  0.7699 -1.2595
19305TIP3    H279331   1.559   4.671   0.279  0.8775  1.8821 -0.9464
19306TIP3   OH279332   3.171   4.246  12.665 -0.1423 -0.1743  0.0994
19306TIP3    H179333   3.115   4.169  12.651  1.1655 -1.0177 -0.7543
19306TIP3    H279334   3.212   4.231  12.750 -0.9698  0.2896  0.5826
19307TIP3   OH279335   1.793   2.621  13.306  0.0770  0.3440  0.0504
19307TIP3    H179336   1.740   2.628  13.227  1.8683  0.2911 -1.1947
19307TIP3    H279337   1.874   2.668  13.286  0.4998  0.5120  1.9303
19308TIP3   OH279338   2.592   3.325  17.250 -0.8055  0.0391  0.1990
19308TIP3    H179339   2.506   3.292  17.224 -0.4761  1.0122 -2.3479
19308TIP3    H279340   2.654   3.272  17.199 -0.0654  1.3902 -0.3386
19309TIP3   OH279341   6.369   1.689  16.419 -0.1958 -0.4875 -0.1088
19309TIP3    H179342   6.464   1.676  16.421 -0.0736  0.2449  1.8882
19309TIP3    H279343   6.338   1.637  16.345  1.6593 -1.4562 -0.2497
19310TIP3   OH279344   2.232   3.475  11.848  1.0036  0.0741 -0.4315
19310TIP3    H179345   2.302   3.434  11.797  2.7119  1.2223  0.8777
19310TIP3    H279346   2.214   3.557  11.802  1.3354  0.3065 -0.1535
19311TIP3   OH279347   4.454   4.162   5.213  0.4726  0.0906  0.0591
19311TIP3    H179348   4.539   4.161   5.168  1.8818  0.8427  2.4979
19311TIP3    H279349   4.444   4.074   5.249 -0.0804 -0.1672 -0.7098
19312TIP3   OH279350   0.478   4.572  15.624  0.3211 -0.0921 -0.3710
19312TIP3    H179351   0.465   4.544  15.715  0.8709 -0.7210 -0.4786
19312TIP3    H279352   0.410   4.525  15.575  0.2244  0.0078 -0.3348
19313TIP3   OH279353   1.230   4.690  14.985 -0.9545  0.0659  0.3079
19313TIP3    H179354   1.260   4.764  15.037 -0.0265 -1.0297  1.4181
19313TIP3    H279355   1.135   4.698  14.984 -1.0582 -0.1134  2.6297
19314TIP3   OH279356   2.889   0.320   5.780 -0.2363  0.6312  0.0626
19314TIP3    H179357   2.961   0.267   5.746 -0.1984 -0.2951  1.4869
19314TIP3    H279358   2.915   0.410   5.761  1.4038  0.3256  0.6876
19315TIP3   OH279359   6.455   3.260  11.645  0.1278  0.0262 -0.3672
19315TIP3    H179360   6.441   3.355  11.641  0.5660  0.2973  2.5294
19315TIP3    H279361   6.530   3.245  11.588 -0.1304  1.3653 -1.1080
19316TIP3   OH279362   4.191   1.216   4.018  0.5768 -0.0203 -0.3145
19316TIP3    H179363   4.215   1.164   4.094  3.0567 -2.0958 -2.3294
19316TIP3    H279364   4.216   1.306   4.042  2.5385 -0.8243  0.9105
19317TIP3   OH279365   4.215   2.757  10.670 -0.2763  0.2497  0.1823
19317TIP3    H179366   4.207   2.842  10.715  0.9842  0.8741 -0.7078
19317TIP3    H279367   4.290   2.714  10.713 -0.8703 -0.4053  0.5854
19318TIP3   OH279368   6.541   0.614   1.387  0.5871 -0.3668 -0.6338
19318TIP3    H179369   6.618   0.664   1.414 -0.9629  1.7080  0.2042
19318TIP3    H279370   6.518   0.649   1.301 -0.7441  0.7255  0.1326
19319TIP3   OH279371   2.007   5.108  13.435  0.2599  0.2860 -0.4013
19319TIP3    H179372   1.951   5.185  13.426 -0.2337  0.0167  0.3213
19319TIP3    H279373   1.994   5.078  13.525 -2.9312 -3.1847 -1.7330
19320TIP3   OH279374   6.494   3.017  17.507  0.0449  0.2113 -0.1934
19320TIP3    H179375   6.520   2.970  17.428  3.2610 -0.1594  0.9604
19320TIP3    H279376   6.520   2.959  17.579 -0.6469  1.5520  1.1819
19321TIP3   OH279377   2.623   0.193   2.428 -0.5392 -0.0704 -0.3921
19321TIP3    H179378   2.541   0.216   2.383  0.1169  2.2035 -0.5295
19321TIP3    H279379   2.597   0.176   2.518 -1.6551 -3.1976 -1.1700
19322TIP3   OH279380   6.037   4.761   0.704  0.3862  0.1316 -0.1091
19322TIP3    H179381   5.944   4.740   0.715  0.0327  2.3030  1.6466
19322TIP3    H279382   6.062   4.713   0.625 -2.0765 -0.9202 -0.3741
19323TIP3   OH279383   0.016   5.511  11.867  0.8177  0.7066  0.3877
19323TIP3    H179384   0.070   5.469  11.934  0.8053 -0.3820 -0.2536
19323TIP3    H279385  -0.049   5.444  11.842  0.8914  1.0337 -0.7768
19324TIP3   OH279386   2.301   2.566  15.636 -0.7613 -0.8163 -0.0483
19324TIP3    H179387   2.246   2.492  15.612 -0.6405 -0.8283 -0.2897
19324TIP3    H279388   2.266   2.595  15.720  0.2615 -2.2019  0.8845
19325TIP3   OH279389   2.102   3.619  13.646 -0.6000 -0.5805  0.1875
19325TIP3    H179390   2.095   3.523  13.644 -0.6799 -0.6513  1.8654
19325TIP3    H279391   2.160   3.637  13.720 -0.2194  0.6631 -0.3888
19326TIP3   OH279392   5.655   6.183  13.809  0.4635 -0.0930 -0.0859
19326TIP3    H179393   5.581   6.236  13.779  0.0888 -0.3376  0.3814
19326TIP3    H279394   5.614   6.100  13.836  0.7669  0.1713  1.2233
19327TIP3   OH279395   3.711   3.306   1.070  0.4451 -0.2393  0.4133
19327TIP3    H179396   3.766   3.360   1.013  1.0004 -1.1250  0.0911
19327TIP3    H279397   3.727   3.216   1.041 -0.8277 -0.5538  0.6176
19328TIP3   OH279398   4.311   4.866   5.415  0.0323  0.0571  0.1452
19328TIP3    H179399   4.270   4.880   5.329  0.2569 -0.2271 -0.0115
19328TIP3    H279400   4.253   4.804   5.459  0.6329 -0.8791 -0.3382
19329TIP3   OH279401   3.425   6.569   4.140 -0.1552  0.6777 -0.2970
19329TIP3    H179402   3.341   6.568   4.095 -0.9761  2.5881  1.0811
19329TIP3    H279403   3.487   6.535   4.076 -2.2332 -2.8082 -0.6609
19330TIP3   OH279404   3.483   5.917  13.661  0.2874  0.5649 -0.3640
19330TIP3    H179405   3.394   5.949  13.670  0.9145  2.7768 -1.4449
19330TIP3    H279406   3.476   5.842  13.601 -0.5826  2.4448 -2.7736
19331TIP3   OH279407   4.941   0.681  14.805  0.6681 -0.1238  0.1018
19331TIP3    H179408   4.949   0.593  14.842  0.9861 -1.0268 -1.9725
19331TIP3    H279409   4.951   0.739  14.880  0.3032 -1.8435  1.5628
19332TIP3   OH279410   5.562   1.904   2.708  0.0741  0.8216 -0.0488
19332TIP3    H179411   5.646   1.923   2.748  0.3526 -1.8828  0.8474
19332TIP3    H279412   5.501   1.896   2.781  0.2518 -2.5411 -0.0803
19333TIP3   OH279413   5.464   3.831   2.926  0.1491 -0.4070 -0.0084
19333TIP3    H179414   5.376   3.832   2.891  0.7097  3.5762 -1.8354
19333TIP3    H279415   5.461   3.891   3.001  1.3404  0.2186 -0.4245
19334TIP3   OH279416   0.101   0.609   3.706 -0.1000 -0.8132  0.0480
19334TIP3    H179417   0.182   0.559   3.718 -0.9907 -2.0663  1.1785
19334TIP3    H279418   0.119   0.693   3.749  1.0388 -0.5323 -0.9043
19335TIP3   OH279419   6.190   5.847  16.204 -0.0365  0.0878 -1.0522
19335TIP3    H179420   6.182   5.898  16.123 -1.1979  1.0335 -0.3784
19335TIP3    H279421   6.216   5.911  16.271 -2.0194 -0.0340 -0.0884
19336TIP3   OH279422   2.873   0.179   3.571 -0.2687  0.3204  0.2835
19336TIP3    H179423   2.910   0.196   3.484  0.0363 -0.4692  0.2445
19336TIP3    H279424   2.851   0.265   3.605  0.9412  0.7720 -0.0024
19337TIP3   OH279425   0.416   1.168   2.246  0.1811  0.2085  0.2904
19337TIP3    H179426   0.479   1.125   2.187  0.3609 -0.8126  1.2002
19337TIP3    H279427   0.405   1.256   2.209 -1.1347 -0.9750 -2.3508
19338TIP3   OH279428   1.269   3.406  12.768 -0.3793 -0.2815  0.0154
19338TIP3    H179429   1.322   3.484  12.786 -0.5991 -0.0472 -0.3488
19338TIP3    H279430   1.179   3.434  12.784 -0.4630 -0.4498 -0.1553
19339TIP3   OH279431   0.608   4.300  12.558  0.1093  0.2711  0.0148
19339TIP3    H179432   0.548   4.263  12.493  0.0415  0.8397 -0.2506
19339TIP3    H279433   0.669   4.229  12.577 -0.4926 -0.2383  0.1004
19340TIP3   OH279434   6.057   1.045   0.378  0.3282  0.0212 -0.7126
19340TIP3    H179435   6.026   1.010   0.462 -0.4227  4.2409  1.0217
19340TIP3    H279436   6.152   1.028   0.379  0.5727  1.1333  1.7064
19341TIP3   OH279437   1.960   3.115   4.517  0.4761  0.6735  0.2265
19341TIP3    H179438   1.947   3.203   4.482 -1.1380 -0.0487 -1.1660
19341TIP3    H279439   2.007   3.069   4.447 -0.8913 -0.2139 -0.1485
19342TIP3   OH279440   4.753   0.458  17.416  0.3005 -0.4018  0.4520
19342TIP3    H179441   4.716   0.387  17.364  0.6895 -0.7423  0.6396
19342TIP3    H279442   4.835   0.423  17.450 -0.2516 -0.4054  1.8120
19343TIP3   OH279443   0.642   3.057   2.668 -0.1784  0.0696 -0.7309
19343TIP3    H179444   0.612   3.144   2.694 -0.7688 -0.6770  1.3194
19343TIP3    H279445   0.567   3.017   2.625 -0.2887  0.1669 -0.6271
19344TIP3   OH279446   4.564   6.651   4.776 -0.1068  0.1228  0.6674
19344TIP3    H179447   4.509   6.693   4.709 -0.8725 -0.1378  1.1222
19344TIP3    H279448   4.606   6.724   4.821  0.2904  0.3101  0.0159
19345TIP3   OH279449   3.917   5.700   3.177 -0.7438  0.3013  0.1031
19345TIP3    H179450   3.836   5.739   3.144 -0.4621 -0.0513 -1.0689
19345TIP3    H279451   3.952   5.765   3.238 -2.1737  0.2151  1.0562
19346TIP3   OH279452   4.050   2.953  16.379  0.0224  0.1238 -0.0429
19346TIP3    H179453   4.082   3.043  16.369 -1.2739  0.5920 -0.2675
19346TIP3    H279454   4.005   2.934  16.297 -1.9615  0.2719  0.9262
19347TIP3   OH279455   5.163   1.358  15.128 -0.4284 -0.3679 -0.4795
19347TIP3    H179456   5.100   1.292  15.157  0.3723 -1.0684 -0.2577
19347TIP3    H279457   5.114   1.440  15.126 -0.9543 -0.5879  1.2666
19348TIP3   OH279458   1.618   0.117   2.592 -0.4675  0.2582  0.2271
19348TIP3    H179459   1.610   0.123   2.497 -0.4245 -1.0248  0.1339
19348TIP3    H279460   1.531   0.143   2.625 -0.6407  0.1951 -0.1783
19349TIP3   OH279461   5.462   1.192  14.800  0.4841  0.0176  0.7206
19349TIP3    H179462   5.551   1.178  14.833  0.6094 -0.9003  0.0508
19349TIP3    H279463   5.414   1.229  14.874  0.9919 -1.1002  1.6376
19350TIP3   OH279464   6.707   4.249  16.281 -0.2583 -0.6173 -0.1345
19350TIP3    H179465   6.663   4.314  16.226 -0.1848  0.2908  0.8411
19350TIP3    H279466   6.717   4.293  16.366  0.5354 -1.6142  0.3046
19351TIP3   OH279467   1.350   2.651   4.308  0.1851  0.5097  0.0298
19351TIP3    H179468   1.391   2.656   4.222  1.7147  0.9307  0.7504
19351TIP3    H279469   1.325   2.559   4.318 -2.3666  0.8697 -1.8536
19352TIP3   OH279470   4.969   4.226  14.327  0.0290  0.4675 -0.0024
19352TIP3    H179471   4.911   4.243  14.253  1.0020  3.2814 -0.2657
19352TIP3    H279472   4.923   4.260  14.403  0.5587  1.0902  0.0551
19353TIP3   OH279473   4.551   4.534  14.545 -0.1840  0.6918  0.1036
19353TIP3    H179474   4.538   4.536  14.639  0.2586 -0.5030  0.1978
19353TIP3    H279475   4.609   4.608  14.527  0.9343  0.0478  0.9688
19354TIP3   OH279476   2.265   0.650   4.426 -0.0310  0.0921 -0.0188
19354TIP3    H179477   2.261   0.612   4.514  0.6223 -0.8985 -0.3961
19354TIP3    H279478   2.320   0.590   4.376  1.2122  1.6471 -0.6144
19355TIP3   OH279479   3.672   4.189  14.407  0.0738 -0.7662  0.0180
19355TIP3    H179480   3.628   4.267  14.373 -1.4181 -1.4362  0.3501
19355TIP3    H279481   3.685   4.134  14.330 -0.8143 -1.0905  0.0836
19356TIP3   OH279482   3.688   3.137  15.743  0.2959 -0.1433  0.1146
19356TIP3    H179483   3.661   3.052  15.708  1.4568 -0.1069 -0.9220
19356TIP3    H279484   3.780   3.145  15.718  0.9170  0.3333  2.3749
19357TIP3   OH279485   1.925   4.815  10.878  0.0563 -0.1076 -0.3455
19357TIP3    H179486   1.997   4.866  10.841 -0.4199  0.7946 -0.0696
19357TIP3    H279487   1.944   4.812  10.972 -0.1079 -0.1227 -0.3127
19358TIP3   OH279488   0.887   0.667   4.705 -0.1576 -0.5975  0.2417
19358TIP3    H179489   0.846   0.594   4.658 -0.6355  0.7370 -1.5478
19358TIP3    H279490   0.814   0.724   4.730  0.2056 -0.7043  1.6006
19359TIP3   OH279491   5.173   3.660   5.450 -0.0355  0.6725  0.4486
19359TIP3    H179492   5.212   3.683   5.535 -1.2820 -0.4806  1.3802
19359TIP3    H279493   5.247   3.631   5.397  0.5991  0.0057  1.6431
19360TIP3   OH279494   5.802   5.983  14.590 -0.0474 -0.6765  0.0677
19360TIP3    H179495   5.773   6.021  14.507 -0.6032  0.8795  0.9277
19360TIP3    H279496   5.885   6.026  14.610 -0.3440 -0.3884  0.7279
19361TIP3   OH279497   1.572   5.394   4.879 -0.2514 -0.6345 -0.2675
19361TIP3    H179498   1.613   5.413   4.794  3.0911 -0.1697  1.2865
19361TIP3    H279499   1.579   5.299   4.888  0.7058 -0.5510  0.0303
19362TIP3   OH279500   1.550   1.804   2.112  0.0878 -0.1954  0.3547
19362TIP3    H179501   1.597   1.884   2.086  2.0708 -1.0448  1.0793
19362TIP3    H279502   1.588   1.781   2.197 -1.7177 -0.9552  1.0052
19363TIP3   OH279503   5.558   3.550   1.546  0.1737  0.2492 -0.0514
19363TIP3    H179504   5.619   3.603   1.598  0.9665 -1.0699  0.4301
19363TIP3    H279505   5.505   3.504   1.610  0.6045 -0.7709 -0.4028
19364TIP3   OH279506   0.821   4.138   3.986  0.9296  0.7908  0.1336
19364TIP3    H179507   0.898   4.095   3.949  1.5698  1.8575  0.1824
19364TIP3    H279508   0.755   4.069   3.991  1.8291 -0.1104 -0.0510
19365TIP3   OH279509   5.504   1.808  11.840  0.0272 -0.1253 -0.2593
19365TIP3    H179510   5.515   1.817  11.745 -2.0983 -1.3851 -0.6867
19365TIP3    H279511   5.576   1.751  11.867 -1.5688 -3.1481 -1.8741
19366TIP3   OH279512   4.237   5.551   3.477 -0.8994 -0.4201  0.1241
19366TIP3    H179513   4.226   5.457   3.493  0.7494 -0.5471  0.6545
19366TIP3    H279514   4.247   5.558   3.383 -0.4366 -0.8509  0.1350
19367TIP3   OH279515   0.375   5.561   2.057 -0.2703  0.1257 -0.0039
19367TIP3    H179516   0.454   5.613   2.077 -0.6308  0.8006 -0.2931
19367TIP3    H279517   0.398   5.513   1.978  1.0010 -2.2086  1.6526
19368TIP3   OH279518   3.243   3.492   2.862 -0.5262 -0.1806 -0.2627
19368TIP3    H179519   3.338   3.507   2.858 -0.6510  1.0217  0.6777
19368TIP3    H279520   3.234   3.415   2.918 -0.1516  0.8374  1.2747
19369TIP3   OH279521   1.973   0.795  11.828 -0.0393 -0.7081 -0.2397
19369TIP3    H179522   1.886   0.816  11.863  0.0180 -0.1601 -0.4294
19369TIP3    H279523   2.018   0.752  11.901  0.0595  0.3770  0.3473
19370TIP3   OH279524   6.027   1.996  12.306  0.2533 -0.4897 -0.1743
19370TIP3    H179525   6.000   2.039  12.387  3.8774  2.7915 -0.4118
19370TIP3    H279526   5.947   1.959  12.270 -1.9751  0.2569  3.5128
19371TIP3   OH279527   0.948   2.810  12.897  0.1252  0.1269 -0.3806
19371TIP3    H179528   0.961   2.794  12.804 -0.2937 -3.1050 -0.0370
19371TIP3    H279529   1.006   2.747  12.940 -2.4640 -1.2433  1.3903
19372TIP3   OH279530   4.608   2.611   4.564  0.0842  0.7026  0.4382
19372TIP3    H179531   4.662   2.621   4.643 -1.1532 -1.4621  1.6780
19372TIP3    H279532   4.554   2.689   4.562 -1.2035 -0.0237  2.9202
19373TIP3   OH279533   1.554   2.926  16.777 -0.2615 -0.0077  0.1301
19373TIP3    H179534   1.628   2.885  16.822 -0.3673  0.5041  0.7772
19373TIP3    H279535   1.544   3.011  16.820  0.1888  0.8830 -1.4370
19374TIP3   OH279536   4.603   4.812   2.341  0.1965 -0.2996 -0.3395
19374TIP3    H179537   4.612   4.742   2.406 -0.7030  0.2580  0.4244
19374TIP3    H279538   4.675   4.799   2.281  1.0161 -0.8958  0.7353
19375TIP3   OH279539   3.270   4.030  16.091  0.0002  0.0208  0.7496
19375TIP3    H179540   3.278   4.027  15.995 -1.5843  2.0356  0.4848
19375TIP3    H279541   3.198   3.969  16.110  0.8283 -0.9759  0.7728
19376TIP3   OH279542   2.970   3.900  15.468  0.4202  0.2780 -0.6119
19376TIP3    H179543   2.945   3.967  15.405 -0.5875  3.6780  2.9397
19376TIP3    H279544   2.890   3.849  15.482 -0.2684  1.4651 -0.0262
19377TIP3   OH279545   2.381   2.505  12.537  0.1562  0.0677  0.3110
19377TIP3    H179546   2.406   2.443  12.469 -2.0116 -0.0451 -0.4572
19377TIP3    H279547   2.458   2.562  12.548  0.0360  1.2560 -3.5215
19378TIP3   OH279548   2.402   5.135   2.332 -0.4298 -0.5298 -0.4120
19378TIP3    H179549   2.455   5.060   2.307  3.0691  1.3518  0.6563
19378TIP3    H279550   2.405   5.193   2.256  0.2697  0.1736  0.1342
19379TIP3   OH279551   5.678   6.369   1.177 -0.0574  0.1791 -0.0596
19379TIP3    H179552   5.681   6.305   1.248  0.5579 -0.3492 -0.5497
19379TIP3    H279553   5.614   6.332   1.115 -0.2603  0.4175  0.0047
19380TIP3   OH279554   1.171   1.011   2.547 -0.3239  0.0596  0.5201
19380TIP3    H179555   1.215   1.089   2.582 -3.1438  1.6380  0.8613
19380TIP3    H279556   1.174   1.022   2.452  0.2875 -0.0276  0.5259
19381TIP3   OH279557   0.747   2.413  17.055  0.3918  0.1496  0.0784
19381TIP3    H179558   0.699   2.365  17.122  0.9231  1.2689  1.2841
19381TIP3    H279559   0.794   2.345  17.006 -0.3390 -0.7108  0.5405
19382TIP3   OH279560   4.101   1.005  12.590  0.4072  0.5849 -0.6381
19382TIP3    H179561   4.149   1.088  12.599 -0.5052  0.9870  0.8047
19382TIP3    H279562   4.051   1.016  12.509  0.4245  1.3786 -0.5549
19383TIP3   OH279563   4.273   0.579  14.252 -0.3240 -0.3845  0.3014
19383TIP3    H179564   4.305   0.667  14.274  1.4716 -1.5894  2.9933
19383TIP3    H279565   4.332   0.550  14.182 -0.9368  0.5235 -0.6166
19384TIP3   OH279566   3.718   5.684  12.383 -0.2686 -0.6159  0.4908
19384TIP3    H179567   3.736   5.759  12.438 -0.7031  0.9646 -1.4100
19384TIP3    H279568   3.804   5.644  12.368 -0.0626 -0.6467  1.6752
19385TIP3   OH279569   6.346   5.512  14.692 -0.3086 -0.1174 -0.5524
19385TIP3    H179570   6.281   5.482  14.756  0.1618 -0.3006 -0.1593
19385TIP3    H279571   6.324   5.605  14.679  1.0300  0.5937  1.6932
19386TIP3   OH279572   4.693   5.242   0.869 -0.2897 -0.0112 -0.0445
19386TIP3    H179573   4.602   5.216   0.884 -0.4871 -1.3245 -2.8378
19386TIP3    H279574   4.687   5.319   0.813  0.3105 -0.1668 -0.3319
19387TIP3   OH279575   5.899   5.733   1.022  0.1937  0.0221  0.5283
19387TIP3    H179576   5.922   5.821   1.053  0.0889 -0.6943  2.8505
19387TIP3    H279577   5.959   5.675   1.069  0.6216 -1.1486 -1.3741
19388TIP3   OH279578   4.391   0.390   4.992  0.6004  0.1342  0.0237
19388TIP3    H179579   4.316   0.408   5.049  0.9830 -0.3202  0.6847
19388TIP3    H279580   4.354   0.340   4.919  0.3522 -0.6037  0.6461
19389TIP3   OH279581   4.172   2.818   1.537 -0.1999 -0.3977 -0.3507
19389TIP3    H179582   4.144   2.729   1.515  0.6184 -0.7456 -0.0274
19389TIP3    H279583   4.206   2.854   1.455  1.0946 -1.0170 -0.1031
19390TIP3   OH279584   2.052   0.692   1.753 -0.3335 -0.4822  0.1158
19390TIP3    H179585   2.029   0.780   1.721 -0.6405 -1.1990 -1.7727
19390TIP3    H279586   1.997   0.679   1.830 -0.0163  1.1047  0.6582
19391TIP3   OH279587   2.129   0.874  17.295 -0.1034  0.5218  0.0272
19391TIP3    H179588   2.111   0.953  17.345 -0.5894  0.3805  0.0871
19391TIP3    H279589   2.117   0.803  17.358  2.7123  0.4844  0.6269
19392TIP3   OH279590   4.575   3.254  17.426  0.6917  0.5589 -0.2879
19392TIP3    H179591   4.580   3.329  17.486 -1.6429  1.4897 -1.1192
19392TIP3    H279592   4.556   3.294  17.341 -2.7420 -0.9685 -0.4044
19393TIP3   OH279593   3.903   2.061   4.776  0.4540 -0.6191  0.2531
19393TIP3    H179594   3.910   1.983   4.830 -2.8038 -0.7728  0.6279
19393TIP3    H279595   3.906   2.134   4.838  3.9461 -0.2606 -0.1300
19394TIP3   OH279596   5.474   5.745  12.437  0.2012  0.0807  0.1182
19394TIP3    H179597   5.561   5.769  12.467  0.5439 -0.5946 -0.2976
19394TIP3    H279598   5.461   5.656  12.470 -0.2575  0.1108  0.0254
19395TIP3   OH279599   4.233   5.376   4.069 -0.8364  0.3807 -0.6066
19395TIP3    H179600   4.204   5.391   3.978 -1.6826  0.8005 -0.2827
19395TIP3    H279601   4.244   5.282   4.075 -1.9794  0.2100 -0.8254
19396TIP3   OH279602   3.022   4.066  13.223  0.2429 -0.0975 -0.1710
19396TIP3    H179603   2.935   4.104  13.228  1.1869  2.3825 -1.0668
19396TIP3    H279604   3.007   3.972  13.210 -2.2899  0.3863 -1.2360
19397TIP3   OH279605   3.863   6.487  14.160 -0.5613 -0.3945 -0.0131
19397TIP3    H179606   3.770   6.462  14.162 -0.8066  0.4628  1.3005
19397TIP3    H279607   3.862   6.579  14.186  0.5484  0.0941 -1.5838
19398TIP3   OH279608   6.086   3.546   3.814  0.1088 -0.1650 -0.0592
19398TIP3    H179609   6.098   3.641   3.815  1.2487 -0.2871 -0.5974
19398TIP3    H279610   5.997   3.533   3.782 -0.1934  0.7314  0.3988
19399TIP3   OH279611   5.078   1.533   4.413  0.3344 -0.1762 -0.5657
19399TIP3    H179612   5.068   1.614   4.363 -1.9357 -0.1921 -0.2306
19399TIP3    H279613   5.163   1.543   4.458  2.5606 -0.2347 -4.3672
19400TIP3   OH279614   4.573   6.253   0.952 -0.4649 -0.2747 -0.3181
19400TIP3    H179615   4.550   6.346   0.953 -2.2338 -0.6782 -0.2911
19400TIP3    H279616   4.491   6.208   0.932  0.5751 -1.7892 -1.4247
19401TIP3   OH279617   2.037   3.728   3.843  0.3888 -0.4512 -0.0338
19401TIP3    H179618   2.006   3.804   3.891 -0.6277 -0.7932 -0.1138
19401TIP3    H279619   2.097   3.684   3.904  0.3717 -0.0098  0.3068
19402TIP3   OH279620   3.717   4.531  10.983  0.3577  0.0790  0.3860
19402TIP3    H179621   3.689   4.494  10.900 -0.4573  0.9580  0.2503
19402TIP3    H279622   3.808   4.502  10.993 -0.3552 -2.2815  0.5113
19403TIP3   OH279623   1.145   0.044   1.723 -0.2038  0.1339  0.1740
19403TIP3    H179624   1.057   0.057   1.759  0.1811 -1.9078  2.0241
19403TIP3    H279625   1.161  -0.050   1.730  2.6145  0.5710  1.1640
19404TIP3   OH279626   1.108   4.056   1.444 -0.2321 -0.2758  0.0610
19404TIP3    H179627   1.101   4.017   1.357  0.4258 -0.3877  0.0548
19404TIP3    H279628   1.018   4.057   1.477 -0.1716 -3.1846  0.6322
19405TIP3   OH279629   5.817   6.428  15.639 -0.0711  0.0324 -0.5769
19405TIP3    H179630   5.884   6.496  15.630  0.9351 -0.8809 -0.3009
19405TIP3    H279631   5.805   6.395  15.550  0.7240 -0.5816 -0.4729
19406TIP3   OH279632   2.186   4.031  13.662  0.1041 -0.3477 -0.0491
19406TIP3    H179633   2.155   3.960  13.604  1.6232 -1.1861  0.1067
19406TIP3    H279634   2.118   4.038  13.729 -0.5130 -1.0385 -0.5785
19407TIP3   OH279635   3.991   1.710  12.278  0.3045  0.4843 -0.3203
19407TIP3    H179636   3.997   1.780  12.344  1.7845  0.9355 -0.8837
19407TIP3    H279637   4.064   1.652  12.299 -0.1146 -0.1801 -0.6726
19408TIP3   OH279638   1.466   6.167   3.548  0.0552 -0.0634 -0.1239
19408TIP3    H179639   1.405   6.185   3.620  0.0383  1.2551 -0.4369
19408TIP3    H279640   1.465   6.072   3.539 -1.6050 -0.1068  0.1783
19409TIP3   OH279641   3.228   5.389  12.502 -0.3020  0.6496  0.2599
19409TIP3    H179642   3.174   5.466  12.519 -1.2703 -0.1369  0.8523
19409TIP3    H279643   3.227   5.340  12.584 -0.1251 -0.2373 -0.2509
19410TIP3   OH279644   6.421   3.482   4.440  0.0908  0.3340  0.3649
19410TIP3    H179645   6.436   3.396   4.479 -0.0117 -0.7315 -1.8125
19410TIP3    H279646   6.326   3.487   4.428 -0.0182  1.2079  1.3767
19411TIP3   OH279647   0.561   2.399   3.459 -0.3404  0.0109 -0.2409
19411TIP3    H179648   0.604   2.481   3.485  0.8424 -0.4586 -0.6569
19411TIP3    H279649   0.534   2.359   3.541 -1.6543  1.1830 -0.0685
19412TIP3   OH279650   6.274   4.820  13.564  0.3323 -0.1050  0.2997
19412TIP3    H179651   6.286   4.763  13.488  1.9284  0.0062  0.4285
19412TIP3    H279652   6.202   4.781  13.613 -1.6860  0.5672 -1.9233
19413TIP3   OH279653   4.268   5.132  16.448 -0.1922 -0.0794  0.0642
19413TIP3    H179654   4.286   5.059  16.508  1.7595 -0.8848 -1.3946
19413TIP3    H279655   4.224   5.091  16.373  0.9380  0.1984 -0.7756
19414TIP3   OH279656   6.485   5.838  11.512  0.3038 -0.6235  0.0392
19414TIP3    H179657   6.552   5.863  11.576  1.1440 -0.9637 -0.6724
19414TIP3    H279658   6.531   5.777  11.453 -0.5202 -0.5282 -0.7148
19415TIP3   OH279659   3.119   3.425  13.253 -0.0040  0.5014  0.6633
19415TIP3    H179660   3.117   3.475  13.171  1.3355  1.3721  1.1113
19415TIP3    H279661   3.097   3.490  13.321 -0.6664 -0.1063  1.0387
19416TIP3   OH279662   1.745   2.660  13.045  0.2833  0.3616  0.1281
19416TIP3    H179663   1.832   2.625  13.027  0.8605  0.7858  1.8799
19416TIP3    H279664   1.686   2.612  12.986  1.7388  0.3741 -1.3890
19417TIP3   OH279665   6.470   0.027   2.156  0.3510 -0.4247  0.7310
19417TIP3    H179666   6.464   0.020   2.061  3.3432  0.5844  0.3716
19417TIP3    H279667   6.464  -0.063   2.188 -1.7495 -0.6953 -0.2629
19418TIP3   OH279668   0.962   5.779   1.674 -0.2517 -0.2311  0.6036
19418TIP3    H179669   1.018   5.785   1.751 -0.1070  0.5435  0.4472
19418TIP3    H279670   0.928   5.868   1.662 -1.7743 -0.7426  0.8816
19419TIP3   OH279671   6.213   1.987   2.170 -0.4231  0.6259 -0.0003
19419TIP3    H179672   6.186   1.958   2.257 -1.8791  0.9613 -0.3064
19419TIP3    H279673   6.261   1.912   2.134 -0.6308  0.1236  0.7247
19420TIP3   OH279674   6.709   5.396  13.717  0.2630 -0.5273  0.4847
19420TIP3    H179675   6.786   5.453  13.730 -0.1579  0.3614 -0.6717
19420TIP3    H279676   6.746   5.312  13.690  0.8455 -0.0562 -0.2345
19421TIP3   OH279677   6.201   1.448  12.626  0.3834  0.3991 -0.6620
19421TIP3    H179678   6.181   1.386  12.696 -0.1012 -0.1449 -1.2669
19421TIP3    H279679   6.162   1.530  12.655  0.9024  0.3861  0.0784
19422TIP3   OH279680   3.110   0.171   5.678  0.0709 -1.0388 -0.1684
19422TIP3    H179681   3.114   0.223   5.598  1.2186 -0.9814 -0.0950
19422TIP3    H279682   3.076   0.086   5.650 -0.5007 -0.6981 -0.5299
19423TIP3   OH279683   5.912   3.625   0.150 -0.3675  0.2870  0.7280
19423TIP3    H179684   5.912   3.683   0.073  0.0559  0.5497  0.9217
19423TIP3    H279685   5.994   3.647   0.196  0.1803 -0.9904  0.4025
19424TIP3   OH279686   6.662   5.161  13.555 -0.1109 -0.3401 -0.1855
19424TIP3    H179687   6.669   5.070  13.584  1.8160  0.2946  1.5990
19424TIP3    H279688   6.748   5.182  13.519 -0.6764  0.6680 -1.0384
19425TIP3   OH279689   5.277   4.315  11.073 -0.1127 -0.3464 -0.5272
19425TIP3    H179690   5.357   4.349  11.033  0.7694 -1.1602  0.4912
19425TIP3    H279691   5.209   4.329  11.007  1.2346 -1.3640 -2.2194
19426TIP3   OH279692   5.616   3.399   2.741 -0.0504  0.5495  0.3267
19426TIP3    H179693   5.630   3.379   2.649 -1.0371  0.9917  0.0601
19426TIP3    H279694   5.569   3.322   2.775  2.8052 -0.9276  1.2105
19427TIP3   OH279695   2.918   2.149   2.631 -0.1708 -0.1055 -0.2439
19427TIP3    H179696   2.964   2.204   2.694 -2.4375  0.6087  0.8919
19427TIP3    H279697   2.827   2.180   2.633 -0.9750 -2.1469 -1.5574
19428TIP3   OH279698   2.697   1.848   3.015  0.0854 -0.7575 -0.4614
19428TIP3    H179699   2.651   1.919   2.970  2.0839  0.9799  0.0835
19428TIP3    H279700   2.633   1.812   3.076 -0.8987  0.8048 -0.5199
19429TIP3   OH279701   6.532   1.510  12.281 -0.8015  0.1487  0.3738
19429TIP3    H179702   6.555   1.597  12.315 -0.4537  0.1886  0.0468
19429TIP3    H279703   6.437   1.505  12.291 -0.9732  0.9985 -0.5790
19430TIP3   OH279704   0.024   2.247  16.871 -0.2177  0.1869 -0.6974
19430TIP3    H179705  -0.070   2.242  16.854 -0.3027  0.3891 -0.3158
19430TIP3    H279706   0.031   2.244  16.967  0.1785 -0.0585 -0.7324
19431TIP3   OH279707   3.564   5.833   5.413 -0.5426 -0.1768 -0.3011
19431TIP3    H179708   3.612   5.842   5.495 -0.0335 -1.0683 -0.4827
19431TIP3    H279709   3.529   5.920   5.395 -1.9348 -0.2929  1.6314
19432TIP3   OH279710   3.720   4.356   4.270 -1.0113 -0.0102  0.4336
19432TIP3    H179711   3.634   4.373   4.307 -1.8383 -2.3625 -0.2839
19432TIP3    H279712   3.772   4.324   4.344 -1.8263 -1.9503  0.2217
19433TIP3   OH279713   2.011   5.528  10.509  0.2656  0.2874 -0.4230
19433TIP3    H179714   2.042   5.526  10.418 -1.8854  1.4691 -1.2421
19433TIP3    H279715   1.919   5.551  10.503  0.2464  1.2421  2.1165
19434TIP3   OH279716   4.475   4.275  13.315  0.4598  0.0776 -0.4147
19434TIP3    H179717   4.551   4.223  13.342  1.0723  0.3887 -1.4683
19434TIP3    H279718   4.448   4.236  13.232 -0.4922  0.0255 -0.0882
19435TIP3   OH279719   3.989   1.147  12.303  0.5228 -0.2862 -0.2215
19435TIP3    H179720   4.029   1.226  12.266  1.9275 -0.8259  0.1246
19435TIP3    H279721   4.007   1.079  12.238 -1.8591 -0.1027 -1.1893
19436TIP3   OH279722   6.434   0.056   5.302  0.0575  0.0003 -1.2450
19436TIP3    H179723   6.524   0.052   5.336  0.4459 -0.6869 -2.3115
19436TIP3    H279724   6.390   0.118   5.360  0.5587 -1.4461  0.8133
19437TIP3   OH279725   4.784   1.771   4.959 -0.5865 -0.0447  0.0092
19437TIP3    H179726   4.805   1.864   4.944 -0.9464  0.3476  1.6876
19437TIP3    H279727   4.860   1.724   4.926  0.7388  1.0261  1.4127
19438TIP3   OH279728   3.298   2.705   5.704  0.0059  0.0527 -0.1410
19438TIP3    H179729   3.369   2.750   5.749  0.5033  0.0417 -0.9025
19438TIP3    H279730   3.300   2.739   5.615  0.2030 -1.2610 -0.6509
19439TIP3   OH279731   2.532   5.285  16.551  0.0930 -1.1962 -0.5252
19439TIP3    H179732   2.585   5.349  16.503 -1.0799 -0.0016 -0.3140
19439TIP3    H279733   2.442   5.311  16.533 -0.4570  0.0384  3.1122
19440TIP3   OH279734   4.582   4.010  15.583 -0.1224 -0.1110  0.0095
19440TIP3    H179735   4.496   4.042  15.611 -1.2352 -1.2666 -1.8547
19440TIP3    H279736   4.563   3.957  15.505  2.4697  0.9923 -1.4887
19441TIP3   OH279737   3.162   0.947   5.935  0.0825  0.2704 -0.0860
19441TIP3    H179738   3.132   0.995   6.012  0.5256  1.1078 -0.4224
19441TIP3    H279739   3.126   0.860   5.946 -1.1955  0.8209  0.2862
19442TIP3   OH279740   1.480   2.397   0.018 -0.2367 -0.1093 -0.0331
19442TIP3    H179741   1.530   2.316   0.028 -0.2573 -0.5805 -2.8344
19442TIP3    H279742   1.395   2.378   0.056 -0.3704 -1.5963 -0.9871
19443TIP3   OH279743   0.073   3.153  16.974 -0.3021  0.0608  0.0734
19443TIP3    H179744  -0.011   3.182  16.939 -0.0248  1.7143  0.6852
19443TIP3    H279745   0.055   3.134  17.066 -0.5990 -2.3838 -0.4205
19444TIP3   OH279746   2.841   5.963   0.006  0.0126 -0.0385  0.7669
19444TIP3    H179747   2.927   5.924   0.020  0.4204  1.1086  1.6512
19444TIP3    H279748   2.840   6.040   0.064 -1.8656 -0.3979  1.2697
19445TIP3   OH279749   4.651   3.862   1.407 -0.2642 -1.0451  0.4409
19445TIP3    H179750   4.594   3.914   1.464 -0.0590 -1.4238  1.0011
19445TIP3    H279751   4.681   3.924   1.340  2.2331  0.3588  2.6649
19446TIP3   OH279752   0.532   4.568   3.404 -0.0576  0.7809  0.2460
19446TIP3    H179753   0.615   4.524   3.386 -0.9492 -1.3847  1.0940
19446TIP3    H279754   0.545   4.611   3.488 -0.4570 -1.5467  1.5747
19447TIP3   OH279755   4.781   2.691   4.766 -0.1895 -0.1677 -0.5375
19447TIP3    H179756   4.710   2.737   4.812  1.4121  0.8485  1.0219
19447TIP3    H279757   4.861   2.734   4.796  1.2241 -2.2830 -1.0720
19448TIP3   OH279758   0.840   0.180  11.796 -0.5038 -0.4227 -0.2305
19448TIP3    H179759   0.777   0.247  11.824 -2.2721 -1.7267 -0.8774
19448TIP3    H279760   0.804   0.098  11.830  1.3595 -1.1316  0.1523
19449TIP3   OH279761   4.733   4.200  12.827  0.3755  0.5396  0.4766
19449TIP3    H179762   4.733   4.154  12.911  0.8499  0.7778  0.6109
19449TIP3    H279763   4.822   4.235  12.819  0.1685  0.9980  0.1427
19450TIP3   OH279764   0.778   1.413   2.226  0.0329  0.9535  0.1708
19450TIP3    H179765   0.799   1.322   2.204 -0.5732  0.8791 -0.1093
19450TIP3    H279766   0.859   1.447   2.265  0.2722  0.3069  0.2511
19451TIP3   OH279767   3.925   6.445  13.326  0.7461 -0.3619  0.0239
19451TIP3    H179768   3.960   6.534  13.327 -0.3700  0.1016  1.7622
19451TIP3    H279769   3.834   6.456  13.299  0.6249 -0.9782  0.1778
19452TIP3   OH279770   2.808   4.997   1.451 -0.0073 -0.3381  0.3800
19452TIP3    H179771   2.788   5.016   1.543 -0.7911  0.7637  0.0077
19452TIP3    H279772   2.734   4.944   1.421  0.0353 -0.3360  0.2718
19453TIP3   OH279773   2.686   3.992   0.385  0.2988 -0.1188 -0.4826
19453TIP3    H179774   2.702   4.032   0.470  0.4506  0.5041 -0.7994
19453TIP3    H279775   2.596   3.958   0.391  0.5457 -0.6878  0.1515
19454TIP3   OH279776   4.696   2.538   1.548 -0.5774  0.1134 -0.1989
19454TIP3    H179777   4.744   2.507   1.472  0.1655  2.0602 -0.5783
19454TIP3    H279778   4.738   2.621   1.571 -0.2992 -0.7404  2.7928
19455TIP3   OH279779   2.532   3.168   0.331  0.1625  0.2939 -1.0765
19455TIP3    H179780   2.598   3.182   0.263  1.2920 -2.0195 -0.5666
19455TIP3    H279781   2.528   3.073   0.341 -2.0303  0.4483  0.1415
19456TIP3   OH279782   6.704   1.015  11.342  0.0564 -0.4143 -0.2952
19456TIP3    H179783   6.788   1.017  11.390  0.6927  0.2138 -1.3891
19456TIP3    H279784   6.675   1.106  11.342  0.7999 -0.1193 -2.2869
19457TIP3   OH279785   5.031   0.389  14.404 -0.1561 -0.2799 -0.5186
19457TIP3    H179786   4.964   0.375  14.470  0.6672 -1.1483  0.1545
19457TIP3    H279787   5.051   0.483  14.410 -0.0070 -0.3639  0.5669
19458TIP3   OH279788   4.072   5.943   5.396  0.2252 -0.3308 -0.6297
19458TIP3    H179789   4.137   5.969   5.331  0.1468  2.4203  0.2642
19458TIP3    H279790   4.101   5.986   5.477 -2.0807  0.0498  0.0581
19459TIP3   OH279791   5.307   2.280   0.423  0.4538  0.7123  0.1132
19459TIP3    H179792   5.216   2.307   0.438  0.5301  0.3057  1.4359
19459TIP3    H279793   5.359   2.336   0.481  0.9261  0.0867  0.3023
19460TIP3   OH279794   6.498   1.075  12.732  0.2785  0.0994 -0.7075
19460TIP3    H179795   6.521   1.040  12.646  1.3921 -1.9438  0.3435
19460TIP3    H279796   6.490   0.998  12.788 -2.0820  1.2564  0.6918
19461TIP3   OH279797   6.604   3.991  13.907  0.0341 -0.3274 -0.1389
19461TIP3    H179798   6.582   3.969  13.998 -1.6920 -2.3743 -0.9579
19461TIP3    H279799   6.644   3.911  13.873 -1.1806 -0.3061 -1.6993
19462TIP3   OH279800   3.256   4.258  12.347 -0.7703  0.0290  0.4596
19462TIP3    H179801   3.298   4.178  12.314 -0.2256  0.8425 -0.9085
19462TIP3    H279802   3.225   4.234  12.434  1.9219 -0.8393  1.2932
19463TIP3   OH279803   5.276   6.226   2.658 -0.1062  0.2911  0.0511
19463TIP3    H179804   5.296   6.300   2.714  1.0346  0.3968 -0.4712
19463TIP3    H279805   5.269   6.263   2.570 -2.7862  0.2821  0.1548
19464TIP3   OH279806   0.422   5.299   5.907  0.5465 -0.1353 -0.5385
19464TIP3    H179807   0.336   5.339   5.895  0.1635 -1.0249 -0.8857
19464TIP3    H279808   0.426   5.230   5.840  1.4479 -0.2415 -0.3966
19465TIP3   OH279809   4.857   0.494  16.692 -0.4481  0.2048 -0.6213
19465TIP3    H179810   4.845   0.439  16.614 -3.0625  0.8229 -0.7271
19465TIP3    H279811   4.782   0.473  16.748  0.3712  1.1637  0.9010
19466TIP3   OH279812   0.887   1.010  13.266 -0.0977  0.3063 -0.4855
19466TIP3    H179813   0.932   0.959  13.199 -2.1125 -1.7688 -0.3856
19466TIP3    H279814   0.826   1.066  13.217  1.7009  2.3097 -0.5596
19467TIP3   OH279815   5.060   4.920  14.058 -0.5973  0.5689  0.0821
19467TIP3    H179816   5.061   4.854  14.127  0.7266  1.4979  0.9990
19467TIP3    H279817   4.995   4.888  13.995  0.2562 -1.7615  0.3036
19468TIP3   OH279818   4.044   2.094  16.309 -0.6457  0.3388 -0.6796
19468TIP3    H179819   4.011   2.028  16.370 -1.8840  1.4511 -0.0884
19468TIP3    H279820   4.044   2.050  16.224  2.1363 -1.5942  0.2008
19469TIP3   OH279821   0.692   6.112  15.534  0.1513  0.2994  0.2512
19469TIP3    H179822   0.598   6.099  15.549  0.1782  1.0333  1.1603
19469TIP3    H279823   0.710   6.198  15.572  1.3708 -0.2120  0.8793
19470TIP3   OH279824   0.732   2.124  12.962  0.1477 -0.1269  0.5880
19470TIP3    H179825   0.681   2.205  12.967 -0.3182 -0.4571  1.2092
19470TIP3    H279826   0.702   2.082  12.881  0.3065  0.2615  0.3248
19471TIP3   OH279827   2.599   3.653  15.970  0.3765  0.1564  0.5322
19471TIP3    H179828   2.516   3.647  16.017 -0.2531 -1.8163 -0.7293
19471TIP3    H279829   2.661   3.683  16.036 -0.7468 -1.1197  2.2672
19472TIP3   OH279830   2.099   3.568  16.007  0.1308  0.2344 -0.2318
19472TIP3    H179831   2.091   3.658  16.040  1.3115 -0.1827  1.3418
19472TIP3    H279832   2.013   3.529  16.025 -0.0353  0.7353  0.1057
19473TIP3   OH279833   3.143   6.660  15.630 -0.7675 -0.1875 -0.6246
19473TIP3    H179834   3.239   6.658  15.637 -0.7555  1.0343 -0.0528
19473TIP3    H279835   3.126   6.711  15.551 -0.9573 -0.7016 -0.9205
19474TIP3   OH279836   1.396   6.043  13.664  0.0595 -0.0142 -0.0675
19474TIP3    H179837   1.381   5.952  13.640  1.9157  0.0008 -1.5063
19474TIP3    H279838   1.341   6.057  13.741 -2.8869 -1.3558 -1.7373
19475TIP3   OH279839   3.787   2.895  15.397  0.2170  0.3870 -0.0760
19475TIP3    H179840   3.855   2.948  15.356  0.1813  1.2731  0.9918
19475TIP3    H279841   3.831   2.812  15.417  0.8063  0.7218  0.0434
19476TIP3   OH279842   2.283   2.412  16.094 -0.2038 -0.1048  0.0485
19476TIP3    H179843   2.222   2.342  16.074 -0.9165  0.9838 -1.9270
19476TIP3    H279844   2.322   2.388  16.178 -3.1656 -0.9349  1.2924
19477TIP3   OH279845   4.279   4.081   1.698  0.0759  0.5908  0.2304
19477TIP3    H179846   4.216   4.098   1.768 -2.4368  3.0509 -2.3643
19477TIP3    H279847   4.254   3.995   1.664 -0.7697  0.7931  0.3238
19478TIP3   OH279848   6.148   2.223   2.011  0.3369 -0.1844  0.5254
19478TIP3    H179849   6.080   2.284   2.040 -0.7249 -0.2187 -1.7101
19478TIP3    H279850   6.154   2.159   2.082 -0.9964  0.5873  1.3806
19479TIP3   OH279851   6.073   3.275   5.773  0.2546 -0.1121  0.3587
19479TIP3    H179852   6.094   3.299   5.864 -0.1070 -0.8499  0.6436
19479TIP3    H279853   5.990   3.228   5.780 -0.4847  1.0128 -0.5210
19480TIP3   OH279854   0.445   3.848   0.377 -0.2590  0.2580 -0.1033
19480TIP3    H179855   0.530   3.824   0.414  0.0193 -0.4816 -1.1772
19480TIP3    H279856   0.393   3.768   0.381 -0.6027  0.4662 -0.2921
19481TIP3   OH279857   3.419   0.414  17.176  0.0067 -0.4680  0.1121
19481TIP3    H179858   3.351   0.466  17.218 -1.0165 -2.1571  0.6659
19481TIP3    H279859   3.430   0.338  17.234  1.4770 -0.8409 -0.6172
19482TIP3   OH279860   6.153   5.995  15.974 -0.6808 -0.2860 -0.4989
19482TIP3    H179861   6.140   6.070  16.032  0.3284 -1.1224  0.8929
19482TIP3    H279862   6.085   6.003  15.907 -1.5904  0.9889  0.5326
19483TIP3   OH279863   2.202   2.877  10.513 -0.1647 -0.0047 -0.2660
19483TIP3    H179864   2.129   2.876  10.450 -0.6288  1.8173  0.1746
19483TIP3    H279865   2.174   2.817  10.582 -1.3647  0.7682 -0.0315
19484TIP3   OH279866   0.586   1.910  12.747 -0.2582 -0.0853 -0.0880
19484TIP3    H179867   0.540   1.930  12.665  0.7256 -1.0966 -0.9143
19484TIP3    H279868   0.531   1.845  12.790 -1.0789  0.8767  0.3688
19485TIP3   OH279869   4.938   5.960  17.028  0.0965 -0.5153 -0.0576
19485TIP3    H179870   4.850   5.972  16.993  0.1212  2.5941  0.6102
19485TIP3    H279871   4.968   5.877  16.992 -2.4513 -0.8229 -1.6857
19486TIP3   OH279872   2.843   5.589   5.079 -0.8957 -0.5316  0.1147
19486TIP3    H179873   2.895   5.668   5.067  3.3146 -3.0176 -0.0168
19486TIP3    H279874   2.810   5.569   4.992 -0.1819 -0.0132 -0.2875
19487TIP3   OH279875   6.593   2.553  13.668  0.0041  0.3212  0.0968
19487TIP3    H179876   6.681   2.536  13.702  0.5704  1.1764 -0.8862
19487TIP3    H279877   6.540   2.483  13.705  1.1162 -0.2757  0.6308
19488TIP3   OH279878   5.935   0.993  16.039  0.1867 -0.3793 -0.1863
19488TIP3    H179879   5.925   0.980  15.944 -0.2530 -0.2485 -0.1581
19488TIP3    H279880   5.880   1.068  16.059 -0.7712 -1.2063  0.3870
19489TIP3   OH279881   3.332   3.110  12.847 -0.3827  0.0793  0.1997
19489TIP3    H179882   3.305   3.171  12.779  1.1364  0.1005 -0.4250
19489TIP3    H279883   3.427   3.118  12.850 -0.3953  0.0644  2.3251
19490TIP3   OH279884   3.868   6.476   5.289  0.3138 -0.1938 -0.3610
19490TIP3    H179885   3.788   6.426   5.309  0.7841 -0.8857 -0.1805
19490TIP3    H279886   3.891   6.519   5.371 -0.0033  0.2122 -0.4770
19491TIP3   OH279887   4.205   5.995  14.468  0.3497 -0.3720 -0.1313
19491TIP3    H179888   4.150   5.931  14.513  0.3561 -1.1074 -1.1222
19491TIP3    H279889   4.294   5.972  14.493  0.2262  1.2187  1.9871
19492TIP3   OH279890   6.429   0.586  14.132  0.4831  0.2185 -0.0857
19492TIP3    H179891   6.491   0.517  14.107  1.8838  1.3813  0.0484
19492TIP3    H279892   6.350   0.567  14.081  0.5423 -1.8865  0.4880
19493TIP3   OH279893   0.398   6.361  12.327  0.9268 -0.4559  0.3063
19493TIP3    H179894   0.419   6.387  12.416  0.0115  1.5765 -0.0228
19493TIP3    H279895   0.432   6.431  12.272 -0.2642 -0.6676 -0.7718
19494TIP3   OH279896   4.099   4.575  12.068 -0.5243  0.3987 -0.5432
19494TIP3    H179897   4.143   4.514  12.127 -1.0527  1.3599  0.9038
19494TIP3    H279898   4.057   4.638  12.126 -1.1450  1.3431 -1.9633
19495TIP3   OH279899   2.883   5.974   5.270  0.0795  0.6901 -0.1973
19495TIP3    H179900   2.847   5.940   5.352  1.8993 -0.3793  0.2075
19495TIP3    H279901   2.808   5.978   5.211 -1.1964  1.1061  1.3801
19496TIP3   OH279902   0.910   1.560   1.200  0.0696 -0.0895 -0.2689
19496TIP3    H179903   1.001   1.532   1.210 -0.1513 -0.7892 -0.2030
19496TIP3    H279904   0.896   1.623   1.270  0.8507  0.9210 -0.9883
19497TIP3   OH279905   5.943   0.874  15.718 -0.9164 -0.0958 -0.0993
19497TIP3    H179906   6.026   0.919  15.733 -0.8600 -0.6725  1.5113
19497TIP3    H279907   5.894   0.932  15.660  0.0143  0.9900  0.1709
19498TIP3   OH279908   0.461   4.876  10.613  0.2228  0.3515 -0.3943
19498TIP3    H179909   0.550   4.858  10.642 -0.3979 -1.8038  0.3466
19498TIP3    H279910   0.426   4.791  10.586 -1.8080  1.0238 -0.0860
19499TIP3   OH279911   0.567   2.023   1.744  0.0395  0.4099 -0.0912
19499TIP3    H179912   0.619   2.089   1.790  0.3548  0.2387 -0.1978
19499TIP3    H279913   0.478   2.057   1.745  0.4425  1.6509 -1.5745
19500TIP3   OH279914   6.671   4.909  16.217 -0.6015  0.8318  0.1381
19500TIP3    H179915   6.643   4.999  16.197 -0.2607  0.4747 -2.1137
19500TIP3    H279916   6.739   4.890  16.153 -2.2455 -1.8327 -0.9840
19501TIP3   OH279917   0.488   3.790  17.083  0.2613  0.9456 -0.6963
19501TIP3    H179918   0.471   3.703  17.121  0.9608  1.4195  0.7963
19501TIP3    H279919   0.431   3.794  17.006  2.7205 -2.2113 -2.9712
19502TIP3   OH279920   2.009   6.211  13.209 -0.3347  0.4532 -0.0218
19502TIP3    H179921   1.965   6.256  13.282  0.9433  1.6937  0.0345
19502TIP3    H279922   2.094   6.184  13.245 -1.2084 -2.5009  0.0705
19503TIP3   OH279923   0.166   3.307   5.212  0.2585 -0.4636  0.3012
19503TIP3    H179924   0.080   3.325   5.173  0.5158 -0.4370 -0.2609
19503TIP3    H279925   0.182   3.215   5.192  0.5209 -0.3731  0.0971
19504TIP3   OH279926   6.055   1.150   1.247  0.2014 -0.4329  0.1225
19504TIP3    H179927   6.016   1.168   1.161 -1.3233  2.5472  1.3222
19504TIP3    H279928   5.995   1.087   1.287 -0.0473 -0.4881 -0.3303
19505TIP3   OH279929   4.618   3.604  13.645  0.0176 -0.1545  0.0829
19505TIP3    H179930   4.663   3.627  13.564  0.2105 -0.7050  0.0252
19505TIP3    H279931   4.529   3.637  13.633  0.6525  1.8937  0.6281
19506TIP3   OH279932   2.966   6.472   3.840 -0.6171  0.0465  0.1794
19506TIP3    H179933   2.971   6.426   3.757  0.0671  0.7938 -0.2159
19506TIP3    H279934   2.897   6.537   3.827 -1.4862 -0.7570  0.6876
19507TIP3   OH279935   0.213   5.180  15.706 -0.3879 -0.1659  0.0430
19507TIP3    H179936   0.181   5.204  15.793 -1.9535 -0.2367 -0.4954
19507TIP3    H279937   0.135   5.163  15.654  0.5240 -3.1218 -0.5689
19508TIP3   OH279938   1.236   2.511  12.716  0.3280  0.1787 -0.4280
19508TIP3    H179939   1.243   2.605  12.699  0.6597  0.0724 -0.8771
19508TIP3    H279940   1.244   2.469  12.630  2.2689 -0.3728 -0.0212
19509TIP3   OH279941   5.892   4.405  16.312 -0.0124 -0.1070  0.5703
19509TIP3    H179942   5.953   4.416  16.239  0.1600 -1.6985  0.4217
19509TIP3    H279943   5.820   4.465  16.293  0.0217 -0.4992 -0.9464
19510TIP3   OH279944   0.720   3.900  16.280 -0.6362 -0.2037  0.2043
19510TIP3    H179945   0.779   3.975  16.285  0.1688 -0.8859  2.6639
19510TIP3    H279946   0.639   3.930  16.322 -0.6780 -0.4104  0.2719
19511TIP3   OH279947   2.811   6.451   5.583  0.0265 -0.5496 -0.4359
19511TIP3    H179948   2.762   6.370   5.566 -1.9210  0.6187 -0.6896
19511TIP3    H279949   2.762   6.519   5.537  0.4556  1.0946  1.3924
19512TIP3   OH279950   3.053   2.512  15.884 -0.0729  0.2852  0.6253
19512TIP3    H179951   3.145   2.486  15.884  0.5893  2.4327  1.3313
19512TIP3    H279952   3.024   2.494  15.974  0.8021  3.1206  1.5583
19513TIP3   OH279953   2.904   5.116   4.366  0.1641  0.2916  0.5438
19513TIP3    H179954   2.874   5.086   4.452  1.8024  0.1076  1.0951
19513TIP3    H279955   2.966   5.049   4.338  0.4748  0.9094 -0.2817
19514TIP3   OH279956   3.634   1.036  13.488  0.5188  0.1105  0.0678
19514TIP3    H179957   3.699   1.030  13.418  0.2164  3.0851 -0.6076
19514TIP3    H279958   3.679   1.082  13.559  0.5945 -2.2201  1.6332
19515TIP3   OH279959   2.865   1.627   3.506  0.1641  0.0238  0.3366
19515TIP3    H179960   2.774   1.643   3.529  1.1609  2.6759  3.0058
19515TIP3    H279961   2.875   1.532   3.510 -2.5344 -0.3522 -0.4596
19516TIP3   OH279962   6.511   0.898  17.027  0.3262 -0.0223 -0.0400
19516TIP3    H179963   6.588   0.842  17.020  0.8496  0.8116 -1.5686
19516TIP3    H279964   6.447   0.858  16.969  0.7105  0.9194 -1.1598
19517TIP3   OH279965   6.578   5.214  11.316  0.1132  0.1411  0.1609
19517TIP3    H179966   6.627   5.221  11.234  0.7999  0.3474  0.5844
19517TIP3    H279967   6.584   5.122  11.340  0.3643  0.1805  0.2533
19518TIP3   OH279968   6.279   4.297   4.992 -0.0963 -0.0967 -0.4514
19518TIP3    H179969   6.223   4.227   5.026  1.6008 -1.2427  0.1294
19518TIP3    H279970   6.365   4.278   5.028  0.1398  3.3075  1.1821
19519TIP3   OH279971   6.565   3.319  11.907 -0.0253  0.2205 -1.1182
19519TIP3    H179972   6.543   3.280  11.822  1.3847  0.7585 -1.7606
19519TIP3    H279973   6.542   3.411  11.897  0.5606  0.3760 -1.0902
19520TIP3   OH279974   2.821   0.622   1.705 -0.5145  0.7686  0.2905
19520TIP3    H179975   2.873   0.543   1.692  1.1942  1.4977  2.0155
19520TIP3    H279976   2.733   0.590   1.725 -0.6977 -0.5312 -2.2360
19521TIP3   OH279977   3.097   2.723  13.015 -0.5411 -0.1925  0.7272
19521TIP3    H179978   3.081   2.805  12.968  3.3691 -0.3416 -1.2068
19521TIP3    H279979   3.031   2.662  12.980 -1.4427  1.2554 -0.1828
19522TIP3   OH279980   1.693   4.411   2.585 -0.0565 -0.2368  0.2294
19522TIP3    H179981   1.598   4.407   2.574 -0.1412 -0.1923  0.8893
19522TIP3    H279982   1.725   4.454   2.506 -0.6399  0.2442  0.2493
19523TIP3   OH279983   6.457   5.275  17.059 -0.9588 -0.0773  0.7116
19523TIP3    H179984   6.374   5.239  17.029 -1.0697  2.4364 -2.5376
19523TIP3    H279985   6.433   5.356  17.104 -0.3415 -0.1105  1.1097
19524TIP3   OH279986   1.443   4.329  15.377  0.3973  0.5772 -0.1507
19524TIP3    H179987   1.536   4.343  15.358  0.3242 -0.1617 -1.1999
19524TIP3    H279988   1.412   4.277  15.303 -0.5447 -0.3481  0.8585
19525TIP3   OH279989   3.550   1.823   1.028  0.3709  0.2685  0.3340
19525TIP3    H179990   3.469   1.805   0.981  1.7218  0.5828 -2.3455
19525TIP3    H279991   3.555   1.919   1.032  0.6241  0.2544  0.4323
19526TIP3   OH279992   2.825   2.683   6.092  0.0622 -0.3640  0.3889
19526TIP3    H179993   2.825   2.741   6.169  1.2947  0.7102 -0.3678
19526TIP3    H279994   2.851   2.598   6.127 -0.4529 -0.1523  1.3269
19527TIP3   OH279995   5.642   1.740  12.390  0.1794 -0.4078  0.5271
19527TIP3    H179996   5.556   1.781  12.401  0.6784  0.5407  0.9713
19527TIP3    H279997   5.697   1.783  12.455  1.3428  0.0040 -0.7052
19528TIP3   OH279998   5.532   6.050  12.495 -0.2035  0.0408 -0.4204
19528TIP3    H179999   5.566   6.034  12.583 -3.2237 -0.1731  0.8485
19528TIP3    H280000   5.520   5.962  12.457  0.5802  0.1136 -0.8546
19529TIP3   OH280001   6.329   2.880  12.556  0.2560 -0.6897  1.0199
19529TIP3    H180002   6.348   2.823  12.481 -0.7162 -4.1949  3.1887
19529TIP3    H280003   6.235   2.895  12.551  0.6379  1.7872 -0.0876
19530TIP3   OH280004   4.583   0.248   3.183  0.3604  0.2941 -0.1423
19530TIP3    H180005   4.522   0.272   3.253  0.2169 -0.4288 -0.0129
19530TIP3    H280006   4.544   0.285   3.104 -0.9077 -1.1645 -0.2575
19531TIP3   OH280007   2.111   0.669  11.062  0.2427 -0.3681 -0.0792
19531TIP3    H180008   2.060   0.636  10.988  0.4372  0.6570 -0.6898
19531TIP3    H280009   2.130   0.591  11.115 -2.1935 -0.7374  0.3358
19532TIP3   OH280010   1.442   2.058   1.224 -0.3070  0.2845  0.2719
19532TIP3    H180011   1.347   2.060   1.235 -0.2229  1.4685  0.9894
19532TIP3    H280012   1.454   2.069   1.129 -0.8882  0.9746  0.2597
19533TIP3   OH280013   2.738   6.374  14.541  0.4311  0.0598  0.5742
19533TIP3    H180014   2.768   6.380  14.451  0.3364 -0.8269  0.4767
19533TIP3    H280015   2.659   6.428  14.544  0.0286 -0.4855 -0.0576
19534TIP3   OH280016   0.825   0.238   1.620  0.1099  0.1442 -0.1697
19534TIP3    H180017   0.870   0.239   1.536  0.4530 -0.8643 -0.0169
19534TIP3    H280018   0.861   0.312   1.668  0.7695  0.0277 -0.4764
19535TIP3   OH280019   0.745   0.813  15.359  0.2947 -0.2286  0.6350
19535TIP3    H180020   0.821   0.870  15.350  0.5579 -0.9456 -3.4753
19535TIP3    H280021   0.780   0.724  15.348 -0.8796 -0.7484  0.8798
19536TIP3   OH280022   0.738   5.998  14.835  0.1856  0.4625 -0.4307
19536TIP3    H180023   0.664   6.030  14.783 -0.7636 -1.2507 -0.1886
19536TIP3    H280024   0.744   6.059  14.908 -0.0811  1.4331 -1.1987
19537TIP3   OH280025   4.618   4.151  15.275  0.3709 -0.1725 -0.3251
19537TIP3    H180026   4.544   4.150  15.337 -0.4988 -0.3379 -1.3394
19537TIP3    H280027   4.589   4.208  15.204  2.0507  1.4390  0.1938
19538TIP3   OH280028   6.356   2.460  12.690 -0.4018  0.4346 -0.0555
19538TIP3    H180029   6.371   2.533  12.630  1.2237 -0.5087 -0.8806
19538TIP3    H280030   6.441   2.415  12.694 -0.8300 -0.2922  1.9559
19539TIP3   OH280031   6.120   3.542  16.592 -0.4886  0.0032  0.2216
19539TIP3    H180032   6.178   3.534  16.667 -0.1972  0.1196  0.0127
19539TIP3    H280033   6.136   3.463  16.541  0.8815  0.8746 -0.7963
19540TIP3   OH280034   1.857   2.418   6.860 -0.3394  0.1964 -0.0022
19540TIP3    H180035   1.884   2.335   6.901  2.7205  2.3181  2.7492
19540TIP3    H280036   1.918   2.428   6.787 -3.8142 -2.0555 -3.6395
19541TIP3   OH280037   2.057   0.691   2.908  0.1960  0.2126  0.8503
19541TIP3    H180038   2.066   0.663   2.817  1.1735  0.9728  0.6949
19541TIP3    H280039   1.964   0.676   2.929 -0.5055  1.7703 -0.8624
19542TIP3   OH280040   4.393   4.484   2.981  0.2723  0.4314 -0.1494
19542TIP3    H180041   4.475   4.490   3.030  1.3174  0.5422 -1.8216
19542TIP3    H280042   4.389   4.393   2.951 -0.3262  0.3706  0.1093
19543TIP3   OH280043   6.182   4.673   5.433  0.3411  0.6934 -0.7531
19543TIP3    H180044   6.237   4.700   5.359  1.0943  2.7399  0.4408
19543TIP3    H280045   6.094   4.703   5.410 -0.4043 -2.5986 -2.6777
19544TIP3   OH280046   2.597   1.918  13.969 -0.5151  0.0171 -0.0339
19544TIP3    H180047   2.569   1.977  14.039  0.1793  1.2881 -0.7819
19544TIP3    H280048   2.652   1.853  14.012 -1.6164 -0.3477  0.8708
19545TIP3   OH280049   3.576   5.200   6.090 -0.1381 -0.0234 -0.2710
19545TIP3    H180050   3.558   5.176   6.181 -0.5450 -2.0445 -0.8258
19545TIP3    H280051   3.665   5.234   6.091 -0.5940  1.2294  1.0606
19546TIP3   OH280052   5.487   5.300   3.057 -0.2076  0.4310  0.1557
19546TIP3    H180053   5.432   5.223   3.070  1.0971 -0.3283  1.3815
19546TIP3    H280054   5.458   5.361   3.126  0.2657  0.1408  0.6209
19547TIP3   OH280055   6.481   5.694   4.553  1.2622 -0.2217 -0.1788
19547TIP3    H180056   6.424   5.765   4.583 -0.0611 -1.6219  0.8047
19547TIP3    H280057   6.540   5.735   4.490 -1.3607  1.1966 -1.8953
19548TIP3   OH280058   2.730   4.486   3.695 -0.4832 -0.6715 -0.4967
19548TIP3    H180059   2.727   4.391   3.701 -2.7275 -0.5510  2.9497
19548TIP3    H280060   2.777   4.514   3.774  0.5803  1.1278 -1.6769
19549TIP3   OH280061   1.555   4.333   4.808  0.1506  0.2168  0.3238
19549TIP3    H180062   1.602   4.298   4.883 -0.7340 -0.9136  0.3779
19549TIP3    H280063   1.612   4.314   4.733 -0.2320 -1.2435  0.3730
19550TIP3   OH280064   5.497   5.522  14.582  0.4937  0.2643 -0.2255
19550TIP3    H180065   5.434   5.572  14.633  0.3707  2.5114 -2.3856
19550TIP3    H280066   5.580   5.567  14.595  0.9171 -0.5087 -0.2193
19551TIP3   OH280067   1.927   1.159  13.719  0.5010 -0.4167  0.3324
19551TIP3    H180068   1.980   1.115  13.651  1.9034  0.8260  0.5795
19551TIP3    H280069   1.897   1.240  13.678 -3.0849 -1.9642 -0.5334
19552TIP3   OH280070   1.285   3.656   4.714 -0.0190 -0.4471 -0.6583
19552TIP3    H180071   1.365   3.610   4.737 -0.6551 -0.9355  0.6838
19552TIP3    H280072   1.307   3.749   4.723  0.5560 -0.5581 -0.8920
19553TIP3   OH280073   4.365   3.598   3.277  0.2178  0.0830  0.2177
19553TIP3    H180074   4.460   3.606   3.272  0.4504 -2.3054 -0.4065
19553TIP3    H280075   4.346   3.512   3.239 -2.1033  0.0393  1.3004
19554TIP3   OH280076   2.049   0.630   6.206 -0.3655 -0.4697  0.0497
19554TIP3    H180077   1.977   0.680   6.169  0.8958  1.3736 -0.0512
19554TIP3    H280078   2.025   0.619   6.298  0.2740  2.3376  0.6497
19555TIP3   OH280079   2.337   2.976   0.656 -0.4534 -0.2407  0.2170
19555TIP3    H180080   2.389   3.056   0.656  0.2425 -0.6805  0.4197
19555TIP3    H280081   2.261   2.996   0.712 -0.8456  0.6168 -0.6026
19556TIP3   OH280082   3.897   6.441   0.206 -0.1354 -0.3836 -0.7527
19556TIP3    H180083   3.858   6.361   0.170  0.1618 -0.5894 -0.6198
19556TIP3    H280084   3.988   6.438   0.177  0.0688 -0.4789 -0.1069
19557TIP3   OH280085   3.563   3.449  11.506 -0.5539 -0.3544  0.4331
19557TIP3    H180086   3.485   3.425  11.456 -0.6693 -0.0582  0.4655
19557TIP3    H280087   3.567   3.544  11.499 -0.2799 -0.3554  0.5600
19558TIP3   OH280088   0.366   3.529  11.711  0.0632 -0.2416  0.1805
19558TIP3    H180089   0.308   3.472  11.761 -2.4977  1.6314 -0.4437
19558TIP3    H280090   0.344   3.512  11.620 -0.4789  1.3686 -0.0346
19559TIP3   OH280091   4.242   2.925   4.507 -0.4520 -0.0312  0.3745
19559TIP3    H180092   4.214   2.875   4.431  1.2910  1.1847 -1.1536
19559TIP3    H280093   4.251   2.860   4.577  1.4540 -1.8959 -1.4374
19560TIP3   OH280094   4.500   0.868  17.488 -0.4666  0.5214 -0.0693
19560TIP3    H180095   4.571   0.813  17.523 -0.2727  1.0746  0.4163
19560TIP3    H280096   4.460   0.814  17.420 -0.6055 -0.4432  0.7476
19561TIP3   OH280097   3.681   1.050   5.506  0.6651  0.4451 -0.0199
19561TIP3    H180098   3.665   1.145   5.502 -2.6560 -0.0041 -0.0792
19561TIP3    H280099   3.677   1.029   5.599  2.4999  0.4382  0.0985
19562TIP3   OH280100   4.573   4.763  14.196 -0.1768 -0.0460  0.3039
19562TIP3    H180101   4.648   4.820  14.212 -0.0777  0.1119 -0.6280
19562TIP3    H280102   4.503   4.797  14.252  0.2666  0.1807  0.7195
19563TIP3   OH280103   1.394   4.436  10.296 -0.0123  0.1134 -0.7582
19563TIP3    H180104   1.301   4.416  10.309  0.0327 -0.3095 -1.0739
19563TIP3    H280105   1.437   4.406  10.376 -0.0221 -0.5590 -1.0013
19564TIP3   OH280106   1.651   6.684  15.064 -0.1484 -0.1900  0.1025
19564TIP3    H180107   1.576   6.653  15.013 -0.6706  2.2339 -0.7498
19564TIP3    H280108   1.613   6.721  15.143  0.3001 -0.3305  0.3872
19565TIP3   OH280109   0.377   5.455  17.442  0.5043 -0.0491  0.1753
19565TIP3    H180110   0.419   5.375  17.472  2.2215  0.9554  0.5972
19565TIP3    H280111   0.396   5.458  17.348  0.5660 -0.0739  0.1878
19566TIP3   OH280112   3.642   0.008  15.986 -0.0029 -0.4474  0.2502
19566TIP3    H180113   3.568  -0.041  16.024 -0.2350  1.0889  1.8768
19566TIP3    H280114   3.690  -0.058  15.936 -0.2083 -2.4226  2.4601
19567TIP3   OH280115   6.430   6.572  14.267  0.4210  0.1808 -0.2912
19567TIP3    H180116   6.476   6.656  14.266  0.5881  0.1045  0.2573
19567TIP3    H280117   6.500   6.506  14.266  0.2965  0.0484 -0.5010
19568TIP3   OH280118   2.203   4.686   2.130  0.4050  0.6795  0.0625
19568TIP3    H180119   2.271   4.654   2.190 -0.9223  0.8670  1.7223
19568TIP3    H280120   2.252   4.721   2.056  2.0401 -1.5867 -0.0289
19569TIP3   OH280121   1.347   4.719  12.291  0.3060  0.3450 -0.4908
19569TIP3    H180122   1.432   4.685  12.261  1.3721  1.7901  0.7042
19569TIP3    H280123   1.345   4.809  12.258 -1.0314  0.1507 -0.9719
19570TIP3   OH280124   2.906   3.552  17.364  0.0649  0.1257  0.2750
19570TIP3    H180125   2.965   3.578  17.435  0.6406  0.2105 -0.2210
19570TIP3    H280126   2.956   3.570  17.284 -1.1146  1.3416 -0.2055
19571TIP3   OH280127   3.968   3.405   0.676  0.2933  0.1328 -1.0728
19571TIP3    H180128   4.030   3.374   0.611  1.1429 -1.2031  0.3213
19571TIP3    H280129   3.893   3.346   0.669 -0.1432  0.7224 -1.6077
19572TIP3   OH280130   1.337   6.213   2.718  0.1883 -0.0983 -0.1965
19572TIP3    H180131   1.415   6.227   2.663 -1.3069  0.6997 -2.2625
19572TIP3    H280132   1.298   6.133   2.684  1.0826 -1.6060  2.1352
19573TIP3   OH280133   0.089   5.806  12.906  0.4206  0.5977 -0.1338
19573TIP3    H180134   0.061   5.766  12.824 -0.7387  0.0745  0.4914
19573TIP3    H280135   0.050   5.751  12.974  1.1144  1.1934  0.7635
19574TIP3   OH280136   1.812   0.615   5.961  0.1725  0.1462  0.5535
19574TIP3    H180137   1.830   0.524   5.936 -1.0848  0.2471 -0.8573
19574TIP3    H280138   1.773   0.608   6.048  2.0138 -0.4582  1.3894
19575TIP3   OH280139   0.772   3.946  11.500 -0.0890 -0.5254  0.1537
19575TIP3    H180140   0.701   3.998  11.463  0.1041  0.2909  0.9145
19575TIP3    H280141   0.748   3.934  11.592  0.0017 -1.5658  0.0580
19576TIP3   OH280142   6.640   5.614   3.479 -0.0773  0.0710 -0.1515
19576TIP3    H180143   6.678   5.622   3.391 -0.2369  1.5442 -0.1223
19576TIP3    H280144   6.596   5.529   3.479 -0.0010  0.0072 -1.4774
19577TIP3   OH280145   4.821   5.083  15.349 -0.3356 -0.7251  0.1196
19577TIP3    H180146   4.832   4.998  15.391 -0.5467 -1.1313 -0.6429
19577TIP3    H280147   4.731   5.084  15.319 -0.9089  0.5171  1.7290
19578TIP3   OH280148   4.514   3.168   0.937  0.3717 -0.5302 -0.3392
19578TIP3    H180149   4.585   3.128   0.886  0.3373 -0.6551 -0.2906
19578TIP3    H280150   4.556   3.193   1.020  1.0407  1.9565 -1.3354
19579TIP3   OH280151   3.790   1.849  14.319  0.5140 -0.0180 -0.2896
19579TIP3    H180152   3.756   1.932  14.351 -1.0258 -1.3117  1.7032
19579TIP3    H280153   3.731   1.824  14.248  0.5089  0.2218 -0.3701
19580TIP3   OH280154   6.552   2.383  14.638 -0.3187 -0.6048 -0.1631
19580TIP3    H180155   6.475   2.369  14.582 -2.1284 -2.0727  2.4562
19580TIP3    H280156   6.578   2.473  14.621 -1.1810 -0.7620 -2.7809
19581TIP3   OH280157   0.683   4.196  12.124  0.4895 -0.1325  0.2093
19581TIP3    H180158   0.708   4.111  12.087  0.3259 -0.8851  1.7293
19581TIP3    H280159   0.759   4.252  12.109  0.6248 -0.5587 -0.7575
19582TIP3   OH280160   6.270   0.480   3.488  0.1777  0.5509 -0.3200
19582TIP3    H180161   6.185   0.435   3.486 -0.0727  1.0224 -0.3357
19582TIP3    H280162   6.249   0.569   3.516  0.6734  0.6573 -0.2918
19583TIP3   OH280163   6.257   2.970  14.398  0.2879 -0.6462  0.6176
19583TIP3    H180164   6.198   3.045  14.404  1.0375 -0.0130  0.2003
19583TIP3    H280165   6.277   2.962  14.305 -2.0442 -3.1803  0.1842
19584TIP3   OH280166   2.401   3.502  17.487  0.9087  0.3033 -0.6809
19584TIP3    H180167   2.493   3.521  17.472  0.5209  2.7336 -0.4401
19584TIP3    H280168   2.363   3.496  17.399  1.6273 -3.0498 -0.8625
19585TIP3   OH280169   6.064   1.874   4.770 -0.6140 -0.2681 -0.1261
19585TIP3    H180170   6.139   1.900   4.716  0.4721 -1.2407  0.8483
19585TIP3    H280171   6.091   1.896   4.859 -1.4724 -0.6850  0.2402
19586TIP3   OH280172   0.619   5.279  10.137 -0.2024  0.0111 -0.0033
19586TIP3    H180173   0.658   5.193  10.125 -0.4785  0.0625 -1.4267
19586TIP3    H280174   0.530   5.262  10.168 -1.4156 -0.4004 -3.3816
19587TIP3   OH280175   6.304   3.569  10.729  0.1873 -0.2100  0.2698
19587TIP3    H180176   6.356   3.502  10.684 -0.5793 -1.3163  0.9553
19587TIP3    H280177   6.364   3.642  10.743  1.1164 -0.8450 -0.3153
19588TIP3   OH280178   6.396   4.172   0.347 -0.3938 -0.5708  0.5090
19588TIP3    H180179   6.381   4.235   0.417 -0.7027  0.1087 -0.1591
19588TIP3    H280180   6.478   4.200   0.307 -0.6877 -0.3978  0.0142
19589TIP3   OH280181   6.366   3.854   2.857  0.3381  0.0383 -0.2526
19589TIP3    H180182   6.444   3.904   2.882  1.0935 -1.0549 -0.3122
19589TIP3    H280183   6.368   3.854   2.761 -0.2249  0.7271 -0.2698
19590TIP3   OH280184   1.434   0.567  11.681  0.2677  0.1894 -0.0901
19590TIP3    H180185   1.495   0.538  11.748 -0.8430 -0.2967  0.7480
19590TIP3    H280186   1.459   0.519  11.602  0.4185 -0.6607  0.4656
19591TIP3   OH280187   1.079   6.536  15.273 -0.1428 -0.3070 -0.0867
19591TIP3    H180188   1.094   6.631  15.267  0.7067 -0.5021 -1.4970
19591TIP3    H280189   1.059   6.521  15.365  1.3896  1.0116  0.5104
19592TIP3   OH280190   3.130   3.067   4.415 -0.4952  0.3100  0.3140
19592TIP3    H180191   3.193   3.062   4.343  1.1666  0.4037  1.6854
19592TIP3    H280192   3.130   3.160   4.440 -0.8550  0.2377  0.5860
19593TIP3   OH280193   3.881   2.040  11.428  0.4301  0.2766  0.1743
19593TIP3    H180194   3.881   1.969  11.492  0.0507 -2.3787 -2.5257
19593TIP3    H280195   3.789   2.050  11.404  0.3129  2.6191  1.3183
19594TIP3   OH280196   5.572   5.533   2.694 -0.3725  0.2514  0.2747
19594TIP3    H180197   5.486   5.566   2.720 -0.4453 -0.5354  1.0714
19594TIP3    H280198   5.607   5.601   2.637 -0.8078  1.3941  1.3178
19595TIP3   OH280199   2.248   0.763   2.328 -0.1758  0.3605 -0.2731
19595TIP3    H180200   2.210   0.814   2.400  0.2348  1.4406 -0.7993
19595TIP3    H280201   2.196   0.787   2.251 -1.2572 -1.5388 -0.1927
19596TIP3   OH280202   5.660   5.344   5.509 -0.1336 -0.1026 -0.4702
19596TIP3    H180203   5.687   5.253   5.501  3.8248  0.9210 -0.9918
19596TIP3    H280204   5.644   5.357   5.602  1.8075 -0.7880 -0.0005
19597TIP3   OH280205   2.415   6.416   0.271  0.7703  0.0080 -0.1386
19597TIP3    H180206   2.419   6.505   0.308 -0.1569  0.2562 -0.6046
19597TIP3    H280207   2.373   6.428   0.186  1.3152 -0.7902 -0.5291
19598TIP3   OH280208   1.978   6.489  12.167  0.4431  0.0785 -0.2671
19598TIP3    H180209   2.023   6.568  12.138  0.5320  0.3092  0.4900
19598TIP3    H280210   1.933   6.457  12.089 -1.1392  1.9007 -0.1456
19599TIP3   OH280211   6.541   4.550   6.675  0.1358  0.1447  0.3381
19599TIP3    H180212   6.496   4.512   6.600 -0.0884 -1.5471  1.2946
19599TIP3    H280213   6.560   4.476   6.733  0.1408  1.4103  2.0483
19600TIP3   OH280214   4.960   1.928   0.989  0.0159  0.0650 -0.6056
19600TIP3    H180215   5.045   1.884   0.987 -1.6847 -3.7590  1.2888
19600TIP3    H280216   4.907   1.879   0.927 -1.7018  0.1612  0.7287
19601TIP3   OH280217   5.375   3.545   4.335  0.0028  0.0016  0.2947
19601TIP3    H180218   5.401   3.622   4.387  1.2190 -1.0788  1.3713
19601TIP3    H280219   5.285   3.528   4.362 -0.1470  0.8067  0.3451
19602TIP3   OH280220   1.859   3.932   2.363 -0.3540  0.4123 -0.2225
19602TIP3    H180221   1.809   3.940   2.444  0.2430  0.1325  0.1886
19602TIP3    H280222   1.795   3.910   2.296 -0.7315 -0.3080  0.3626
19603TIP3   OH280223   1.760   4.533   4.628 -0.0189 -0.3079  0.7143
19603TIP3    H180224   1.851   4.549   4.654  0.6476 -1.6509 -0.5974
19603TIP3    H280225   1.746   4.441   4.650 -0.3645 -0.6815 -0.9171
19604TIP3   OH280226   3.023   3.095   6.440 -0.6027  0.1144 -0.4738
19604TIP3    H180227   3.038   3.084   6.534  0.7988 -0.8486 -0.7727
19604TIP3    H280228   3.069   3.175   6.417  1.5472 -1.1181 -0.7897
19605TIP3   OH280229   1.148   0.330   4.503  0.7795 -0.3192  0.0575
19605TIP3    H180230   1.163   0.250   4.451 -1.9624 -1.6729  1.1451
19605TIP3    H280231   1.221   0.332   4.565  1.2101 -1.6846 -0.3617
19606TIP3   OH280232   1.582   1.191   3.739 -0.4729 -0.6134  0.3403
19606TIP3    H180233   1.508   1.223   3.688 -0.5474 -0.3402  0.6123
19606TIP3    H280234   1.659   1.216   3.688 -0.6028 -2.3160 -0.7446
19607TIP3   OH280235   0.669   4.410  13.939 -0.1646 -0.1592 -0.2523
19607TIP3    H180236   0.603   4.355  13.898  1.2793 -1.6301 -0.7276
19607TIP3    H280237   0.728   4.348  13.983  0.5961  1.1235  0.6114
19608TIP3   OH280238   4.154   3.009   2.981  0.0713  0.3038  0.2619
19608TIP3    H180239   4.060   3.022   2.969  0.3421  1.0412 -1.3239
19608TIP3    H280240   4.161   2.937   3.044 -1.5491  0.3149  0.4818
19609TIP3   OH280241   0.837   0.518  11.909 -0.0681  0.4310  0.8337
19609TIP3    H180242   0.787   0.599  11.904  3.1234  2.6485  1.7303
19609TIP3    H280243   0.869   0.504  11.820  0.0840  0.6518  0.8531
19610TIP3   OH280244   2.315   5.180  10.361  0.0032  0.0292  0.2143
19610TIP3    H180245   2.251   5.183  10.432 -0.5036  0.5141 -0.2547
19610TIP3    H280246   2.360   5.264  10.366  0.3895 -0.1817  0.3385
19611TIP3   OH280247   3.642   4.353   2.187 -0.3567 -0.5922 -0.1340
19611TIP3    H180248   3.556   4.341   2.149  0.3057  1.1760 -2.4053
19611TIP3    H280249   3.674   4.435   2.149  1.1898  0.3388  2.8554
19612TIP3   OH280250   2.786   4.094   4.133 -0.1597  0.3910 -0.1007
19612TIP3    H180251   2.776   4.084   4.228 -0.3311 -0.3241 -0.1903
19612TIP3    H280252   2.696   4.096   4.099 -0.1018  0.7529 -0.2401
19613TIP3   OH280253   5.789   3.153   5.439  0.4062 -0.2708 -0.9390
19613TIP3    H180254   5.743   3.070   5.450  0.6353 -0.4519 -1.3417
19613TIP3    H280255   5.797   3.164   5.344 -0.7071  0.8094 -0.9432
19614TIP3   OH280256   5.503   2.229  15.749 -0.2856  0.4172  0.0479
19614TIP3    H180257   5.530   2.199  15.836  0.6852  1.7990  0.2564
19614TIP3    H280258   5.407   2.236  15.754 -0.4397 -1.5414  0.3086
19615TIP3   OH280259   4.056   0.867   5.258 -0.5583  0.6947 -0.1991
19615TIP3    H180260   4.136   0.825   5.225  0.0905 -0.5199  2.6393
19615TIP3    H280261   4.083   0.955   5.283 -0.2024  0.4319  0.3502
19616TIP3   OH280262   1.180   1.746   2.927  0.3004  0.1855  0.2609
19616TIP3    H180263   1.108   1.730   2.866  0.4757 -1.1459  0.3877
19616TIP3    H280264   1.137   1.772   3.009  0.0465  1.3191 -0.2024
19617TIP3   OH280265   5.999   5.158   1.240 -0.3102  0.7119 -0.2598
19617TIP3    H180266   6.085   5.118   1.252 -0.9736 -0.3232  1.6408
19617TIP3    H280267   6.005   5.242   1.286  0.1395  1.3867 -1.5194
19618TIP3   OH280268   5.309   0.222  17.076  0.2681 -0.1571  0.1197
19618TIP3    H180269   5.344   0.133  17.068 -0.1799 -0.4534  1.3196
19618TIP3    H280270   5.377   0.277  17.036  1.3357 -0.8811  0.8689
19619TIP3   OH280271   6.089   3.745  16.066 -0.1796  0.3917  0.0577
19619TIP3    H180272   6.021   3.678  16.070  0.5980 -0.4250 -0.1092
19619TIP3    H280273   6.044   3.826  16.090 -1.5611  0.1529 -1.5065
19620TIP3   OH280274   2.793   3.991   4.596 -0.5831  1.2417 -0.0777
19620TIP3    H180275   2.800   4.048   4.672 -0.2313  1.4479 -0.2592
19620TIP3    H280276   2.738   3.918   4.625 -0.0420  1.0600  0.5330
19621TIP3   OH280277   0.464   4.076   5.759 -0.0061 -0.8652 -0.0192
19621TIP3    H180278   0.486   4.121   5.840  0.1040 -1.4853  0.2984
19621TIP3    H280279   0.543   4.083   5.705  0.3810 -1.5607  0.4336
19622TIP3   OH280280   1.035   6.364   1.621 -0.5848  0.8836 -0.0079
19622TIP3    H180281   0.958   6.345   1.674  0.3192 -0.1655  1.0031
19622TIP3    H280282   1.090   6.420   1.676  0.3180 -0.1304  0.1707
19623TIP3   OH280283   5.059   5.829  14.452 -0.1716  0.3096 -0.0335
19623TIP3    H180284   5.089   5.746  14.489 -1.2893 -0.1959 -0.2395
19623TIP3    H280285   5.100   5.895  14.508 -0.3600 -0.4014  0.9869
19624TIP3   OH280286   0.399   0.331  12.334 -0.1706  0.2752  0.1388
19624TIP3    H180287   0.357   0.294  12.257  1.2366 -0.8946 -0.1230
19624TIP3    H280288   0.454   0.402  12.300  2.3898 -1.7953 -0.4120
19625TIP3   OH280289   0.111   0.670  10.408  0.2133  0.3573 -0.6760
19625TIP3    H180290   0.061   0.649  10.329 -2.7173 -2.0383  1.5564
19625TIP3    H280291   0.059   0.738  10.452  1.3007  0.9866 -0.3219
19626TIP3   OH280292   4.384   1.136   0.400  0.1228  0.1241 -0.5531
19626TIP3    H180293   4.299   1.092   0.396  0.2365 -0.0876 -0.7178
19626TIP3    H280294   4.446   1.071   0.366  0.7006 -0.5724  1.6513
19627TIP3   OH280295   1.746   6.712  11.168  0.2930  0.0081 -0.4446
19627TIP3    H180296   1.764   6.685  11.258  1.5485 -1.1329 -1.0062
19627TIP3    H280297   1.684   6.646  11.136  0.8425 -0.3452 -0.8009
19628TIP3   OH280298   0.563   0.653  11.399 -0.1055 -0.0752 -0.3902
19628TIP3    H180299   0.548   0.621  11.488 -0.6549 -0.5307 -0.6371
19628TIP3    H280300   0.485   0.626  11.350 -0.7677  1.9367 -0.5502
19629TIP3   OH280301   0.378   0.060   1.611 -0.0595 -0.3445  0.1562
19629TIP3    H180302   0.369  -0.022   1.661  0.1675 -0.3404  0.2054
19629TIP3    H280303   0.440   0.112   1.662  2.0035 -1.2470 -1.2662
19630TIP3   OH280304   0.350   1.527   3.276  0.2169 -0.0697  0.5622
19630TIP3    H180305   0.369   1.592   3.344 -2.6929 -1.0299  2.4870
19630TIP3    H280306   0.335   1.446   3.324 -1.2199 -0.9752 -1.2815
19631TIP3   OH280307   0.380   3.501   2.208 -0.0030 -0.3723 -0.4426
19631TIP3    H180308   0.411   3.452   2.284  2.8772  2.2921  0.2989
19631TIP3    H280309   0.429   3.464   2.134  1.7285  0.8747  0.0238
19632TIP3   OH280310   4.444   2.716  15.920 -0.1395 -0.5236  0.2480
19632TIP3    H180311   4.363   2.689  15.877 -0.3109  0.7217 -0.2566
19632TIP3    H280312   4.433   2.689  16.011 -0.2926 -2.0866 -0.2028
19633TIP3   OH280313   5.935   4.333  14.345 -0.2110  0.1241 -0.1417
19633TIP3    H180314   5.940   4.429  14.350 -0.9671  0.1520  0.2685
19633TIP3    H280315   5.981   4.311  14.264  0.0180  0.8301 -0.2140
19634TIP3   OH280316   5.247   2.926   0.612  0.3272 -0.3199 -0.6978
19634TIP3    H180317   5.312   2.866   0.649 -1.1033 -0.6763  1.4394
19634TIP3    H280318   5.296   3.007   0.596  1.4606 -0.8075  0.1442
19635TIP3   OH280319   4.958   0.847  15.194  0.0900  0.1849  0.6153
19635TIP3    H180320   4.923   0.904  15.262  1.4676  0.8431  0.7967
19635TIP3    H280321   4.957   0.901  15.115 -2.1990 -0.8056 -0.1234
19636TIP3   OH280322   3.205   3.943  13.743 -0.3099 -0.1072  0.0050
19636TIP3    H180323   3.125   3.942  13.796  0.1169  0.4797  0.6786
19636TIP3    H280324   3.272   3.906  13.801  0.4551  1.7559  0.3868
19637TIP3   OH280325   3.264   4.244   4.999 -0.1398 -0.1922  0.5452
19637TIP3    H180326   3.252   4.243   5.094 -0.7157 -0.2298  0.4763
19637TIP3    H280327   3.193   4.299   4.966 -1.6058 -2.2953 -0.0634
19638TIP3   OH280328   1.360   4.970   0.527  0.4934  0.4488  0.0661
19638TIP3    H180329   1.296   5.003   0.465 -0.1069 -2.3220 -0.9336
19638TIP3    H280330   1.438   4.952   0.475  0.9267  0.6210  0.6379
19639TIP3   OH280331   0.333   3.321   0.563 -1.0234  0.1695 -0.3434
19639TIP3    H180332   0.251   3.371   0.562  0.3139  2.5792  0.6614
19639TIP3    H280333   0.325   3.262   0.637 -1.5967  0.8480  0.1435
19640TIP3   OH280334   3.323   0.557   3.740 -0.2609 -0.4763 -0.2188
19640TIP3    H180335   3.363   0.480   3.701  0.8140 -0.5693  0.9893
19640TIP3    H280336   3.240   0.568   3.693 -0.7114 -2.6961 -0.0544
19641TIP3   OH280337   2.711   5.862   0.236 -0.2580  0.1561 -1.0242
19641TIP3    H180338   2.754   5.904   0.161 -1.8595  0.8562 -1.5991
19641TIP3    H280339   2.663   5.789   0.198  1.0174 -1.1167 -0.2725
19642TIP3   OH280340   3.682   0.300   3.375  0.7442  0.1960 -0.0471
19642TIP3    H180341   3.600   0.252   3.388  0.6365  0.6629  1.0769
19642TIP3    H280342   3.664   0.358   3.301  0.2268 -0.0580 -0.1258
19643TIP3   OH280343   5.456   0.930  14.729  0.0747 -0.2060  0.1208
19643TIP3    H180344   5.372   0.925  14.683  0.7763  1.9588 -1.5898
19643TIP3    H280345   5.453   1.013  14.776  0.1471 -1.4992  2.5982
19644TIP3   OH280346   4.583   6.441  13.315 -0.0000 -0.0680 -0.8234
19644TIP3    H180347   4.543   6.521  13.349 -0.7689 -0.3915 -0.9539
19644TIP3    H280348   4.510   6.380  13.304  0.9480 -2.2699  3.1655
19645TIP3   OH280349   5.929   1.654   5.129 -0.2893  0.4548  0.0032
19645TIP3    H180350   6.000   1.648   5.065 -0.9132 -0.0667 -0.6557
19645TIP3    H280351   5.969   1.697   5.205  0.6282  0.5103 -0.4949
19646TIP3   OH280352   5.122   6.373   4.866 -0.0628 -0.2140 -0.0747
19646TIP3    H180353   5.188   6.304   4.863 -0.3232 -0.6231  2.1532
19646TIP3    H280354   5.172   6.455   4.867  0.3915 -0.4955  0.7996
19647TIP3   OH280355   5.336   1.556   5.687 -0.0730  0.1075 -0.7695
19647TIP3    H180356   5.395   1.583   5.616  0.9645 -1.3973 -0.5313
19647TIP3    H280357   5.334   1.631   5.746  0.2635  0.8135 -1.6240
19648TIP3   OH280358   0.823   0.938  17.504 -0.0326 -0.0732 -0.5129
19648TIP3    H180359   0.739   0.891  17.510 -0.5538  0.8636 -0.2881
19648TIP3    H280360   0.799   1.029  17.486  1.0329 -0.1773 -2.7188
19649TIP3   OH280361   1.575   2.421   3.740  0.3869  0.5210 -0.2327
19649TIP3    H180362   1.547   2.508   3.767  0.6704  0.9650 -1.3076
19649TIP3    H280363   1.634   2.392   3.809 -1.4786  0.1977  1.3014
19650TIP3   OH280364   2.720   4.174  15.187  0.0234  0.9435 -0.3622
19650TIP3    H180365   2.790   4.171  15.121 -0.1194  2.5149 -0.6179
19650TIP3    H280366   2.645   4.213  15.141 -0.7126  0.2420  0.2002
19651TIP3   OH280367   0.828   2.562  14.119 -0.1040 -0.8429 -0.3202
19651TIP3    H180368   0.895   2.494  14.126  0.6932 -0.0362  0.0366
19651TIP3    H280369   0.791   2.570  14.207 -0.0348 -0.6573 -0.3068
19652TIP3   OH280370   5.355   4.218   5.383  0.1186 -0.3249 -0.0828
19652TIP3    H180371   5.339   4.229   5.477  1.1775 -1.3856  0.2505
19652TIP3    H280372   5.449   4.232   5.373 -0.3497  2.9482 -1.5242
19653TIP3   OH280373   3.183   4.783   4.839 -0.2931  0.1877  0.1647
19653TIP3    H180374   3.116   4.776   4.771 -0.9175  1.1358  0.6614
19653TIP3    H280375   3.135   4.774   4.922  0.5045 -1.3138  0.5096
19654TIP3   OH280376   2.737   0.754   4.718  0.2707  0.4829  0.0467
19654TIP3    H180377   2.705   0.673   4.757 -0.8542  1.3550  1.0167
19654TIP3    H280378   2.692   0.823   4.766 -1.1928  1.6625 -2.7693
19655TIP3   OH280379   2.786   4.182  13.158  0.4554 -0.2978  0.0383
19655TIP3    H180380   2.715   4.202  13.219  0.4296 -1.9456  0.5886
19655TIP3    H280381   2.805   4.265  13.115  0.0197  0.7675  1.8103
19656TIP3   OH280382   3.117   3.699  11.346 -0.0301 -0.5417 -0.3516
19656TIP3    H180383   3.208   3.673  11.336 -0.3704 -2.0621  0.2620
19656TIP3    H280384   3.116   3.792  11.325  1.7369 -0.4022  0.0711
19657TIP3   OH280385   3.100   4.262  14.790 -0.4932  0.4719 -0.0791
19657TIP3    H180386   3.169   4.201  14.814 -1.3401 -0.0158  1.2639
19657TIP3    H280387   3.142   4.348  14.794  0.1132  0.1607  0.4628
19658TIP3   OH280388   2.077   0.339  15.019  0.4964  0.3891  0.6713
19658TIP3    H180389   2.156   0.394  15.015 -0.8585  2.3688 -2.6758
19658TIP3    H280390   2.068   0.303  14.931 -3.0045  1.3560  0.4829
19659TIP3   OH280391   3.207   3.206   5.293 -0.8863  0.3154  0.0234
19659TIP3    H180392   3.121   3.167   5.310  0.0505 -0.7468  2.9028
19659TIP3    H280393   3.228   3.252   5.374  2.2847 -1.5958  0.4553
19660TIP3   OH280394   4.484   4.889   0.841  0.0458  0.7224  0.2216
19660TIP3    H180395   4.485   4.983   0.855  1.5121  0.7568  0.0935
19660TIP3    H280396   4.506   4.852   0.927 -0.4905  0.4966  0.2637
19661TIP3   OH280397   6.383   0.641  15.134 -0.4024  0.4413 -0.0496
19661TIP3    H180398   6.296   0.632  15.173 -0.1111  0.2145  0.5681
19661TIP3    H280399   6.397   0.560  15.085  0.0117 -0.1456  1.0017
19662TIP3   OH280400   5.660   0.737   1.425  0.0488 -0.2263 -0.5309
19662TIP3    H180401   5.600   0.783   1.366 -1.6005 -1.5436  0.0440
19662TIP3    H280402   5.737   0.794   1.430 -2.4106  3.3643  1.3585
19663TIP3   OH280403   4.627   5.411  13.118  1.3129 -0.1386  0.1399
19663TIP3    H180404   4.673   5.437  13.038  1.8508 -0.1226  0.4483
19663TIP3    H280405   4.535   5.406  13.092  1.2250  1.6723 -0.0223
19664TIP3   OH280406   2.318   4.385  15.605 -0.2307  0.5525 -0.2200
19664TIP3    H180407   2.351   4.334  15.531  0.7292  0.8461 -0.0087
19664TIP3    H280408   2.388   4.381  15.671 -1.9822 -1.6482  1.6455
19665TIP3   OH280409   3.764   1.586  14.407 -0.1885  0.3649  0.3457
19665TIP3    H180410   3.759   1.590  14.502  0.8070 -0.1588  0.4332
19665TIP3    H280411   3.768   1.678  14.379  0.1584  0.5058  0.8497
19666TIP3   OH280412   6.176   5.175   5.073  0.0761 -0.2818 -0.0370
19666TIP3    H180413   6.095   5.227   5.076 -1.0853 -2.0323  1.2792
19666TIP3    H280414   6.183   5.148   4.982  0.5155  1.7896 -0.6857
19667TIP3   OH280415   3.571   4.149   6.322 -0.5428  0.2951 -0.6523
19667TIP3    H180416   3.613   4.208   6.259 -2.0385  2.7339  0.5173
19667TIP3    H280417   3.478   4.152   6.299 -1.1385  1.2840  1.6170
19668TIP3   OH280418   2.048   4.062   0.998 -0.5007  0.2009  0.4524
19668TIP3    H180419   1.964   4.019   0.982 -0.5624  0.1556  0.8928
19668TIP3    H280420   2.113   4.002   0.960 -0.6654  0.2676  0.0524
19669TIP3   OH280421   6.351   4.924   3.066 -0.6836 -0.1369  0.0517
19669TIP3    H180422   6.328   4.994   3.127  1.8074  0.0914  0.8382
19669TIP3    H280423   6.383   4.969   2.988 -0.1035 -0.4148  0.1302
19670TIP3   OH280424   1.129   5.635   4.688 -0.0178 -0.8659  0.0194
19670TIP3    H180425   1.121   5.729   4.669 -1.6374 -1.1337 -0.7569
19670TIP3    H280426   1.180   5.632   4.769 -1.9454  0.8676  1.4382
19671TIP3   OH280427   4.886   6.571  12.872 -0.1255 -0.4631  0.4656
19671TIP3    H180428   4.905   6.509  12.942 -0.3140 -0.6357  0.3621
19671TIP3    H280429   4.792   6.589  12.880  0.0456  0.3140  0.9153
19672TIP3   OH280430   0.342   3.028   1.825 -0.0443 -0.0600  0.0809
19672TIP3    H180431   0.403   3.017   1.752 -0.7277  1.5411 -0.7795
19672TIP3    H280432   0.378   3.100   1.876  0.6056 -1.3804  1.5627
19673TIP3   OH280433   4.855   2.152   1.389  0.0927  0.3598 -0.1325
19673TIP3    H180434   4.770   2.172   1.427 -0.3977 -1.5339 -0.1291
19673TIP3    H280435   4.846   2.063   1.356  1.5921  0.6873 -1.5603
19674TIP3   OH280436   2.591   3.753   2.839  0.1386  0.0581  0.6973
19674TIP3    H180437   2.574   3.775   2.748 -1.5136 -1.2741  0.6235
19674TIP3    H280438   2.541   3.819   2.889  0.2247  0.1821  0.6198
19675TIP3   OH280439   0.732   6.419  10.701  0.1997  0.2696  1.1355
19675TIP3    H180440   0.733   6.506  10.743 -1.6457  0.9835 -0.1652
19675TIP3    H280441   0.694   6.361  10.767 -0.1041  0.8064  1.4390
19676TIP3   OH280442   0.906   3.250   6.652 -0.1234 -0.1520 -0.3902
19676TIP3    H180443   0.852   3.172   6.664  0.6516 -0.6919 -0.3241
19676TIP3    H280444   0.915   3.259   6.557  0.7781 -0.8500 -0.3773
19677TIP3   OH280445   1.448   2.345  16.557 -0.5660  0.1859 -0.4003
19677TIP3    H180446   1.449   2.385  16.644 -1.8329  3.1946 -1.6583
19677TIP3    H280447   1.393   2.267  16.568  0.6443 -0.4660  1.7832
19678TIP3   OH280448   1.316   3.929   1.587  0.3997 -0.3110 -0.0497
19678TIP3    H180449   1.249   3.959   1.526 -0.2153 -0.3979  0.5724
19678TIP3    H280450   1.382   3.999   1.587 -0.3621  0.4178  0.3751
19679TIP3   OH280451   3.050   6.228  11.443 -0.6679  0.3635  0.5934
19679TIP3    H180452   3.025   6.136  11.436  3.1113 -0.9089  1.4736
19679TIP3    H280453   3.016   6.269  11.363 -0.2197 -2.4286 -1.1566
19680TIP3   OH280454   2.811   1.006   2.931 -0.3873  0.0997  0.7541
19680TIP3    H180455   2.717   1.005   2.948 -0.7094  2.4591 -0.4786
19680TIP3    H280456   2.844   1.082   2.979  0.6476  0.0821  0.1130
19681TIP3   OH280457   6.115   2.727   2.759  0.0490  0.3160  0.2452
19681TIP3    H180458   6.077   2.658   2.814  0.5792  0.6892  1.1069
19681TIP3    H280459   6.117   2.690   2.671 -2.0433  0.1936  0.2148
19682TIP3   OH280460   4.200   1.257   1.011 -0.0947 -0.1795 -0.0983
19682TIP3    H180461   4.162   1.337   1.047  0.0609  0.5039 -1.3790
19682TIP3    H280462   4.287   1.250   1.051  0.3291  0.9060 -0.7992
19683TIP3   OH280463   4.776   4.253   4.118 -0.1253  0.2754 -0.4150
19683TIP3    H180464   4.750   4.162   4.104 -0.1994  0.1642  0.3655
19683TIP3    H280465   4.793   4.258   4.212  0.2891  0.9649 -0.5230
19684TIP3   OH280466   4.946   4.815  13.348  0.2912 -0.3101 -0.2314
19684TIP3    H180467   5.037   4.804  13.321  0.7205  0.6030  0.8044
19684TIP3    H280468   4.937   4.908  13.365 -0.8330 -0.3973 -0.2519
19685TIP3   OH280469   6.336   5.107  11.502 -0.5140 -0.7072 -0.1076
19685TIP3    H180470   6.281   5.164  11.447 -2.0205 -1.7194  0.2891
19685TIP3    H280471   6.379   5.048  11.441  0.9687  0.7226 -0.5150
19686TIP3   OH280472   4.682   0.741  11.045  0.1103 -0.0959  0.7666
19686TIP3    H180473   4.702   0.662  11.095  1.2587 -1.2600 -1.3600
19686TIP3    H280474   4.666   0.709  10.956  2.2369  2.1526 -0.5577
19687TIP3   OH280475   5.811   1.786   0.749 -0.9408  0.0070 -0.3602
19687TIP3    H180476   5.720   1.817   0.744 -1.1496 -0.7475 -2.2216
19687TIP3    H280477   5.863   1.866   0.753 -1.5965  0.5511 -1.9175
19688TIP3   OH280478   1.660   1.271   0.590 -0.1460  0.1522  0.1805
19688TIP3    H180479   1.574   1.281   0.631 -0.7317  1.9499 -1.3667
19688TIP3    H280480   1.672   1.176   0.583 -1.4396 -0.1467  1.5193
19689TIP3   OH280481   2.326   2.676   2.344 -0.0217 -0.6732 -0.2010
19689TIP3    H180482   2.307   2.682   2.250  1.5081 -1.1714 -0.5717
19689TIP3    H280483   2.282   2.596   2.372 -2.7086  0.7988  0.1449
19690TIP3   OH280484   3.867   6.037  11.834 -0.1200 -0.4514  0.2067
19690TIP3    H180485   3.947   6.079  11.801  0.6669  0.6636  3.2341
19690TIP3    H280486   3.881   5.944  11.818  0.8010 -0.0974 -1.2688
19691TIP3   OH280487   3.055   6.514  14.274 -0.2654 -0.1328 -0.0762
19691TIP3    H180488   2.994   6.441  14.280  0.6951 -1.5366 -4.0649
19691TIP3    H280489   3.001   6.588  14.249 -0.8040 -0.3763  0.3390
19692TIP3   OH280490   5.493   0.824  14.145  0.2444 -0.2434  0.0418
19692TIP3    H180491   5.402   0.851  14.140  0.3091  0.5980  2.3260
19692TIP3    H280492   5.514   0.827  14.238  2.4181 -1.0914 -0.3592
19693TIP3   OH280493   1.476   5.778   0.469 -0.3884 -0.0128 -0.2448
19693TIP3    H180494   1.544   5.825   0.421  0.2134 -0.3098  0.2990
19693TIP3    H280495   1.401   5.776   0.409  0.4266 -0.6163 -1.2801
19694TIP3   OH280496   5.520   5.814  15.223 -0.1410 -0.2919  0.3591
19694TIP3    H180497   5.506   5.778  15.135  0.3054 -2.3831  1.0829
19694TIP3    H280498   5.590   5.760  15.260  0.8833  1.6731  1.4010
19695TIP3   OH280499   3.122   4.568   2.622  0.1802  0.0431  0.0522
19695TIP3    H180500   3.215   4.550   2.638  0.1307 -0.3511 -0.0713
19695TIP3    H280501   3.120   4.656   2.585  0.4969  0.0835  0.1252
19696TIP3   OH280502   5.938   6.419  12.699  0.3853 -0.8284 -0.1473
19696TIP3    H180503   5.845   6.434  12.681  0.6428 -0.0071 -0.8533
19696TIP3    H280504   5.984   6.486  12.648  1.3602 -1.0985  0.3459
19697TIP3   OH280505   4.282   2.774  17.285 -0.1051  0.6030 -0.3770
19697TIP3    H180506   4.335   2.853  17.292  2.6422 -1.1196 -0.3008
19697TIP3    H280507   4.267   2.747  17.376  0.6499  0.0333 -0.4080
19698TIP3   OH280508   0.142   1.460  11.134  0.9015  0.3812 -0.3786
19698TIP3    H180509   0.220   1.456  11.191  0.4130 -1.1553  0.2180
19698TIP3    H280510   0.133   1.371  11.100 -0.5071  0.5836 -0.5671
19699TIP3   OH280511   5.378   0.434  12.663 -0.0862 -0.4418  0.4107
19699TIP3    H180512   5.375   0.517  12.616  1.0818 -0.2987  0.5615
19699TIP3    H280513   5.372   0.458  12.756 -1.5243 -0.6653  0.3987
19700TIP3   OH280514   2.717   1.477  14.322 -0.2219  0.3777  0.0822
19700TIP3    H180515   2.644   1.488  14.382  0.6014  1.7235  0.8757
19700TIP3    H280516   2.679   1.492  14.235 -1.1328 -0.2372  0.3577
19701TIP3   OH280517   2.444   2.038  17.066 -0.3148 -0.2311  0.4260
19701TIP3    H180518   2.400   2.062  16.984  2.4999 -1.0170 -1.4551
19701TIP3    H280519   2.432   1.943  17.072  1.2470 -0.5068 -0.2789
19702TIP3   OH280520   4.225   4.366  15.792 -0.0829 -0.0613 -0.3086
19702TIP3    H180521   4.317   4.388  15.800 -0.0598 -0.4863  0.8777
19702TIP3    H280522   4.195   4.414  15.715  0.6223  1.8474  0.5177
19703TIP3   OH280523   4.718   6.417  13.857  0.0428  0.0329 -0.1035
19703TIP3    H180524   4.719   6.380  13.945  2.8156  3.7312  1.6998
19703TIP3    H280525   4.765   6.354  13.803  1.2336 -0.8095  1.8489
19704TIP3   OH280526   4.874   0.257   1.981  0.2065 -0.3960  0.4037
19704TIP3    H180527   4.855   0.267   1.888 -2.9378  2.4764  1.1478
19704TIP3    H280528   4.954   0.308   1.995  1.1342 -1.4707 -0.7634
19705TIP3   OH280529   3.722   4.073   0.859 -0.3232  0.2072  0.1660
19705TIP3    H180530   3.811   4.072   0.824  0.0985  2.7056  0.9210
19705TIP3    H280531   3.713   3.990   0.906  1.6614 -0.0442  0.1894
19706TIP3   OH280532   3.679   3.670   3.864 -0.0085 -0.5857  0.2020
19706TIP3    H180533   3.601   3.650   3.916 -0.5734 -0.2621 -0.5044
19706TIP3    H280534   3.665   3.760   3.834  0.3480 -0.7481 -0.4504
19707TIP3   OH280535   5.982   4.119   2.669  0.0535 -0.1445  0.4925
19707TIP3    H180536   5.897   4.089   2.700 -0.5797  0.9270 -0.1014
19707TIP3    H280537   5.974   4.118   2.573 -0.2084  2.2544  0.4096
19708TIP3   OH280538   2.874   0.272  13.536 -0.0278 -0.0497  0.3315
19708TIP3    H180539   2.892   0.180  13.515 -0.6913 -0.1323  0.1098
19708TIP3    H280540   2.788   0.289  13.498 -0.3172  0.4009  1.1520
19709TIP3   OH280541   6.361   4.741   5.244 -0.7764  0.0876 -0.3052
19709TIP3    H180542   6.291   4.807   5.242  1.2549  2.4374 -3.3108
19709TIP3    H280543   6.435   4.788   5.283  0.4224 -0.7521 -1.5258
19710TIP3   OH280544   2.742   0.440  12.624 -0.1291 -0.1151 -0.4535
19710TIP3    H180545   2.653   0.459  12.596 -0.5475 -0.1641  0.7888
19710TIP3    H280546   2.777   0.383  12.556 -1.0974 -0.2293 -0.8711
19711TIP3   OH280547   1.712   3.613   0.079  0.0415  0.2172 -0.1340
19711TIP3    H180548   1.693   3.689   0.023  0.8445  0.4277 -0.1357
19711TIP3    H280549   1.792   3.575   0.041 -0.7794 -1.1193 -0.6240
19712TIP3   OH280550   3.951   0.115  11.452  0.2590 -0.1121 -0.2624
19712TIP3    H180551   4.028   0.170  11.439  2.5331 -2.4698  2.0494
19712TIP3    H280552   3.963   0.042  11.391  0.3784 -0.9540  0.7408
19713TIP3   OH280553   0.867   3.682  12.089 -0.0121 -0.2508 -0.3458
19713TIP3    H180554   0.781   3.641  12.085 -0.1002 -0.0181 -0.8616
19713TIP3    H280555   0.891   3.679  12.181 -0.3939 -0.6882 -0.2596
19714TIP3   OH280556   1.204   5.819   2.119 -0.6191  0.2809  0.1177
19714TIP3    H180557   1.201   5.888   2.185 -1.6637 -0.8528  1.3182
19714TIP3    H280558   1.209   5.738   2.169  1.4289 -0.5379 -1.2665
19715TIP3   OH280559   5.582   3.410   1.022  0.1876  0.1650  0.1025
19715TIP3    H180560   5.637   3.342   1.061  1.0505 -0.9581 -2.8088
19715TIP3    H280561   5.639   3.486   1.016  0.6420 -0.2233 -0.6046
19716TIP3   OH280562   1.119   5.195  11.513  0.7107 -0.4160  0.0005
19716TIP3    H180563   1.200   5.225  11.554  0.2774 -0.4470  0.8874
19716TIP3    H280564   1.063   5.273  11.510  0.8319 -0.3429 -0.8026
19717TIP3   OH280565   3.921   0.794   4.897 -0.8894  0.0614  0.2294
19717TIP3    H180566   3.931   0.700   4.882  0.6163 -0.2202  2.4747
19717TIP3    H280567   3.863   0.800   4.973 -1.4788  0.9701 -0.2894
19718TIP3   OH280568   3.482   4.187   2.536  0.8291 -0.1877  0.3936
19718TIP3    H180569   3.553   4.251   2.530  2.8629 -2.3595 -0.9681
19718TIP3    H280570   3.486   4.140   2.452 -3.3473  0.5620 -0.4697
19719TIP3   OH280571   4.754   2.633  12.191  0.1177  0.2392  0.2603
19719TIP3    H180572   4.822   2.584  12.145 -0.0775 -0.5846  0.8227
19719TIP3    H280573   4.689   2.652  12.124  2.2128  3.7645 -1.0754
19720TIP3   OH280574   0.869   5.644  10.358  0.1775 -0.3441 -0.0165
19720TIP3    H180575   0.926   5.719  10.347 -2.1824  1.7205  0.9132
19720TIP3    H280576   0.824   5.635  10.274 -1.2126  0.8457  0.5489
19721TIP3   OH280577   4.962   0.292   4.524 -0.1471 -0.3313 -0.6293
19721TIP3    H180578   4.998   0.277   4.437 -0.2310 -2.7129 -0.3226
19721TIP3    H280579   4.894   0.226   4.534 -1.3785  1.0431  0.6042
19722TIP3   OH280580   3.336   5.053   6.380 -0.2010  0.5371 -0.0702
19722TIP3    H180581   3.275   5.098   6.437 -0.3201  0.8442 -0.4326
19722TIP3    H280582   3.282   5.021   6.307  0.3675  2.6992 -1.5265
19723TIP3   OH280583   2.356   5.546  11.088 -0.4727 -0.2605 -0.1563
19723TIP3    H180584   2.426   5.555  11.023 -1.4466  0.0150 -1.2053
19723TIP3    H280585   2.344   5.634  11.123  0.8577 -0.6241  1.2998
19724TIP3   OH280586   3.292   3.277   3.044 -0.1691  0.4928  0.3741
19724TIP3    H180587   3.377   3.244   3.072 -0.7688 -1.4117  0.0711
19724TIP3    H280588   3.233   3.201   3.049 -1.4611  1.3340 -1.0921
19725TIP3   OH280589   5.682   5.997   4.059 -0.2587 -0.3415  0.0593
19725TIP3    H180590   5.648   5.987   3.970  2.4334 -2.3225 -0.8931
19725TIP3    H280591   5.764   6.045   4.048  1.0244 -2.1463  1.1572
19726TIP3   OH280592   1.364   3.870   0.906  0.1255  0.8604 -0.0868
19726TIP3    H180593   1.326   3.785   0.883  0.5802  0.5180  0.3961
19726TIP3    H280594   1.416   3.852   0.984 -0.1132  1.6741  0.2619
19727TIP3   OH280595   2.190   6.323  14.802 -0.2253  0.0923 -0.1850
19727TIP3    H180596   2.194   6.393  14.867 -2.5768  0.0879  0.0561
19727TIP3    H280597   2.191   6.369  14.718  5.0484  0.0312 -0.4968
19728TIP3   OH280598   5.557   1.907  14.366  0.3043  0.0436  0.0812
19728TIP3    H180599   5.565   1.994  14.406  1.5885 -0.0243  0.0215
19728TIP3    H280600   5.648   1.875  14.361 -0.0611 -0.8979 -0.7889
19729TIP3   OH280601   0.817   1.429   5.183  0.3643 -0.0823 -0.2574
19729TIP3    H180602   0.844   1.512   5.146 -1.3120  0.3418 -0.6225
19729TIP3    H280603   0.896   1.392   5.221  0.8527  2.4088  1.3454
19730TIP3   OH280604   0.932   4.980   2.934 -0.5425  0.1957  0.1108
19730TIP3    H180605   1.011   4.927   2.945 -1.3501 -0.7576  1.5190
19730TIP3    H280606   0.891   4.946   2.855  1.3730  1.9822 -1.8048
19731TIP3   OH280607   6.308   0.838  16.631  0.0015  0.4433 -0.6462
19731TIP3    H180608   6.261   0.824  16.713 -0.0465 -0.1897 -0.7814
19731TIP3    H280609   6.245   0.884  16.575 -0.2521  0.1353 -0.6160
19732TIP3   OH280610   1.183   1.942  12.223  0.1790  0.7114  0.0251
19732TIP3    H180611   1.210   1.885  12.151  0.8406  0.7500  0.2405
19732TIP3    H280612   1.091   1.918  12.239  0.2763  0.1167 -0.2717
19733TIP3   OH280613   5.137   3.652   2.975 -0.0266  0.4009 -0.5954
19733TIP3    H180614   5.214   3.669   3.030  0.2162 -0.3170 -0.7045
19733TIP3    H280615   5.166   3.586   2.913 -0.9523 -0.4567 -0.1405
19734TIP3   OH280616   1.251   5.882   1.003 -0.9344  0.4828 -0.4638
19734TIP3    H180617   1.242   5.796   1.045  1.7759  1.1613  1.7815
19734TIP3    H280618   1.276   5.862   0.913 -2.8603 -1.0248 -0.7339
19735TIP3   OH280619   1.613   3.163  12.797 -0.3244  0.2936  0.0261
19735TIP3    H180620   1.622   3.225  12.725 -1.1137  0.8058  0.3592
19735TIP3    H280621   1.577   3.084  12.757  2.2780 -0.6146 -0.7232
19736TIP3   OH280622   1.264   0.061  13.258 -0.0002 -0.2439  0.4086
19736TIP3    H180623   1.322   0.135  13.237 -0.6561 -0.2791 -1.7110
19736TIP3    H280624   1.289  -0.008  13.197 -1.2954 -0.7741  0.4418
19737TIP3   OH280625   0.275   6.455  16.315 -0.9162  0.0762 -0.0584
19737TIP3    H180626   0.206   6.487  16.257 -1.4153 -0.8771 -0.0210
19737TIP3    H280627   0.309   6.533  16.359 -1.3364  0.6644 -0.7676
19738TIP3   OH280628   3.029   1.492  13.982 -0.2589  0.0158  0.6341
19738TIP3    H180629   2.944   1.449  13.970 -0.9250  1.0559  1.5056
19738TIP3    H280630   3.025   1.531  14.069  1.1757 -0.0301  0.7472
19739TIP3   OH280631   4.306   3.308  16.590 -0.5057  0.1196  0.1001
19739TIP3    H180632   4.335   3.398  16.606 -1.0549  0.0837  1.4276
19739TIP3    H280633   4.362   3.255  16.647 -0.4286 -0.3471 -0.4049
19740TIP3   OH280634   2.984   1.823  16.874  0.1866  0.0712 -0.0804
19740TIP3    H180635   2.935   1.875  16.810 -0.1966  0.3369  0.4133
19740TIP3    H280636   2.918   1.766  16.914  0.5892 -0.7343 -0.5517
19741TIP3   OH280637   3.974   3.456  11.569  0.4627  0.0653  0.3327
19741TIP3    H180638   3.991   3.362  11.570  0.2006  0.0188  0.6544
19741TIP3    H280639   3.889   3.466  11.613  0.0174  0.3577 -0.5696
19742TIP3   OH280640   6.147   0.627  11.338 -0.5169  0.0580  0.0133
19742TIP3    H180641   6.107   0.540  11.333 -0.6519  0.1493 -0.5874
19742TIP3    H280642   6.165   0.650  11.247 -3.2147  1.9296 -0.1658
19743TIP3   OH280643   0.917   5.383   5.286  0.0943 -0.4896 -0.0011
19743TIP3    H180644   0.952   5.306   5.332  0.8315 -0.1190  0.0648
19743TIP3    H280645   0.952   5.458   5.334  1.9220 -0.0514 -1.8526
19744TIP3   OH280646   5.298   3.004   4.202 -0.0143 -0.3254  0.2170
19744TIP3    H180647   5.324   2.925   4.249  1.1665 -0.0076  0.1302
19744TIP3    H280648   5.322   3.076   4.261 -0.0163  0.0157 -0.1931
19745TIP3   OH280649   4.051   5.801  16.490 -0.0705  0.3044 -0.1330
19745TIP3    H180650   4.114   5.819  16.559  0.8521 -2.6195 -0.0896
19745TIP3    H280651   4.094   5.829  16.410 -1.0435  3.4696  0.2655
19746TIP3   OH280652   2.530   3.108  15.642  0.3404 -0.2707  0.2825
19746TIP3    H180653   2.451   3.064  15.611  0.5534 -0.6484  0.2689
19746TIP3    H280654   2.593   3.037  15.654  0.8506  0.0872 -0.2476
19747TIP3   OH280655   4.822   4.503  13.894 -0.8648 -0.5389 -0.0632
19747TIP3    H180656   4.862   4.425  13.931 -0.6132 -1.1229 -1.4913
19747TIP3    H280657   4.769   4.471  13.820 -1.5081  0.5384 -0.0931
19748TIP3   OH280658   0.283   2.145  17.582  0.3877  0.1434 -0.2068
19748TIP3    H180659   0.318   2.136  17.671  1.4075 -3.8635 -0.8106
19748TIP3    H280660   0.214   2.079  17.577 -0.5085  1.1461 -2.0886
19749TIP3   OH280661   0.984   1.236  17.035  0.7476 -0.5612 -0.4341
19749TIP3    H180662   0.972   1.318  16.987  3.7829  0.1678 -0.1730
19749TIP3    H280663   0.962   1.168  16.972  0.7696  0.4367 -1.5486
19750TIP3   OH280664   5.735   2.113  10.773  0.1237 -0.1311 -0.3049
19750TIP3    H180665   5.676   2.109  10.698  1.0818 -1.0845 -1.0391
19750TIP3    H280666   5.703   2.187  10.825  0.3461  1.5984 -2.4556
19751TIP3   OH280667   4.507   2.728   3.490 -0.4734  0.4143  0.2842
19751TIP3    H180668   4.531   2.734   3.582 -2.0978  0.9658  0.6938
19751TIP3    H280669   4.429   2.783   3.481 -1.0379 -0.5622 -1.1710
19752TIP3   OH280670   2.655   0.709  17.130  0.4009  0.2960 -0.1465
19752TIP3    H180671   2.639   0.625  17.087  0.6980 -0.2403  0.7465
19752TIP3    H280672   2.748   0.707  17.152  0.6606  1.3419 -1.0919
19753TIP3   OH280673   1.301   1.343   3.860  0.9062 -0.8522  0.4148
19753TIP3    H180674   1.311   1.393   3.941  0.1777 -0.6596  0.3968
19753TIP3    H280675   1.226   1.286   3.876 -0.8979  0.9828 -0.9752
19754TIP3   OH280676   0.523   2.215  12.323 -0.2703 -0.3358 -0.0479
19754TIP3    H180677   0.611   2.195  12.354 -0.7677 -2.3087  0.2144
19754TIP3    H280678   0.467   2.198  12.398 -0.9663  0.0178 -0.4781
19755TIP3   OH280679   5.293   0.722   2.438 -0.6453  0.0072  0.5736
19755TIP3    H180680   5.372   0.761   2.476 -0.5900  0.4768  0.0013
19755TIP3    H280681   5.273   0.647   2.494 -0.1007  0.2014  1.0351
19756TIP3   OH280682   3.004   4.290   4.536 -0.0608 -0.0308  0.1370
19756TIP3    H180683   2.992   4.209   4.585  0.0341  1.6687  3.1984
19756TIP3    H280684   3.093   4.319   4.558  1.1512 -0.5739 -3.4281
19757TIP3   OH280685   1.701   0.243  12.581  0.1751 -0.5324  0.2555
19757TIP3    H180686   1.718   0.296  12.503 -0.6615  1.0799  1.1163
19757TIP3    H280687   1.608   0.223  12.576  0.2261 -0.8574  0.5922
19758TIP3   OH280688   1.606   5.728  17.206 -0.3571 -0.0228 -0.1844
19758TIP3    H180689   1.510   5.722  17.209 -0.4014  0.3204 -0.6252
19758TIP3    H280690   1.628   5.696  17.118 -0.2095  1.3448 -0.6786
19759TIP3   OH280691   2.237   1.749  11.396 -0.7404  0.7161  1.0267
19759TIP3    H180692   2.154   1.700  11.398 -0.9313  1.0241  0.8237
19759TIP3    H280693   2.256   1.769  11.487 -1.1969  1.1475  1.0334
19760TIP3   OH280694   6.137   4.389  14.558  0.1984 -0.1964 -0.4361
19760TIP3    H180695   6.168   4.429  14.476  2.3623  0.3413  0.5848
19760TIP3    H280696   6.053   4.350  14.535  0.7416 -0.0679 -2.9225
19761TIP3   OH280697   3.456   5.903  17.050  0.3011  0.3682  0.3587
19761TIP3    H180698   3.417   5.855  16.977  1.6318 -0.1880 -0.0093
19761TIP3    H280699   3.498   5.835  17.103  1.8640  1.0488  0.0465
19762TIP3   OH280700   4.542   1.804   0.935  0.1318  0.3254 -0.6128
19762TIP3    H180701   4.547   1.822   1.029 -1.4346  1.6375 -0.7453
19762TIP3    H280702   4.633   1.801   0.906  0.6084  0.8749  0.7652
19763TIP3   OH280703   0.143   0.657   2.988 -0.4211 -0.0942  0.4335
19763TIP3    H180704   0.192   0.596   3.042  1.0348  0.1884 -0.5409
19763TIP3    H280705   0.136   0.736   3.042 -0.0094 -0.2184  0.6704
19764TIP3   OH280706   0.292   1.477   2.365  0.0077  0.4105 -0.3207
19764TIP3    H180707   0.201   1.470   2.336  0.1242  0.6962 -0.7597
19764TIP3    H280708   0.335   1.400   2.329  0.0806  0.6018 -0.6461
19765TIP3   OH280709   6.229   0.614   5.027  0.0839 -0.0198  0.8309
19765TIP3    H180710   6.266   0.685   5.079 -0.4185  0.6489  0.2920
19765TIP3    H280711   6.306   0.570   4.989  0.3713  0.9052  0.3087
19766TIP3   OH280712   6.214   0.335  11.945 -0.3345 -0.3332 -0.2517
19766TIP3    H180713   6.300   0.350  11.906 -1.3086 -0.7863 -2.7125
19766TIP3    H280714   6.234   0.308  12.035  1.9992  1.3061 -0.1670
19767TIP3   OH280715   2.834   4.438  12.943 -0.2945 -0.1016 -0.0210
19767TIP3    H180716   2.824   4.477  12.856 -0.2453  1.0766  0.4842
19767TIP3    H280717   2.917   4.391  12.939  0.1299  0.6597 -0.3642
19768TIP3   OH280718   0.686   1.070  13.676 -0.1556  0.0519  0.2079
19768TIP3    H180719   0.687   0.979  13.645 -1.3973  0.3657 -0.8417
19768TIP3    H280720   0.774   1.084  13.713 -0.5466 -2.1590  2.2063
19769TIP3   OH280721   3.377   2.847   2.376 -0.1613 -0.5627  0.0730
19769TIP3    H180722   3.286   2.846   2.404  0.2426 -1.6475  1.4724
19769TIP3    H280723   3.421   2.905   2.439  0.1367 -0.0791 -0.5632
19770TIP3   OH280724   2.413   4.161  10.892  0.3602  0.5345  0.0215
19770TIP3    H180725   2.334   4.169  10.837  0.1060  0.0091  0.3040
19770TIP3    H280726   2.481   4.131  10.832 -0.1665 -1.0659  0.1721
19771TIP3   OH280727   5.249   3.777  15.460 -0.4485 -0.5897  0.4215
19771TIP3    H180728   5.161   3.779  15.499 -1.9363  0.4524 -2.6388
19771TIP3    H280729   5.270   3.683  15.454 -2.2134 -0.9793 -0.4508
19772TIP3   OH280730   1.020   5.627   5.737 -0.0599 -0.2093  0.2264
19772TIP3    H180731   0.984   5.541   5.714  1.2237 -0.7983  0.3358
19772TIP3    H280732   1.103   5.631   5.690  0.3242  0.5911  0.9538
19773TIP3   OH280733   1.603   4.133   5.556 -0.4103  0.6952 -0.2356
19773TIP3    H180734   1.690   4.156   5.522 -0.5408 -0.5318 -1.4631
19773TIP3    H280735   1.582   4.205   5.616  0.5676  2.0886 -1.4685
19774TIP3   OH280736   6.421   4.220  12.438  0.5797  0.6638 -0.1164
19774TIP3    H180737   6.448   4.158  12.370  0.7596 -0.6822  1.1263
19774TIP3    H280738   6.461   4.186  12.518  0.2606  2.1308  0.6972
19775TIP3   OH280739   1.211   6.274  15.761 -0.5815 -0.0487  0.3655
19775TIP3    H180740   1.190   6.210  15.829 -0.3881  0.0951  0.5589
19775TIP3    H280741   1.307   6.271  15.753 -0.4395  1.2230  1.3583
19776TIP3   OH280742   3.776   3.935   5.922  0.0481 -0.3878  0.2372
19776TIP3    H180743   3.856   3.908   5.966 -0.4659  1.5316  2.5846
19776TIP3    H280744   3.706   3.891   5.972 -0.4876  0.7003  0.4793
19777TIP3   OH280745   3.912   3.021   2.740 -0.1759 -0.1737  0.4391
19777TIP3    H180746   3.869   3.081   2.801 -1.4225  0.3611 -0.9163
19777TIP3    H280747   3.962   3.077   2.681 -0.5299 -0.5176 -0.2035
19778TIP3   OH280748   1.817   1.500  16.835  0.4624  0.0173  0.1345
19778TIP3    H180749   1.788   1.588  16.860  0.6667  0.4420 -1.0628
19778TIP3    H280750   1.834   1.456  16.918 -3.9846 -0.4676  1.0333
19779TIP3   OH280751   1.098   1.312  17.508  0.1374 -0.2304  0.3138
19779TIP3    H180752   1.050   1.289  17.428 -0.4236 -0.1553  0.6222
19779TIP3    H280753   1.090   1.407  17.514  2.2240  0.0672 -0.8155
19780TIP3   OH280754   6.074   2.771   5.110  0.4965  0.0296  0.2177
19780TIP3    H180755   6.023   2.705   5.063  0.4345 -1.2070  1.9371
19780TIP3    H280756   6.010   2.839   5.134  0.1581 -0.2722  0.1761
19781TIP3   OH280757   0.190   1.382   4.745 -0.4592 -0.2591 -0.1510
19781TIP3    H180758   0.229   1.302   4.710 -1.4897 -0.7628 -0.1722
19781TIP3    H280759   0.220   1.386   4.836  0.5530 -0.0308 -0.4793
19782TIP3   OH280760   1.363   2.181  13.962 -0.2144 -0.4251  0.6366
19782TIP3    H180761   1.295   2.114  13.974 -0.7530 -0.3530 -1.5684
19782TIP3    H280762   1.320   2.249  13.910  1.1593  0.2747  0.3820
19783TIP3   OH280763   3.024   5.942   3.571  0.3066  0.1579  0.8736
19783TIP3    H180764   3.108   5.933   3.618  1.1901 -0.7320 -0.7850
19783TIP3    H280765   2.997   5.852   3.554  0.4784  0.4253 -1.0503
19784TIP3   OH280766   2.776   6.291  11.720 -0.0431 -0.8717  0.1787
19784TIP3    H180767   2.816   6.369  11.682  0.6497 -0.6506  1.3247
19784TIP3    H280768   2.685   6.293  11.690 -0.2524  0.8239  0.8446
19785TIP3   OH280769   3.282   5.615  16.337 -0.2870 -0.1645  0.0712
19785TIP3    H180770   3.320   5.686  16.388  2.8794 -1.1499 -0.7270
19785TIP3    H280771   3.285   5.644  16.246 -2.9110  0.2604  0.0157
19786TIP3   OH280772   4.142   0.107  15.837  0.2774  0.4926 -0.3403
19786TIP3    H180773   4.125   0.124  15.744  0.7631 -1.9241 -0.9449
19786TIP3    H280774   4.237   0.116  15.845  0.2688  0.4003 -0.1418
19787TIP3   OH280775   1.892   4.583  15.463 -0.2023 -0.6159  0.3187
19787TIP3    H180776   1.930   4.518  15.523 -1.2273 -0.1973  1.4690
19787TIP3    H280777   1.925   4.667  15.495 -0.4485 -0.4161  0.0502
19788TIP3   OH280778   5.120   3.886   0.578  0.8779  0.1599  0.2999
19788TIP3    H180779   5.169   3.931   0.647  2.4376  0.1279 -0.7301
19788TIP3    H280780   5.106   3.953   0.511  0.0696  0.0001  0.3068
19789TIP3   OH280781   3.187   6.338   6.255  0.4247  0.5679 -0.0962
19789TIP3    H180782   3.245   6.305   6.323 -0.6885  0.8093  0.9936
19789TIP3    H280783   3.124   6.393   6.301 -1.5070 -0.7577 -1.0220
19790TIP3   OH280784   0.778   0.365   0.032  0.2621 -0.1224  0.5759
19790TIP3    H180785   0.702   0.330   0.077 -0.0220  0.7914  0.8391
19790TIP3    H280786   0.835   0.290   0.018 -0.8092 -0.8757  0.1185
19791TIP3   OH280787   2.847   2.463  16.633  0.1540  0.2885 -0.0315
19791TIP3    H180788   2.770   2.511  16.663 -1.0768 -1.3904 -0.3160
19791TIP3    H280789   2.886   2.428  16.713  0.6922  1.1942  0.1182
19792TIP3   OH280790   4.162   4.986   1.032 -0.6825  0.4696 -0.2205
19792TIP3    H180791   4.243   4.984   1.083 -1.5746  3.1328  1.5389
19792TIP3    H280792   4.191   4.999   0.942  0.8771  0.2769  0.2141
19793TIP3   OH280793   0.829   2.247   6.242  0.2033 -0.2699 -0.2088
19793TIP3    H180794   0.807   2.235   6.149  1.9557  0.3030 -0.7433
19793TIP3    H280795   0.762   2.199   6.289  0.2385 -2.0320 -1.8393
19794TIP3   OH280796   1.671   6.489  12.842  0.1213  0.1676  0.3734
19794TIP3    H180797   1.692   6.580  12.820 -0.0498  0.4025  1.1286
19794TIP3    H280798   1.690   6.440  12.763 -0.3522  0.9439 -0.2358
19795TIP3   OH280799   2.945   3.710   5.391  0.1512  0.1159 -0.0710
19795TIP3    H180800   2.946   3.620   5.356  2.4358 -0.0366  0.2513
19795TIP3    H280801   2.994   3.705   5.473  2.3980  2.0290 -1.1807
19796TIP3   OH280802   6.670   6.003  17.082  0.3837 -0.6811  0.0284
19796TIP3    H180803   6.734   5.977  17.016  2.0380 -0.2239  1.3954
19796TIP3    H280804   6.673   6.098  17.082 -0.5274 -0.6445 -0.0817
19797TIP3   OH280805   4.332   2.069   0.425  0.7676  0.0748  0.4097
19797TIP3    H180806   4.304   2.160   0.430  0.0651  0.0730 -2.0513
19797TIP3    H280807   4.274   2.022   0.484 -0.9504  0.8337 -0.5984
19798TIP3   OH280808   2.895   2.462  14.429  0.3119 -0.7972 -0.1536
19798TIP3    H180809   2.935   2.537  14.472 -0.3191 -1.5425  1.8474
19798TIP3    H280810   2.876   2.493  14.340 -0.3373  1.5650  0.7194
19799TIP3   OH280811   6.668   1.237  13.566  0.4408  0.5546  0.1067
19799TIP3    H180812   6.655   1.305  13.631  0.0169  1.6015 -1.0406
19799TIP3    H280813   6.595   1.176  13.580 -1.3597  2.2876 -1.2126
19800TIP3   OH280814   6.445   2.766   3.182 -0.5361  0.2669  0.0090
19800TIP3    H180815   6.506   2.727   3.119  0.3691  2.2732 -0.4272
19800TIP3    H280816   6.499   2.782   3.260 -0.6930  1.2567 -0.0735
19801TIP3   OH280817   5.001   1.309  16.965  0.0505  0.5160 -0.5604
19801TIP3    H180818   4.924   1.367  16.964 -0.1457  0.2735  0.1165
19801TIP3    H280819   5.070   1.362  16.927 -0.2795  0.9919 -0.5172
19802TIP3   OH280820   5.560   3.521   5.061 -0.4067 -0.0249 -0.1649
19802TIP3    H180821   5.509   3.496   4.984  0.6135  0.4375 -1.0160
19802TIP3    H280822   5.651   3.512   5.033 -0.0199 -0.3906  1.1805
19803TIP3   OH280823   2.247   2.045   3.020  0.0077  0.5151 -0.6450
19803TIP3    H180824   2.236   1.950   3.018  1.9843  0.2182  0.2009
19803TIP3    H280825   2.279   2.068   2.933  0.6999  0.2180 -0.4745
19804TIP3   OH280826   5.388   0.266  11.797  0.1788 -0.3687  0.2702
19804TIP3    H180827   5.302   0.228  11.783 -0.0380  0.5754 -1.1767
19804TIP3    H280828   5.447   0.191  11.805 -0.5640 -1.0207 -0.2842
19805TIP3   OH280829   1.378   6.615   3.916  0.3354 -0.6772 -0.2324
19805TIP3    H180830   1.387   6.522   3.896 -0.1892 -0.5533 -1.1299
19805TIP3    H280831   1.315   6.647   3.851 -0.9155 -0.0829  1.2187
19806TIP3   OH280832   5.455   1.360   4.991 -0.1436  0.0833 -0.2910
19806TIP3    H180833   5.417   1.283   5.033 -1.9893  1.5261  0.8341
19806TIP3    H280834   5.526   1.387   5.049 -0.5271  0.1511  0.1443
19807TIP3   OH280835   1.702   0.689  17.201  0.6609 -0.7406  0.1408
19807TIP3    H180836   1.705   0.650  17.114  0.2569 -0.8569  0.1790
19807TIP3    H280837   1.625   0.650  17.242 -1.3905  2.0639 -0.7720
19808TIP3   OH280838   3.504   1.461  11.874 -0.0983 -0.1108 -0.3354
19808TIP3    H180839   3.488   1.420  11.789 -0.2249 -1.5397  0.3483
19808TIP3    H280840   3.418   1.465  11.916  0.3434 -2.0638  0.8500
19809TIP3   OH280841   0.196   1.939  13.294  0.3469 -0.4300 -0.0594
19809TIP3    H180842   0.196   1.858  13.344  3.2475  0.0551  0.9174
19809TIP3    H280843   0.207   2.008  13.359 -0.5499  0.6405 -0.9990
19810TIP3   OH280844   3.942   6.649   0.808  0.3742  0.5579 -0.1592
19810TIP3    H180845   3.937   6.641   0.904  1.8422 -1.9080 -0.1946
19810TIP3    H280846   3.891   6.575   0.775 -1.4252  2.2573 -1.4063
19811TIP3   OH280847   4.305   4.907  15.162 -0.3408 -0.3446  0.5434
19811TIP3    H180848   4.284   4.970  15.093  0.2079 -0.1303  0.5604
19811TIP3    H280849   4.390   4.872  15.136  1.9171  2.6495  3.0739
19812TIP3   OH280850   4.094   5.456  13.905 -1.1486  0.0843 -0.2156
19812TIP3    H180851   4.052   5.466  13.820 -0.4758 -0.9891 -0.6812
19812TIP3    H280852   4.167   5.396  13.890 -0.8365  0.1148  1.0526
19813TIP3   OH280853   0.859   6.054  13.218 -0.4879  0.0654 -0.1308
19813TIP3    H180854   0.828   6.073  13.307 -2.0006  0.4195 -0.6987
19813TIP3    H280855   0.952   6.033  13.229  0.4953  4.1261  1.0815
19814TIP3   OH280856   1.253   2.047   5.666  0.4376  0.0129 -0.4456
19814TIP3    H180857   1.322   2.107   5.695 -0.3429  1.3985 -1.3169
19814TIP3    H280858   1.300   1.970   5.635  1.6138  0.8937 -0.9652
19815TIP3   OH280859   3.170   5.894  16.142 -0.8443 -0.6917  0.0987
19815TIP3    H180860   3.108   5.956  16.181 -1.4950 -1.0813 -0.3020
19815TIP3    H280861   3.115   5.822  16.109 -0.1939 -0.9832 -0.3743
19816TIP3   OH280862   0.446   1.781   3.395 -0.2884  0.5842  0.2510
19816TIP3    H180863   0.469   1.760   3.485  1.8364  0.2962 -0.3007
19816TIP3    H280864   0.419   1.872   3.397 -0.5534  0.4929  1.2191
19817TIP3   OH280865   2.400   4.368  17.574  0.5317  0.3878 -0.6832
19817TIP3    H180866   2.461   4.438  17.596 -1.2705  1.7099  0.3427
19817TIP3    H280867   2.447   4.288  17.594  2.6756  1.2465 -1.9232
19818TIP3   OH280868   4.569   3.247  13.011  0.1136  0.2151  1.2177
19818TIP3    H180869   4.644   3.264  13.068  1.0634  1.8451 -0.4062
19818TIP3    H280870   4.524   3.332  13.006 -1.0041 -0.3732  0.9834
19819TIP3   OH280871   3.935   5.478   0.397  0.1050 -0.7131 -0.5034
19819TIP3    H180872   3.856   5.530   0.380  1.5772  0.9707 -2.7396
19819TIP3    H280873   3.936   5.413   0.327  0.8240 -0.5584 -0.6444
19820TIP3   OH280874   1.419   1.929  15.311 -0.4176 -0.2073 -0.3373
19820TIP3    H180875   1.354   1.962  15.374  0.9281  1.7412  0.1017
19820TIP3    H280876   1.491   1.897  15.365 -0.0487 -0.2500 -0.8466
19821TIP3   OH280877   2.355   1.786   3.720 -0.4565 -0.0720  0.4825
19821TIP3    H180878   2.328   1.806   3.810 -1.2087  0.3881  0.1624
19821TIP3    H280879   2.274   1.757   3.677 -0.4176  1.1233 -0.4376
19822TIP3   OH280880   5.131   3.227   2.785  0.1906 -0.5351 -0.4344
19822TIP3    H180881   5.183   3.202   2.708  0.1608 -0.2788 -0.5385
19822TIP3    H280882   5.095   3.313   2.763  1.1163  0.0682  0.3143
19823TIP3   OH280883   2.300   6.654  11.127  0.3391 -0.3931  0.2117
19823TIP3    H180884   2.390   6.687  11.138  0.5423 -0.5777 -0.7832
19823TIP3    H280885   2.277   6.679  11.038 -0.4970 -0.6117  0.3646
19824TIP3   OH280886   4.481   2.757  12.253 -0.4536 -0.2270  0.3529
19824TIP3    H180887   4.552   2.809  12.291 -1.9875  1.4599  1.0659
19824TIP3    H280888   4.440   2.816  12.190 -0.2129 -1.7603 -1.3301
19825TIP3   OH280889   1.065   5.736   0.432  0.0216 -0.3220 -0.2031
19825TIP3    H180890   1.137   5.715   0.373  1.0572  0.8578  0.5837
19825TIP3    H280891   1.043   5.827   0.412 -2.6216 -1.1968 -1.7772
19826TIP3   OH280892   4.306   6.499  12.583 -0.3014 -0.2206  0.2006
19826TIP3    H180893   4.257   6.514  12.503  0.9301 -2.0154 -0.9582
19826TIP3    H280894   4.325   6.587  12.617 -1.7705  0.5407 -0.8591
19827TIP3   OH280895   5.608   2.536  14.854 -0.6894 -0.2918  0.2369
19827TIP3    H180896   5.529   2.525  14.801  0.8932 -1.4927 -2.0377
19827TIP3    H280897   5.665   2.593  14.801  0.8813 -1.3626  0.7042
19828TIP3   OH280898   2.114   5.115   4.301 -0.0559 -0.2413  0.1865
19828TIP3    H180899   2.156   5.169   4.234 -0.4301 -1.2040 -0.8609
19828TIP3    H280900   2.079   5.179   4.364 -0.2988  0.7354 -0.8959
19829TIP3   OH280901   3.019   0.585   5.269  0.6329 -0.3382 -0.0496
19829TIP3    H180902   3.085   0.520   5.292 -2.2600 -3.1015  1.1719
19829TIP3    H280903   2.969   0.544   5.198  0.2404  1.6900 -1.0194
19830TIP3   OH280904   5.416   3.407   3.224 -0.0051  0.3083  0.4870
19830TIP3    H180905   5.428   3.312   3.224  1.2046  0.4407  0.1768
19830TIP3    H280906   5.331   3.421   3.267  0.4218 -0.8313  1.7762
19831TIP3   OH280907   5.173   6.099  16.316  0.0051  0.2725 -0.2102
19831TIP3    H180908   5.119   6.020  16.318 -0.0956  0.3435 -0.1635
19831TIP3    H280909   5.142   6.148  16.240  0.5888 -0.1030 -0.6978
19832TIP3   OH280910   3.252   5.297  13.405  0.2823  0.0632 -0.1614
19832TIP3    H180911   3.282   5.294  13.496  0.3276  1.7294 -0.0802
19832TIP3    H280912   3.179   5.359  13.407  0.8697  0.8205 -1.3982
19833TIP3   OH280913   0.466   2.530  16.634 -0.5322  0.7176 -0.4133
19833TIP3    H180914   0.499   2.549  16.722  1.5427  0.7046 -1.1311
19833TIP3    H280915   0.408   2.455  16.646  0.9864 -0.3411  0.7870
19834TIP3   OH280916   4.294   3.762  15.392  0.2723 -0.3106  0.1650
19834TIP3    H180917   4.319   3.760  15.300  0.1989 -0.2504  0.1440
19834TIP3    H280918   4.241   3.841  15.401  2.5941  1.2739  0.8579
19835TIP3   OH280919   3.645   0.417   6.116 -0.8833 -0.0489  0.0037
19835TIP3    H180920   3.593   0.474   6.058 -1.5377 -0.1281  0.5048
19835TIP3    H280921   3.628   0.329   6.083 -0.9564 -0.0641  0.0832
19836TIP3   OH280922   1.978   5.986   0.011  0.6337 -0.4425 -0.7655
19836TIP3    H180923   2.027   6.051   0.062 -2.7620  0.2651  1.9869
19836TIP3    H280924   2.012   5.901   0.042  0.4901  0.0216  0.7402
19837TIP3   OH280925   4.047   4.100   1.879 -0.0238 -0.2451  0.1558
19837TIP3    H180926   4.017   4.186   1.909  0.0818 -0.3380  0.5357
19837TIP3    H280927   4.074   4.055   1.959  0.7885 -0.3011 -0.1395
19838TIP3   OH280928   3.556   5.200   3.030 -0.2050  0.4359 -0.8118
19838TIP3    H180929   3.626   5.189   2.966 -0.0892  0.7209 -0.7347
19838TIP3    H280930   3.488   5.140   3.001  0.8118 -1.2851  0.1780
19839TIP3   OH280931   1.798   4.557   0.712  0.2246 -0.2945 -0.2568
19839TIP3    H180932   1.839   4.624   0.766 -0.6676 -0.7106  0.9763
19839TIP3    H280933   1.727   4.604   0.666  0.5702 -0.0822 -0.5823
19840TIP3   OH280934   4.152   0.218  16.179  0.0009 -0.3859 -0.1627
19840TIP3    H180935   4.244   0.244  16.179 -0.3845  1.0955 -1.2250
19840TIP3    H280936   4.141   0.171  16.096 -0.5672  0.9027 -0.8342
19841TIP3   OH280937   0.234   2.025  16.381 -0.0142  0.2260 -0.1860
19841TIP3    H180938   0.326   2.053  16.386 -0.3848  1.3400  0.7401
19841TIP3    H280939   0.219   1.979  16.464 -0.6821  1.3000  0.3019
19842TIP3   OH280940   3.296   3.774   3.110 -0.1448  0.1265 -0.1122
19842TIP3    H180941   3.205   3.746   3.120 -0.7765  1.8165 -0.7703
19842TIP3    H280942   3.333   3.767   3.198 -0.8270 -0.8146  0.1198
19843TIP3   OH280943   0.880   2.268  13.216  0.6689  0.2769 -0.5437
19843TIP3    H180944   0.909   2.201  13.278  1.8609 -0.7386 -2.1109
19843TIP3    H280945   0.961   2.313  13.191  0.1037  1.1790 -0.7738
19844TIP3   OH280946   0.409   6.348  16.886  0.2309 -0.2906  0.3202
19844TIP3    H180947   0.480   6.339  16.822  1.5608  0.0513  1.6842
19844TIP3    H280948   0.431   6.427  16.935 -0.1895 -1.0997  1.8809
19845TIP3   OH280949   2.155   2.295  15.562  0.3470 -0.0812 -0.4074
19845TIP3    H180950   2.125   2.259  15.646  0.6406 -0.2587 -0.3752
19845TIP3    H280951   2.086   2.273  15.500 -0.9124  1.8896  0.1908
19846TIP3   OH280952   4.519   4.633   0.358 -0.9662 -0.0524  0.2345
19846TIP3    H180953   4.574   4.710   0.342 -1.7200  0.7049  1.2173
19846TIP3    H280954   4.547   4.570   0.291  1.6820 -0.0150  1.1853
19847TIP3   OH280955   0.465   0.874  15.043  0.3326  0.1679  0.2790
19847TIP3    H180956   0.380   0.845  15.010  0.4830  0.3232 -0.2544
19847TIP3    H280957   0.458   0.868  15.138 -0.1956 -0.0418  0.2258
19848TIP3   OH280958   6.450   5.957  11.855 -0.9858  0.0470 -0.2444
19848TIP3    H180959   6.512   6.027  11.875 -1.6762  0.3388  0.9076
19848TIP3    H280960   6.504   5.891  11.809 -0.3080  1.2339 -1.2160
19849TIP3   OH280961   1.649   2.318   1.888  0.4169 -0.6914  0.2361
19849TIP3    H180962   1.636   2.412   1.872 -2.0877 -0.7454  1.4513
19849TIP3    H280963   1.667   2.281   1.802 -0.5035  0.6605 -0.5819
19850TIP3   OH280964   2.518   2.733  15.296 -0.4239  0.4483  0.3369
19850TIP3    H180965   2.433   2.752  15.256 -0.4105  0.7259  0.4357
19850TIP3    H280966   2.567   2.816  15.289  0.0602  0.1188 -0.2723
19851TIP3   OH280967   6.250   1.931   2.887 -0.0561  0.0374  0.0651
19851TIP3    H180968   6.303   1.859   2.853 -1.2168 -1.2625  0.9288
19851TIP3    H280969   6.312   2.003   2.898  0.9263 -0.4700 -1.8141
19852TIP3   OH280970   0.262   3.950   2.403 -0.6202 -0.0150  0.2731
19852TIP3    H180971   0.317   4.028   2.397 -0.9662  0.2811  0.8812
19852TIP3    H280972   0.181   3.980   2.442 -0.9086 -0.6085  0.1482
19853TIP3   OH280973   1.765   2.143   5.340  0.6230  0.1638 -0.0069
19853TIP3    H180974   1.778   2.213   5.404  0.4375  0.4797 -0.3164
19853TIP3    H280975   1.675   2.115   5.352  0.9098 -0.5330  0.6239
19854TIP3   OH280976   6.622   3.916   1.498 -0.2293 -0.2565  0.4804
19854TIP3    H180977   6.583   4.003   1.495 -0.8012 -0.4459  1.7571
19854TIP3    H280978   6.705   3.928   1.544 -0.0397 -0.2962  0.1520
19855TIP3   OH280979   0.897   1.769   3.054 -0.2036  0.9165  0.0691
19855TIP3    H180980   0.908   1.860   3.024 -1.9145  1.1711  0.1044
19855TIP3    H280981   0.897   1.775   3.150  4.0527  0.2560  0.2740
19856TIP3   OH280982   0.159   1.435  14.850 -0.2831  0.0135 -0.4293
19856TIP3    H180983   0.222   1.387  14.904  0.5534  1.0125 -0.4920
19856TIP3    H280984   0.213   1.484  14.788 -1.0072  2.1007  0.4960
19857TIP3   OH280985   1.698   4.315  13.360 -0.2378 -0.3891 -0.6572
19857TIP3    H180986   1.785   4.333  13.325 -0.0935  2.4896  0.8527
19857TIP3    H280987   1.699   4.222  13.381  1.9639 -0.7206 -1.9288
19858TIP3   OH280988   3.116   0.740   5.065  0.4043 -0.6200 -0.3711
19858TIP3    H180989   3.059   0.710   5.136 -2.4527  0.5218 -1.9990
19858TIP3    H280990   3.191   0.680   5.067 -0.7216 -2.1101  2.0427
19859TIP3   OH280991   0.935   6.404  16.738 -0.0797 -0.0583 -0.6354
19859TIP3    H180992   0.894   6.318  16.743  0.2396 -0.1827 -0.0882
19859TIP3    H280993   1.008   6.393  16.678  0.6228 -0.4522  0.2635
19860TIP3   OH280994   6.139   4.568   0.463 -0.1194  0.1326 -0.4104
19860TIP3    H180995   6.074   4.510   0.502  0.7543 -0.4641  0.1985
19860TIP3    H280996   6.091   4.616   0.396 -0.7625 -1.6300 -1.2758
19861TIP3   OH280997   0.730   4.090   3.267  0.5523  0.9509  0.5583
19861TIP3    H180998   0.688   4.095   3.182  1.8148  0.7924 -0.1076
19861TIP3    H280999   0.807   4.147   3.259  1.3227  0.0370  1.1935
19862TIP3   OH281000   4.923   3.210   5.545 -0.4251 -0.8123 -0.0119
19862TIP3    H181001   4.844   3.233   5.496 -0.0834  0.2261 -0.1011
19862TIP3    H281002   4.989   3.273   5.514 -0.0785 -0.4284  1.4548
19863TIP3   OH281003   3.745   1.083  14.566  0.4468 -0.2294  0.0617
19863TIP3    H181004   3.742   1.173  14.597  0.3541 -0.0521 -0.4532
19863TIP3    H281005   3.744   1.030  14.646 -0.5693  0.2000  0.3456
19864TIP3   OH281006   3.697   0.152  17.256 -0.1856 -0.1291 -0.0734
19864TIP3    H181007   3.713   0.244  17.236  1.6286 -0.1714  0.9547
19864TIP3    H281008   3.681   0.111  17.171  1.4856  0.7001 -0.8360
19865TIP3   OH281009   1.576   4.680  15.420 -0.0948  0.1160  0.5087
19865TIP3    H181010   1.592   4.657  15.511 -1.3959  0.1030  0.7560
19865TIP3    H281011   1.598   4.601  15.371 -0.3977 -0.2277  0.9215
19866TIP3   OH281012   1.079   4.143   1.104  0.0985  0.1075 -0.1176
19866TIP3    H181013   1.025   4.084   1.157 -2.8607  0.6036 -2.2911
19866TIP3    H281014   1.015   4.194   1.053  2.6598  1.5631 -2.1148
19867TIP3   OH281015   2.130   3.265  14.920  0.9041  0.0180  0.2580
19867TIP3    H181016   2.130   3.312  14.837  0.3977 -5.8914 -3.7402
19867TIP3    H281017   2.037   3.257  14.943  0.5966 -1.8545 -1.2801
19868TIP3   OH281018   2.579   4.311  15.668 -0.9388  0.3104  0.2713
19868TIP3    H181019   2.649   4.364  15.628 -0.7507  1.6110  2.1656
19868TIP3    H281020   2.624   4.262  15.738 -1.7832  0.7255  1.1311
19869TIP3   OH281021   2.207   4.997  15.150 -0.2793 -0.0347  0.3350
19869TIP3    H181022   2.299   4.982  15.126 -0.4029 -1.5947  0.7438
19869TIP3    H281023   2.181   5.073  15.098  1.4405  0.8869  0.7372
19870TIP3   OH281024   1.196   3.924  12.485  0.3199 -0.7146 -0.0922
19870TIP3    H181025   1.194   3.835  12.450 -2.6532 -1.3036  1.2646
19870TIP3    H281026   1.153   3.977  12.418  0.6371 -0.5896 -0.1982
19871TIP3   OH281027   0.911   5.682  10.617 -0.1777 -0.8695  0.3250
19871TIP3    H181028   0.896   5.656  10.526 -0.7704  2.1123 -0.5484
19871TIP3    H281029   1.006   5.682  10.627 -0.0482  0.0349 -0.7463
19872TIP3   OH281030   6.194   2.065  15.549  0.1274  0.4403  0.6559
19872TIP3    H181031   6.222   1.981  15.514  2.0838  1.1528  0.4083
19872TIP3    H281032   6.114   2.086  15.501 -0.9318 -1.6760  1.3881
19873TIP3   OH281033   1.138   4.120   4.641 -0.3078  0.2912  0.1251
19873TIP3    H181034   1.200   4.116   4.714  1.2920 -1.3145 -1.2409
19873TIP3    H281035   1.180   4.177   4.576  1.0100 -2.6534 -1.8101
19874TIP3   OH281036   0.671   6.334  12.514 -0.4156  0.2664 -0.2706
19874TIP3    H181037   0.667   6.420  12.557 -0.5433 -0.2493  0.7725
19874TIP3    H281038   0.735   6.284  12.565 -0.1816 -0.2036 -0.9992
19875TIP3   OH281039   1.361   0.376   1.331  0.6934 -0.3288 -0.2746
19875TIP3    H181040   1.297   0.446   1.346  1.5528  0.3943  0.1462
19875TIP3    H281041   1.316   0.296   1.355  0.3765  0.2990  1.3266
19876TIP3   OH281042   3.775   3.607  12.566  0.5829 -0.0954 -0.0310
19876TIP3    H181043   3.759   3.701  12.563 -0.9173 -0.2971  0.6571
19876TIP3    H281044   3.718   3.575  12.636 -1.2443 -1.9129 -2.1684
19877TIP3   OH281045   2.882   0.847  13.227  0.4959 -0.2760  0.3826
19877TIP3    H181046   2.956   0.820  13.172 -0.6113  1.8986 -2.4411
19877TIP3    H281047   2.892   0.942  13.235 -1.1836 -0.1403  1.2170
19878TIP3   OH281048   0.028   2.336  13.613 -0.1439  1.1008  0.2621
19878TIP3    H181049  -0.005   2.247  13.607 -0.4570  1.1517  1.1887
19878TIP3    H281050   0.122   2.328  13.599 -0.4073  0.8796 -1.7110
19879TIP3   OH281051   5.778   3.356  15.605 -0.3163 -0.1298 -0.1780
19879TIP3    H181052   5.792   3.349  15.511 -0.8637 -0.2928 -0.2515
19879TIP3    H281053   5.864   3.337  15.644 -0.1433 -0.2923 -0.6352
19880TIP3   OH281054   2.142   2.423   3.849  0.4574  0.1334  0.3278
19880TIP3    H181055   2.058   2.465   3.832 -0.2074 -0.7877  1.2626
19880TIP3    H281056   2.175   2.467   3.927  0.2245 -0.3987  0.7276
19881TIP3   OH281057   4.530   4.114   3.767 -0.6603  0.7196 -0.6693
19881TIP3    H181058   4.542   4.208   3.751  0.2625  0.5366 -1.1479
19881TIP3    H281059   4.583   4.071   3.700  0.8131 -0.1238  0.9460
19882TIP3   OH281060   3.545   4.044  11.919  0.0038 -0.4715 -0.1993
19882TIP3    H181061   3.624   4.047  11.866  0.2223 -0.3031  0.1292
19882TIP3    H281062   3.524   3.951  11.926  0.5922 -0.5738  0.3135
19883TIP3   OH281063   3.679   2.097   0.323  0.9302  0.0952  0.1765
19883TIP3    H181064   3.758   2.098   0.268  1.0565  2.0774  0.3266
19883TIP3    H281065   3.688   2.019   0.377  1.5866 -1.0358 -1.4899
19884TIP3   OH281066   1.162   2.056  13.128 -0.1690 -0.3730 -0.1615
19884TIP3    H181067   1.124   2.063  13.216 -1.0997  0.6381 -0.6177
19884TIP3    H281068   1.256   2.049  13.142 -0.2294  0.7410  0.8863
19885TIP3   OH281069   2.209   5.109  13.198  0.0218  0.2536  0.5638
19885TIP3    H181070   2.151   5.106  13.274  0.5032  0.1189  0.9292
19885TIP3    H281071   2.285   5.058  13.224  0.1570  0.1352 -0.0403
19886TIP3   OH281072   6.159   0.337  15.746  0.1598 -0.2190 -1.0210
19886TIP3    H181073   6.138   0.324  15.839  2.0620 -1.7108 -0.7448
19886TIP3    H281074   6.078   0.373  15.709 -1.2623 -1.2344  0.8482
19887TIP3   OH281075   4.633   1.945  13.634 -0.0369  0.3096 -0.0356
19887TIP3    H181076   4.544   1.929  13.664  0.0601  0.8704  0.5696
19887TIP3    H281077   4.685   1.951  13.714  0.6474 -0.5427 -0.3915
19888TIP3   OH281078   2.786   3.254  16.108  0.1677 -0.4934 -0.3652
19888TIP3    H181079   2.725   3.186  16.082 -0.8264  0.7052 -1.3204
19888TIP3    H281080   2.872   3.221  16.083 -0.1958 -1.7456 -0.0025
19889TIP3   OH281081   4.333   0.950   1.135 -0.0768 -0.0916  0.0376
19889TIP3    H181082   4.323   1.030   1.186 -0.1835  0.0966 -0.2816
19889TIP3    H281083   4.421   0.955   1.098 -0.4056  0.2970 -0.7052
19890TIP3   OH281084   5.031   1.595   1.766  0.3472 -0.0559 -0.0228
19890TIP3    H181085   5.027   1.552   1.851  1.6345 -0.0001  0.0819
19890TIP3    H281086   5.123   1.619   1.756  0.0885  0.5044 -1.1523
19891TIP3   OH281087   6.656   5.512  13.447 -0.0100 -0.3024  0.5939
19891TIP3    H181088   6.667   5.596  13.493 -3.0252  0.0089  0.9440
19891TIP3    H281089   6.688   5.447  13.508  2.5721  0.5346  0.2469
19892TIP3   OH281090   1.178   6.496   5.401 -0.5155 -0.3277 -0.0088
19892TIP3    H181091   1.165   6.402   5.417  1.8358 -0.4645  1.7082
19892TIP3    H281092   1.207   6.530   5.486  1.6163  1.3344 -1.3122
19893TIP3   OH281093   5.083   6.690   2.401  0.3185  0.3658  1.3742
19893TIP3    H181094   5.080   6.755   2.330 -0.6200 -0.3771  0.7122
19893TIP3    H281095   5.085   6.606   2.356 -2.5920 -0.2274  2.1918
19894TIP3   OH281096   4.539   0.870   2.104  0.0343 -0.3029  0.0038
19894TIP3    H181097   4.616   0.820   2.077  1.0886  0.7459  0.9324
19894TIP3    H281098   4.522   0.840   2.194  0.1757  0.3857  0.2680
19895TIP3   OH281099   0.346   0.487  15.167 -0.0556  0.0095  0.2363
19895TIP3    H181100   0.358   0.530  15.252 -0.7642  0.0362  0.3265
19895TIP3    H281101   0.415   0.525  15.111  0.3047  0.1176  0.7450
19896TIP3   OH281102   1.091   5.560  14.660 -0.1867  0.4351  0.6950
19896TIP3    H181103   1.146   5.576  14.736  0.1902 -2.8102  1.2590
19896TIP3    H281104   1.051   5.645  14.640  4.0829  2.7433  0.9181
19897TIP3   OH281105   3.666   5.866  15.332 -0.6336 -0.6551  0.8415
19897TIP3    H181106   3.587   5.904  15.370 -2.2325 -2.7630 -0.1546
19897TIP3    H281107   3.648   5.772  15.326  0.9293 -0.9096 -1.7149
19898TIP3   OH281108   0.443   0.094   2.682 -0.3237 -0.5605  0.1834
19898TIP3    H181109   0.424   0.151   2.608  2.6893 -0.4302 -0.6336
19898TIP3    H281110   0.441   0.152   2.758 -3.1953 -0.6484  0.2734
19899TIP3   OH281111   3.417   1.474   4.587 -0.1702 -0.5693  0.2458
19899TIP3    H181112   3.475   1.538   4.545 -1.2320 -0.4140 -1.0659
19899TIP3    H281113   3.429   1.394   4.535  0.5420 -1.2292  1.3759
19900TIP3   OH281114   6.522   0.648  15.980 -0.5059  0.5023 -0.1611
19900TIP3    H181115   6.552   0.567  16.021 -1.9402  0.5007  0.9395
19900TIP3    H281116   6.547   0.717  16.041 -0.8592  0.7162 -0.2563
19901TIP3   OH281117   6.027   0.133   0.498 -1.1242 -0.1136 -0.2233
19901TIP3    H181118   6.092   0.199   0.523 -1.0251  0.2451 -1.3586
19901TIP3    H281119   5.951   0.184   0.472 -1.6053 -0.5140  0.3615
19902TIP3   OH281120   6.641   2.546   6.236 -0.4264 -0.3291  0.4995
19902TIP3    H181121   6.597   2.508   6.312  0.1240  1.7852  1.9514
19902TIP3    H281122   6.734   2.532   6.253 -0.3003  0.1545  0.2290
19903TIP3   OH281123   5.781   2.762  15.270  0.3059  0.7103 -0.2420
19903TIP3    H181124   5.802   2.709  15.194 -0.1297  0.4299 -0.1711
19903TIP3    H281125   5.722   2.707  15.322  1.0941  0.6529  0.6026
19904TIP3   OH281126   0.171   4.886  10.976 -0.0456  0.0775 -0.4915
19904TIP3    H181127   0.117   4.815  10.941 -0.5020 -0.1701  0.6583
19904TIP3    H281128   0.129   4.909  11.059 -1.0510  3.0286 -1.6808
19905TIP3   OH281129   5.612   2.975  14.339  0.1707  0.1406  0.5252
19905TIP3    H181130   5.541   2.952  14.279  0.7090  1.4062 -0.6607
19905TIP3    H281131   5.569   3.000  14.420 -0.6418 -0.5387  0.3098
19906TIP3   OH281132   0.890   4.645  11.710  0.0524  0.0409 -0.2695
19906TIP3    H181133   0.818   4.692  11.669 -0.4834 -0.9737 -0.5356
19906TIP3    H281134   0.945   4.616  11.636  1.4403  1.8449 -0.0210
19907TIP3   OH281135   4.198   3.122  10.806 -0.1099  0.0573  0.0133
19907TIP3    H181136   4.207   3.049  10.867 -0.0587 -0.9078 -1.0996
19907TIP3    H281137   4.284   3.165  10.808  0.3055 -0.7381 -0.3164
19908TIP3   OH281138   4.283   3.394  12.529  0.3560  0.0567  0.3835
19908TIP3    H181139   4.308   3.337  12.601  0.6461  0.1224  0.3347
19908TIP3    H281140   4.195   3.425  12.551  0.0780 -0.6408  0.2717
19909TIP3   OH281141   0.991   3.594  15.058 -0.1408 -0.4606 -0.0375
19909TIP3    H181142   0.915   3.552  15.017 -0.5637 -0.3138  0.5859
19909TIP3    H281143   0.961   3.682  15.080  0.2422 -0.3717  0.1363
19910TIP3   OH281144   3.856   5.140  16.391 -0.1796 -0.1341  0.1192
19910TIP3    H181145   3.895   5.053  16.397 -0.2802 -0.1271  1.1423
19910TIP3    H281146   3.836   5.163  16.482 -1.4881  0.3557 -0.2649
19911TIP3   OH281147   0.575   3.145  10.486  0.7129 -0.4998  0.2106
19911TIP3    H181148   0.536   3.191  10.561  1.7394 -0.8421  0.9929
19911TIP3    H281149   0.552   3.053  10.499  2.6825 -0.8917  1.3455
19912TIP3   OH281150   1.097   2.459  11.649  0.0891 -0.4151 -0.1093
19912TIP3    H181151   1.126   2.456  11.740  2.5619  1.8066 -0.6968
19912TIP3    H281152   1.002   2.466  11.654  0.1514 -0.6088  2.2703
19913TIP3   OH281153   6.450   5.402   1.410  0.2985  0.0274 -0.1725
19913TIP3    H181154   6.480   5.356   1.489  0.3297 -0.9302 -0.7333
19913TIP3    H281155   6.531   5.425   1.363  0.2375 -0.4108 -0.4899
19914TIP3   OH281156   1.299   5.694  15.396  0.2041 -0.2668  0.0749
19914TIP3    H181157   1.273   5.649  15.316 -2.0467  0.8953  0.0859
19914TIP3    H281158   1.304   5.624  15.462  0.9954 -1.0655 -0.8054
19915TIP3   OH281159   1.671   2.778   4.260  0.0385 -0.7447  0.3764
19915TIP3    H181160   1.657   2.699   4.312 -1.7264 -0.6874  0.0686
19915TIP3    H281161   1.638   2.756   4.173 -1.0796  0.4870  0.4451
19916TIP3   OH281162   0.064   3.598  16.620  0.1084  0.2356  0.2580
19916TIP3    H181163   0.066   3.664  16.689 -0.6619  0.1385  0.3900
19916TIP3    H281164   0.153   3.595  16.585  0.4114  0.5451  1.0024
19917TIP3   OH281165   4.676   6.609   2.771  0.3685  0.0127 -0.2148
19917TIP3    H181166   4.670   6.536   2.832 -0.8374  0.7490  0.5985
19917TIP3    H281167   4.716   6.680   2.821 -2.6427  1.3402  0.5393
19918TIP3   OH281168   6.668   4.351   5.778 -0.3104 -0.2073  0.3183
19918TIP3    H181169   6.682   4.429   5.724 -2.2671  1.0095  1.4284
19918TIP3    H281170   6.695   4.378   5.866  1.5370 -1.7107  0.2607
19919TIP3   OH281171   2.697   1.941   1.660 -0.2530 -0.1819 -0.0740
19919TIP3    H181172   2.718   1.857   1.699 -0.8885 -0.4870 -0.3808
19919TIP3    H281173   2.625   1.976   1.714  0.1631  0.2755  0.1961
19920TIP3   OH281174   6.284   0.711   3.770  0.2526  0.0908 -0.0897
19920TIP3    H181175   6.223   0.692   3.698 -0.7303 -1.4379  1.0905
19920TIP3    H281176   6.365   0.737   3.726  0.1965 -2.3476 -1.8645
19921TIP3   OH281177   2.315   3.366  15.994 -0.0539  0.0538  0.2660
19921TIP3    H181178   2.325   3.330  15.906 -1.6984 -0.5091  0.2688
19921TIP3    H281179   2.244   3.430  15.985 -0.8173 -0.6163  1.3397
19922TIP3   OH281180   4.456   1.416   0.936 -0.8484 -0.4493  0.2432
19922TIP3    H181181   4.504   1.469   0.873  0.7452 -1.4629  0.5657
19922TIP3    H281182   4.376   1.467   0.953 -0.0456  1.1469 -0.5176
19923TIP3   OH281183   0.252   3.191   5.980  0.4152 -0.2296 -0.3007
19923TIP3    H181184   0.243   3.147   6.065  0.1753 -1.7058 -1.0443
19923TIP3    H281185   0.220   3.126   5.917 -0.2439  1.1729 -1.4424
19924TIP3   OH281186   5.901   6.394  11.120 -0.8186  0.0974 -0.0457
19924TIP3    H181187   5.900   6.317  11.064  0.2758 -0.0337  0.0997
19924TIP3    H281188   5.868   6.465  11.063 -3.1384 -0.6815  0.2070
19925TIP3   OH281189   3.984   0.502   6.391  0.2995 -0.7907 -0.1967
19925TIP3    H181190   4.006   0.572   6.454  0.7334  1.9738 -3.1565
19925TIP3    H281191   3.892   0.516   6.371  0.4859 -0.8137 -1.0990
19926TIP3   OH281192   5.556   3.899   6.425  0.3410 -0.1645  0.7869
19926TIP3    H181193   5.560   3.984   6.469  2.2117  0.2643 -0.1049
19926TIP3    H281194   5.640   3.858   6.446 -0.9766 -2.3307  2.1615
19927TIP3   OH281195   5.221   2.507   4.128  0.2537  0.2585  0.0255
19927TIP3    H181196   5.230   2.419   4.093 -2.2141  0.0172 -0.1270
19927TIP3    H281197   5.268   2.562   4.065 -1.7145 -0.5062 -2.2729
19928TIP3   OH281198   4.686   3.456  16.875 -0.0503 -0.2337  0.0975
19928TIP3    H181199   4.763   3.429  16.926  0.4659 -0.2277 -0.6527
19928TIP3    H281200   4.657   3.375  16.831 -0.4644 -0.2320  0.3646
19929TIP3   OH281201   0.454   6.320   2.799  0.0870 -0.0344 -0.1494
19929TIP3    H181202   0.478   6.412   2.807 -2.0502  0.5691 -0.0659
19929TIP3    H281203   0.359   6.319   2.810  0.0694 -2.2661 -0.0898
19930TIP3   OH281204   3.988   1.913  10.996  0.2543 -0.7100  0.0837
19930TIP3    H181205   3.969   1.845  11.061 -0.3336  0.5952  1.3079
19930TIP3    H281206   3.970   1.995  11.040 -0.2303  0.2379 -1.7639
19931TIP3   OH281207   4.530   0.502   2.476 -0.9563  0.3080 -0.4265
19931TIP3    H181208   4.435   0.500   2.463 -1.0937 -0.8707  0.6166
19931TIP3    H281209   4.549   0.591   2.503 -1.9194  0.2979  0.3287
19932TIP3   OH281210   3.641   5.930  12.871 -0.4720  0.2882  0.0386
19932TIP3    H181211   3.635   5.840  12.837 -1.4390  0.9358 -1.6177
19932TIP3    H281212   3.720   5.930  12.925 -0.3120 -1.4924 -0.1306
19933TIP3   OH281213   3.136   1.456   6.116 -0.3664  0.9351  0.5653
19933TIP3    H181214   3.066   1.439   6.054  0.2945 -0.0627  0.0793
19933TIP3    H281215   3.095   1.445   6.202 -0.1537 -2.6977  0.3268
19934TIP3   OH281216   4.602   5.047   1.304  0.2301 -0.3005 -0.3735
19934TIP3    H181217   4.633   4.956   1.303  2.4014  0.3604  0.5432
19934TIP3    H281218   4.590   5.066   1.397  0.6247  0.6009 -0.5004
19935TIP3   OH281219   1.703   4.723  17.199  0.2208  0.1091 -0.0669
19935TIP3    H181220   1.701   4.769  17.115  0.0357  2.3786  1.1107
19935TIP3    H281221   1.612   4.726  17.230 -0.2523 -2.8943 -0.8124
19936TIP3   OH281222   3.836   1.001   3.366  0.0110 -0.1869  0.1031
19936TIP3    H181223   3.866   1.022   3.278 -1.2287  0.2144 -0.2482
19936TIP3    H281224   3.862   0.910   3.379  2.3088  0.4425  0.2739
19937TIP3   OH281225   5.894   3.834   5.995 -0.2930 -0.3880 -0.1809
19937TIP3    H181226   5.821   3.864   6.049 -1.0649 -1.1035 -0.8152
19937TIP3    H281227   5.970   3.880   6.031 -1.1230  0.7920  0.1312
19938TIP3   OH281228   5.908   3.522  14.262 -0.4235 -0.4667 -0.2248
19938TIP3    H181229   6.002   3.511  14.250 -0.6110 -0.8924 -1.4495
19938TIP3    H281230   5.900   3.589  14.330  0.7452 -1.5098  0.9975
19939TIP3   OH281231   5.387   2.188   0.863  0.0209 -0.1766  0.3836
19939TIP3    H181232   5.408   2.141   0.944  0.6875  0.3958  0.5543
19939TIP3    H281233   5.372   2.278   0.891  1.0683  0.2086 -0.2098
19940TIP3   OH281234   3.673   0.713  12.571  0.4315  0.2028 -0.8467
19940TIP3    H181235   3.763   0.724  12.541  0.1118 -0.1691 -1.9756
19940TIP3    H281236   3.638   0.802  12.577  1.0182  0.3889  0.1242
19941TIP3   OH281237   2.712   5.809  17.026  0.5053  0.0728  0.4037
19941TIP3    H181238   2.678   5.719  17.024  0.0135  0.2656 -0.6226
19941TIP3    H281239   2.801   5.800  17.061  1.2159 -1.1075 -1.5163
19942TIP3   OH281240   2.527   0.282   3.027  0.3130  0.1047 -0.1125
19942TIP3    H181241   2.447   0.248   3.066  0.0450 -0.6948 -1.3323
19942TIP3    H281242   2.502   0.367   2.990 -0.0289 -0.2326 -0.6656
19943TIP3   OH281243   6.458   6.102  16.296 -0.1467  0.3960  0.2472
19943TIP3    H181244   6.548   6.090  16.328  0.2283  1.5599 -0.3087
19943TIP3    H281245   6.430   6.185  16.336 -0.6503  0.4815 -0.2807
19944TIP3   OH281246   0.378   1.873   3.962  0.0445  0.1171  0.2494
19944TIP3    H181247   0.473   1.875   3.972 -0.0589 -2.0388  2.5464
19944TIP3    H281248   0.348   1.948   4.014  0.4182 -0.4418  1.3007
19945TIP3   OH281249   4.243   2.711   4.365  0.0050 -0.5112 -0.4387
19945TIP3    H181250   4.316   2.650   4.357 -0.4263 -0.9011 -1.8899
19945TIP3    H281251   4.241   2.757   4.281  0.8086  2.1344  0.8826
19946TIP3   OH281252   0.552   4.825  16.886  0.1858  0.3641  0.1169
19946TIP3    H181253   0.474   4.879  16.896  0.5389  0.9483 -0.2315
19946TIP3    H281254   0.583   4.809  16.975 -1.7051 -1.9616  0.4761
19947TIP3   OH281255   6.096   1.041   3.628  0.4585 -0.3154 -0.2080
19947TIP3    H181256   6.059   1.050   3.715  1.0633  2.9277 -0.1575
19947TIP3    H281257   6.189   1.019   3.643  1.1086  2.3816  0.1437
19948TIP3   OH281258   4.195   1.226  15.073  0.0655  0.0669 -0.1968
19948TIP3    H181259   4.105   1.245  15.098 -0.4371 -3.0058  0.7856
19948TIP3    H281260   4.188   1.185  14.987  0.5579  0.0499 -0.2337
19949TIP3   OH281261   4.843   6.647  12.625  0.0155  0.7713 -0.1407
19949TIP3    H181262   4.813   6.734  12.600 -0.3465  0.9938  1.0424
19949TIP3    H281263   4.866   6.654  12.717 -1.4277 -0.7158  0.4015
19950TIP3   OH281264   2.669   2.140   0.520 -0.4824 -0.1549 -0.4892
19950TIP3    H181265   2.751   2.140   0.569 -0.7118 -0.1843 -0.1054
19950TIP3    H281266   2.652   2.233   0.500 -0.4140 -0.1395 -0.4747
19951TIP3   OH281267   2.002   3.517  16.578  0.3891 -0.0638 -0.1514
19951TIP3    H181268   2.014   3.479  16.492 -1.1745 -1.0584  0.0306
19951TIP3    H281269   2.078   3.575  16.590  1.3684 -0.9909 -1.5825
19952TIP3   OH281270   5.739   0.747  17.335 -0.0532 -0.6237 -1.1036
19952TIP3    H181271   5.777   0.662  17.355  0.3224 -0.5335 -1.4142
19952TIP3    H281272   5.812   0.808  17.343  0.0579 -0.5503 -2.4531
19953TIP3   OH281273   4.973   5.104  12.385 -0.0109  0.5371 -1.0005
19953TIP3    H181274   4.981   5.073  12.295 -2.2259 -2.0338 -0.4591
19953TIP3    H281275   5.051   5.069  12.429 -0.2745 -0.5534 -1.3649
19954TIP3   OH281276   4.192   4.549  17.081  0.3527 -0.0014 -0.1346
19954TIP3    H181277   4.252   4.623  17.089 -0.6303  0.6886  1.3821
19954TIP3    H281278   4.228   4.496  17.010  1.3889  1.6357 -0.8818
19955TIP3   OH281279   5.440   0.401  16.436  0.7530 -0.4320 -0.0993
19955TIP3    H181280   5.406   0.344  16.367  1.1874  0.0549 -0.7242
19955TIP3    H281281   5.505   0.455  16.392 -1.5610  2.5138 -0.2364
19956TIP3   OH281282   3.516   4.945  11.105  0.3311 -0.4336 -0.4341
19956TIP3    H181283   3.563   4.903  11.033  1.7698 -0.4322  0.4684
19956TIP3    H281284   3.547   5.035  11.105 -0.9265  0.0232 -0.8422
19957TIP3   OH281285   4.990   4.540  11.342  0.0867  0.5738  0.4107
19957TIP3    H181286   5.048   4.579  11.276 -0.7146 -1.9774 -1.9898
19957TIP3    H281287   5.049   4.490  11.398  0.4557 -0.9399 -1.2173
19958TIP3   OH281288   1.625   3.161  14.953  0.4076  0.1471  0.7066
19958TIP3    H181289   1.614   3.194  14.864  0.8097  1.2548  1.0511
19958TIP3    H281290   1.540   3.120  14.974 -0.9519  2.8746  1.0110
19959TIP3   OH281291   6.141   0.659  13.408 -0.3982  0.0312  0.3302
19959TIP3    H181292   6.083   0.611  13.467 -1.8639 -0.0348 -1.1184
19959TIP3    H281293   6.087   0.681  13.332  1.2160  0.8200 -0.6536
19960TIP3   OH281294   2.812   2.759   2.748  0.2730 -0.2564 -0.6427
19960TIP3    H181295   2.907   2.764   2.740  0.2898  2.9349  0.2252
19960TIP3    H281296   2.779   2.772   2.659  0.6901  1.7240 -0.5509
19961TIP3   OH281297   3.030   2.873   3.378 -0.2854  0.1505  0.4540
19961TIP3    H181298   3.100   2.816   3.410  0.9084  1.2869 -0.0965
19961TIP3    H281299   2.984   2.901   3.457  1.3116  1.2237  1.0382
19962TIP3   OH281300   1.776   4.451   3.411  0.2101 -0.2190  0.3090
19962TIP3    H181301   1.682   4.466   3.401  0.3725  0.5339 -0.2381
19962TIP3    H281302   1.795   4.481   3.500  0.1570  0.9202 -0.0475
19963TIP3   OH281303   2.544   5.440  13.265  0.4669  0.4061  0.1658
19963TIP3    H181304   2.464   5.461  13.218 -0.4966 -1.1338  1.0569
19963TIP3    H281305   2.595   5.387  13.204  0.0585 -0.0065  0.1787
19964TIP3   OH281306   0.748   0.398  16.896  0.2331  0.6454 -0.4908
19964TIP3    H181307   0.825   0.436  16.939  0.7586  0.0268 -0.8633
19964TIP3    H281308   0.777   0.312  16.866  1.1351  2.3084 -5.3538
19965TIP3   OH281309   0.722   1.827  13.407  0.3408  0.2159 -0.2926
19965TIP3    H181310   0.717   1.805  13.500 -1.2298  0.9805 -0.1510
19965TIP3    H281311   0.630   1.826  13.378  0.6805  1.3596 -1.4914
19966TIP3   OH281312   0.194   5.399  14.588 -0.2602  0.1651 -0.2214
19966TIP3    H181313   0.259   5.463  14.619 -0.1774 -0.2401  0.4551
19966TIP3    H281314   0.112   5.449  14.583 -0.6211 -0.0956  2.1499
19967TIP3   OH281315   1.313   6.031  12.401 -0.8187  0.2029 -0.3686
19967TIP3    H181316   1.295   5.995  12.314 -1.0627  0.4894 -0.4379
19967TIP3    H281317   1.227   6.038  12.443 -0.7105  0.1346 -0.1317
19968LIG      O81318   3.460   3.361  16.776 -0.2193 -0.0223  0.6611
19968LIG      N81319   3.092   3.182  16.635  0.5980 -0.1464  0.8322
19968LIG     C181320   3.570   3.386  16.560  0.4778 -0.2248 -0.1636
19968LIG     C281321   3.436   3.390  16.640 -0.9829  0.3337  0.4478
19968LIG     C381322   3.663   3.508  16.584 -0.8441 -0.4489 -0.6253
19968LIG     C481323   3.650   3.253  16.580 -0.5619  0.1361  0.4656
19968LIG     C581324   3.324   3.281  16.594  0.1513  0.0340  0.0633
19968LIG     C681325   3.782   3.508  16.487  0.0268  0.0721 -0.7296
19968LIG     C781326   3.785   3.254  16.492 -0.1947  1.0764 -0.0257
19968LIG     C881327   3.867   3.381  16.499  0.6423  0.3661 -0.1657
19968LIG     C981328   3.182   3.299  16.658  0.3207  0.4412  0.2150
19968LIG    C1081329   3.374   3.534  16.626 -0.4612 -0.7662  0.3046
19968LIG    C1181330   2.958   3.206  16.682 -0.1010  0.8016  0.2831
19968LIG    C1281331   3.085   3.127  16.498  0.2158  0.2247  0.1232
19968LIG    C1381332   2.881   3.306  16.597  0.0903  0.2192  0.6319
19968LIG    C1481333   3.013   3.216  16.396  0.4203 -0.1899 -0.2720
19968LIG    C1581334   2.871   3.256  16.451  0.1323  0.3197  1.2543
19968LIG    C1681335   3.360   3.631  16.729 -0.1053  0.4536  0.0661
19968LIG    C1781336   3.320   3.564  16.498  0.2654  0.2965  0.1145
19968LIG    C1881337   3.285   3.746  16.703  0.0408 -0.9322 -0.4113
19968LIG    C1981338   3.245   3.683  16.476 -0.9413 -0.9414  1.4228
19968LIG    C2081339   3.229   3.768  16.579 -0.6392 -0.9097  0.6656
19968LIG     H181340   3.546   3.398  16.452  1.6273 -2.1509 -0.6744
19968LIG     H281341   3.706   3.506  16.687 -1.6130  1.3490 -0.2324
19968LIG     H381342   3.608   3.603  16.570  1.8515  1.2343 -0.6592
19968LIG     H481343   3.587   3.168  16.547  1.7345 -1.3833 -0.2063
19968LIG     H581344   3.676   3.234  16.686  0.9764  0.6431  0.1988
19968LIG     H681345   3.368   3.180  16.608  0.9939  0.1826 -1.3865
19968LIG     H781346   3.321   3.279  16.483  1.1071  0.6384  0.0182
19968LIG     H881347   3.848   3.595  16.500  1.4719 -1.1802  0.7393
19968LIG     H981348   3.743   3.523  16.384  0.0924  0.8549 -0.6422
19968LIG    H1081349   3.752   3.240  16.387  0.6750  0.9553 -0.2871
19968LIG    H1181350   3.852   3.166  16.503  1.1779  2.1437  0.3414
19968LIG    H1281351   3.934   3.374  16.588  1.0557 -2.5171 -0.5912
19968LIG    H1381352   3.932   3.392  16.410  0.9657 -0.9701 -0.1237
19968LIG    H1481353   3.197   3.303  16.768  0.8224  0.0836  0.1684
19968LIG    H1581354   3.143   3.395  16.619  1.5631  0.0853 -2.1260
19968LIG    H1681355   2.960   3.237  16.788 -1.0891  0.2736  0.4713
19968LIG    H1781356   2.902   3.111  16.673  2.4853 -0.9875  1.5667
19968LIG    H1881357   3.040   3.025  16.499  0.5120  0.0930  0.1886
19968LIG    H1981358   3.190   3.104  16.472  1.0800  0.3703  3.1100
19968LIG    H2081359   3.479   3.267  16.780 -3.0801 -0.6540  1.8252
19968LIG    H2181360   2.927   3.406  16.582 -1.9173  1.1770  0.5118
19968LIG    H2281361   2.782   3.340  16.634 -0.3089  1.1326 -1.1451
19968LIG    H2381362   2.996   3.147  16.311 -1.2015 -2.8839  2.0479
19968LIG    H2481363   3.068   3.307  16.366  0.4567 -0.4142 -0.8879
19968LIG    H2581364   2.830   3.333  16.382  0.1067  1.0609  2.0821
19968LIG    H2681365   2.811   3.162  16.454  0.8332 -0.1238  1.4766
19968LIG    H2781366   3.395   3.607  16.828 -1.2878 -2.0295 -0.0448
19968LIG    H2881367   3.325   3.496  16.414  0.0424 -1.0126  1.1395
19968LIG    H2981368   3.266   3.820  16.780 -0.5682 -0.5409 -0.9302
19968LIG    H3081369   3.205   3.706  16.378 -0.7192  2.2386  1.9731
19968LIG    H3181370   3.178   3.862  16.564 -2.6699 -2.3073 -2.0684
   6.71631   6.71631  17.60057
